
Running Job 1 of 1 selenium/01/C-Se.xyz.data/inputs/bond_singlet_1.8.in
qchem selenium/01/C-Se.xyz.data/inputs/bond_singlet_1.8.in_18109.0 /staging/scratch/2868765/qchem18109/ 1
/usr/usc/qchem/5.1.1/exe/qcprog.exe_s selenium/01/C-Se.xyz.data/inputs/bond_singlet_1.8.in_18109.0 /staging/scratch/2868765/qchem18109/
Check license passed

                  Welcome to Q-Chem
     A Quantum Leap Into The Future Of Chemistry


 Q-Chem 5.1, Q-Chem, Inc., Pleasanton, CA (2018)

 Yihan Shao,  Zhengting Gan,  E. Epifanovsky,  A. T. B. Gilbert,  M. Wormit,  
 J. Kussmann,  A. W. Lange,  A. Behn,  Jia Deng,  Xintian Feng,  D. Ghosh,  
 M. Goldey,  P. R. Horn,  L. D. Jacobson,  I. Kaliman,  T. Kus,  A. Landau,  
 Jie Liu,  E. I. Proynov,  R. M. Richard,  R. P. Steele,  E. J. Sundstrom,  
 H. L. Woodcock III,  P. M. Zimmerman,  D. Zuev,  B. Albrecht,  E. Alguire,  
 S. A. Baeppler,  D. Barton,  Z. Benda,  Y. A. Bernard,  E. J. Berquist,  
 K. B. Bravaya,  H. Burton,  D. Casanova,  Chun-Min Chang,  Yunqing Chen,  
 A. Chien,  K. D. Closser,  M. P. Coons,  S. Coriani,  S. Dasgupta,  
 A. L. Dempwolff,  M. Diedenhofen,  Hainam Do,  R. G. Edgar,  Po-Tung Fang,  
 S. Faraji,  S. Fatehi,  Qingguo Feng,  K. D. Fenk,  J. Fosso-Tande,  
 Qinghui Ge,  A. Ghysels,  G. Gidofalvi,  J. Gomes,  J. Gonthier,  A. Gunina,  
 D. Hait,  M. W. D. Hanson-Heine,  P. H. P. Harbach,  A. W. Hauser,  
 J. E. Herr,  E. G. Hohenstein,  Z. C. Holden,  Kerwin Hui,  B. C. Huynh,  
 T.-C. Jagau,  Hyunjun Ji,  B. Kaduk,  K. Khistyaev,  Jaehoon Kim,  
 P. Klunzinger,  K. Koh,  D. Kosenkov,  L. Koulias,  T. Kowalczyk,  
 C. M. Krauter,  A. Kunitsa,  Ka Un Lao,  A. Laurent,  K. V. Lawler,  
 Joonho Lee,  D. Lefrancois,  S. Lehtola,  D. S. Levine,  Yi-Pei Li,  
 You-Sheng Lin,  Fenglai Liu,  E. Livshits,  A. Luenser,  P. Manohar,  
 E. Mansoor,  S. F. Manzer,  Shan-Ping Mao,  Yuezhi Mao,  N. Mardirossian,  
 A. V. Marenich,  T. Markovich,  L. A. Martinez-Martinez,  S. A. Maurer,  
 N. J. Mayhall,  S. C. McKenzie,  J.-M. Mewes,  A. F. Morrison,  
 J. W. Mullinax,  K. Nanda,  T. S. Nguyen-Beck,  R. Olivares-Amaya,  
 J. A. Parkhill,  T. M. Perrine,  F. Plasser,  P. Pokhilko,  S. Prager,  
 A. Prociuk,  E. Ramos,  D. R. Rehn,  F. Rob,  M. Schneider,  N. Sergueev,  
 S. M. Sharada,  S. Sharma,  D. W. Small,  T. Stauch,  T. Stein,  
 Yu-Chuan Su,  A. J. W. Thom,  A. Tkatchenko,  T. Tsuchimochi,  N. M. Tubman,  
 L. Vogt,  M. L. Vidal,  O. Vydrov,  M. A. Watson,  J. Wenzel,  
 M. de Wergifosse,  T. A. Wesolowski,  A. White,  J. Witte,  A. Yamada,  
 Jun Yang,  K. Yao,  S. Yeganeh,  S. R. Yost,  Zhi-Qiang You,  A. Zech,  
 Igor Ying Zhang,  Xing Zhang,  Yan Zhao,  Ying Zhu,  B. R. Brooks,  
 G. K. L. Chan,  C. J. Cramer,  M. S. Gordon,  W. J. Hehre,  A. Klamt,  
 M. W. Schmidt,  C. D. Sherrill,  D. G. Truhlar,  A. Aspuru-Guzik,  R. Baer,  
 A. T. Bell,  N. A. Besley,  Jeng-Da Chai,  A. E. DePrince, III,  
 R. A. DiStasio Jr.,  A. Dreuw,  B. D. Dunietz,  T. R. Furlani,  
 Chao-Ping Hsu,  Yousung Jung,  Jing Kong,  D. S. Lambrecht,  WanZhen Liang,  
 C. Ochsenfeld,  V. A. Rassolov,  L. V. Slipchenko,  J. E. Subotnik,  
 T. Van Voorhis,  J. M. Herbert,  A. I. Krylov,  P. M. W. Gill,  M. Head-Gordon

 Contributors to earlier versions of Q-Chem not listed above: 
 R. D. Adamson,  B. Austin,  J. Baker,  G. J. O. Beran,  K. Brandhorst,  
 S. T. Brown,  E. F. C. Byrd,  A. K. Chakraborty,  C.-L. Cheng,  
 Siu Hung Chien,  D. M. Chipman,  D. L. Crittenden,  H. Dachsel,  
 R. J. Doerksen,  A. D. Dutoi,  L. Fusti-Molnar,  W. A. Goddard III,  
 A. Golubeva-Zadorozhnaya,  S. R. Gwaltney,  G. Hawkins,  A. Heyden,  
 S. Hirata,  G. Kedziora,  F. J. Keil,  C. Kelley,  Jihan Kim,  R. A. King,  
 R. Z. Khaliullin,  P. P. Korambath,  W. Kurlancheek,  A. M. Lee,  M. S. Lee,  
 S. V. Levchenko,  Ching Yeh Lin,  D. Liotard,  R. C. Lochan,  I. Lotan,  
 P. E. Maslen,  N. Nair,  D. P. O'Neill,  D. Neuhauser,  E. Neuscamman,  
 C. M. Oana,  R. Olson,  B. Peters,  R. Peverati,  P. A. Pieniazek,  
 Y. M. Rhee,  J. Ritchie,  M. A. Rohrdanz,  E. Rosta,  N. J. Russ,  
 H. F. Schaefer III,  N. E. Schultz,  N. Shenvi,  A. C. Simmonett,  A. Sodt,  
 D. Stuck,  K. S. Thanthiriwatte,  V. Vanovschi,  Tao Wang,  A. Warshel,  
 C. F. Williams,  Q. Wu,  X. Xu,  W. Zhang

 Please cite Q-Chem as follows:
 Y. Shao et al., Mol. Phys. 113, 184-215 (2015)
 DOI: 10.1080/00268976.2014.952696

 Q-Chem 5.1.1 for Intel X86 EM64T Linux

 Parts of Q-Chem use Armadillo 8.300.2 (Tropical Shenanigans).
 http://arma.sourceforge.net/

 Q-Chem begins on Wed Mar 13 13:54:36 2019  

Host: 
0

     Scratch files written to /staging/scratch/2868765/qchem18109//
 Aug318 |scratch|qcdevops|jenkins|workspace|build_RNUM 6013   
Processing $rem in /usr/usc/qchem/5.1.1/config/preferences.
 MEM_TOTAL  2000 
Input Ideriv = 2
Curr. Ideriv = -1
Max.  Ideriv = 2

Checking the input file for inconsistencies... 	...done.

--------------------------------------------------------------
User input:
--------------------------------------------------------------

$comment
potential surface scanner
$end

$rem
JOBTYPE  PES_SCAN
UNRESTRICTED TRUE
SYM_IGNORE  TRUE
GEOM_OPT_MAX_CYCLES 400
SCF_MAX_CYCLES 400
METHOD   B3LYP
BASIS   6-31G**
PDB_PRINT 2
SCF_CONVERGENCE 6
THRESH 14
SCF_PRINT 1
$end
$molecule
0 1
C -1.730200 1.249200 0.145700
C -1.070500 -0.000000 -0.441800
Se 0.838900 0.000000 0.000600
H 0.783300 0.000000 1.559600
C -1.730200 -1.249200 0.145700
H -1.260200 2.139200 -0.272800
H -2.792000 1.249200 -0.100300
H -1.608100 1.249200 1.228900
H -1.192500 -0.000000 -1.524900
H -2.792000 -1.249200 -0.100300
H -1.260200 -2.139200 -0.272800
H -1.608100 -1.249200 1.228900
$end
$scan
stre 2 3 1.800000 1.801000 0.100000
$end
--------------------------------------------------------------
 ----------------------------------------------------------------
             Standard Nuclear Orientation (Angstroms)
    I     Atom           X                Y                Z
 ----------------------------------------------------------------
    1      C      -1.7302000000     1.2492000000     0.1457000000
    2      C      -1.0705000000     0.0000000000    -0.4418000000
    3      Se      0.8389000000     0.0000000000     0.0006000000
    4      H       0.7833000000     0.0000000000     1.5596000000
    5      C      -1.7302000000    -1.2492000000     0.1457000000
    6      H      -1.2602000000     2.1392000000    -0.2728000000
    7      H      -2.7920000000     1.2492000000    -0.1003000000
    8      H      -1.6081000000     1.2492000000     1.2289000000
    9      H      -1.1925000000     0.0000000000    -1.5249000000
   10      H      -2.7920000000    -1.2492000000    -0.1003000000
   11      H      -1.2602000000    -2.1392000000    -0.2728000000
   12      H      -1.6081000000    -1.2492000000     1.2289000000
 ----------------------------------------------------------------
 Nuclear Repulsion Energy =   262.3907289757 hartrees
 There are       30 alpha and       30 beta electrons
 Requested basis set is 6-31G(d,p)
 There are 44 shells and 120 basis functions

 Total QAlloc Memory Limit   2000 MB
 Mega-Array Size       188 MB
 MEM_STATIC part       192 MB
A total of 1 constraints
  
            1
    1   1.0100000
    2   2.0100000
    3   3.0100000
    4   1.8000000
    5   1.8010000
    6   0.1000000
    7   0.0000000
    8   0.0000000
    9   0.0000000
   10   0.0000000

                       Distance Matrix (Angstroms)
             C (  1)   C (  2)   Se(  3)   H (  4)   C (  5)   H (  6)
   C (  2)  1.529987
   Se(  3)  2.860390  1.959981
   H (  4)  3.142817  2.728035  1.559991
   C (  5)  2.498400  1.529987  2.860390  3.142817
   H (  6)  1.090019  2.154234  3.009509  3.479908  3.446345
   H (  7)  1.089924  2.154225  3.841109  4.135038  2.725791  1.779963
   H (  8)  1.090060  2.154241  3.009490  2.718208  2.725845  1.779954
   H (  9)  2.154188  1.089949  2.540420  3.663049  2.154188  2.479620
   H ( 10)  2.725791  2.154225  3.841109  4.135038  1.089924  3.722556
   H ( 11)  3.446345  2.154234  3.009509  3.479908  1.090019  4.278400
   H ( 12)  2.725845  2.154241  3.009490  2.718208  1.090060  3.722552
             H (  7)   H (  8)   H (  9)   H ( 10)   H ( 11)
   H (  8)  1.779998
   H (  9)  2.479594  3.052317
   H ( 10)  2.498400  3.067637  2.479594
   H ( 11)  3.722556  3.722552  2.479620  1.779963
   H ( 12)  3.067637  2.498400  3.052317  1.779998  1.779954
 
 A cutoff of  1.0D-14 yielded    970 shell pairs
 There are      7307 function pairs
 
 -------------------------------------------------------
 OpenMP Integral Computing Module                       
 Release: version 1.0, May 2013, Q-Chem Inc. Pittsburgh 
 -------------------------------------------------------
 Integral Job Info:
 Integral job number is                      11
 Integral operator is                         1
 short-range coefficients                     0
 long-range coefficients              100000000
 Omega coefficients                           0
 if combine SR and LR in K                    0
 Integral screening is                        0
 Integral computing path is                   2
 max size of driver memory is            800000
 size of driver memory is                593474
 size of scratch memory is             15267112
 max col of scratch BK array               1296
 max len of scratch array in speh3          155
 max len of scratch index in speh4           18
 max int batch size is                      520
 min int batch size is                       52
 fixed nKL is                                52
 max L of basis functions is                  2
 order of int derivative is                   0
 number of shells is                         44
 number of basis is                         120
 number of cartesian basis is               120
 number of contracted shell pairs           970
 number of primitive shell pairs           3688
 maxK2 (contraction) of shell pair           36
 max number of K2 of shell pair               1
 max number of CS2 of shell pair             86
 max number of PS2 of shell pair            288
 mem total for path MDJ                  519708
 -------------------------------------------------------
 Smallest overlap matrix eigenvalue = 6.74E-04

 Scale SEOQF with 1.000000e-01/1.000000e-01/1.000000e-01

 Standard Electronic Orientation quadrupole field applied
 Nucleus-field energy     =     0.0000000047 hartrees
 Guess from superposition of atomic densities
 Warning:  Energy on first SCF cycle will be non-variational
 SAD guess density has 59.968191 electrons

 -----------------------------------------------------------------------
  General SCF calculation program by
  Eric Jon Sundstrom, Paul Horn, Yuezhi Mao, Dmitri Zuev, Alec White,
  David Stuck, Shaama M.S., Shane Yost, Joonho Lee, David Small,
  Daniel Levine, Susi Lehtola, Hugh Burton, Evgeny Epifanovsky
 -----------------------------------------------------------------------
 Exchange:     0.2000 Hartree-Fock + 0.0800 Slater + 0.7200 B88
 Correlation:  0.1900 VWN1RPA + 0.8100 LYP
 Using SG-1 standard quadrature grid
 using 12 threads for integral computing
 -------------------------------------------------------
 OpenMP Integral computing Module                
 Release: version 1.0, May 2013, Q-Chem Inc. Pittsburgh 
 -------------------------------------------------------
 -------------------------------------------------------
 OpenMP BLAS3 based DFT computing Module                
 Release: version 1.0, May 2013, Q-Chem Inc. Pittsburgh 
 -------------------------------------------------------
 A unrestricted SCF calculation will be
 performed using DIIS
 SCF converges when DIIS error is below 1.0e-06
 Alpha HF Exchange    Energy = -10.36874540746125
 Beta HF Exchange     Energy = -10.36874540746125
 DFT Correlation      Energy =  -3.09228192288524
 DFT Exchange         Energy = -82.03653711550898
 One-Electron (alpha) Energy = -2009.55236640785802
 One-Electron (beta)  Energy = -2009.55236640785802
 Total Coulomb        Energy = 1339.16670206529125
 ---------------------------------------
  Cycle       Energy         DIIS error
 ---------------------------------------
    1   -2523.4136116233      1.39e-01  
 Alpha HF Exchange    Energy = -10.42400060729060
 Beta HF Exchange     Energy = -10.42400060729061
 DFT Correlation      Energy =  -3.13484673835002
 DFT Exchange         Energy = -82.94792493966037
 One-Electron (alpha) Energy = -2016.85158295230599
 One-Electron (beta)  Energy = -2016.85158295230690
 Total Coulomb        Energy = 1357.93243274700308
    2   -2520.3107770698      8.94e-03  
 Alpha HF Exchange    Energy = -10.32263851748536
 Beta HF Exchange     Energy = -10.32263851748538
 DFT Correlation      Energy =  -3.09641071369595
 DFT Exchange         Energy = -82.12235611459010
 One-Electron (alpha) Energy = -2006.72609743933549
 One-Electron (beta)  Energy = -2006.72609743933685
 Total Coulomb        Energy = 1336.63308268278934
    3   -2520.2924270787      4.66e-03  
 Alpha HF Exchange    Energy = -10.40252805813651
 Beta HF Exchange     Energy = -10.40252805813651
 DFT Correlation      Energy =  -3.12718366955655
 DFT Exchange         Energy = -82.76945322803124
 One-Electron (alpha) Energy = -2014.65685855634729
 One-Electron (beta)  Energy = -2014.65685855634592
 Total Coulomb        Energy = 1353.23722484059817
    4   -2520.3874563056      2.73e-03  
 Alpha HF Exchange    Energy = -10.37625005826879
 Beta HF Exchange     Energy = -10.37625005826881
 DFT Correlation      Energy =  -3.11657288640097
 DFT Exchange         Energy = -82.55467574084257
 One-Electron (alpha) Energy = -2012.31678513839347
 One-Electron (beta)  Energy = -2012.31678513839415
 Total Coulomb        Energy = 1348.23168865229968
    5   -2520.4349013879      5.97e-04  
 Alpha HF Exchange    Energy = -10.37477428272581
 Beta HF Exchange     Energy = -10.37477428272579
 DFT Correlation      Energy =  -3.11666366167576
 DFT Exchange         Energy = -82.54457592049710
 One-Electron (alpha) Energy = -2012.07953988895019
 One-Electron (beta)  Energy = -2012.07953988894837
 Total Coulomb        Energy = 1347.74162241860495
    6   -2520.4375165265      7.75e-05  
 Alpha HF Exchange    Energy = -10.37443569580119
 Beta HF Exchange     Energy = -10.37443569580121
 DFT Correlation      Energy =  -3.11640954329291
 DFT Exchange         Energy = -82.54156455530475
 One-Electron (alpha) Energy = -2012.03383016436601
 One-Electron (beta)  Energy = -2012.03383016436692
 Total Coulomb        Energy = 1347.64622187470968
    7   -2520.4375549638      1.30e-05  
 Alpha HF Exchange    Energy = -10.37450078887117
 Beta HF Exchange     Energy = -10.37450078887116
 DFT Correlation      Energy =  -3.11643318782391
 DFT Exchange         Energy = -82.54207605974761
 One-Electron (alpha) Energy = -2012.04999730789200
 One-Electron (beta)  Energy = -2012.04999730789109
 Total Coulomb        Energy = 1347.67921984171994
    8   -2520.4375566190      5.21e-06  
 Alpha HF Exchange    Energy = -10.37448676446538
 Beta HF Exchange     Energy = -10.37448676446539
 DFT Correlation      Energy =  -3.11643414080605
 DFT Exchange         Energy = -82.54197682082903
 One-Electron (alpha) Energy = -2012.04594259482542
 One-Electron (beta)  Energy = -2012.04594259482565
 Total Coulomb        Energy = 1347.67098390689853
    9   -2520.4375567929      9.33e-07  Convergence criterion met
 ---------------------------------------
 SCF time:   CPU 29.71s  wall 2.00s 
<S^2> =         -0.000000000
 Alpha HF Exchange    Energy = -10.37448676446538
 Beta HF Exchange     Energy = -10.37448676446539
 DFT Correlation      Energy =  -3.11643414080605
 DFT Exchange         Energy = -82.54197682082903
 One-Electron (alpha) Energy = -2012.04594259482542
 One-Electron (beta)  Energy = -2012.04594259482565
 Total Coulomb        Energy = 1347.67098390689853
 Nuclear repulsion Energy = 262.39072898040314
 SCF   energy in the final basis set =    -2520.4375567929
 Total energy in the final basis set =    -2520.4375567929
 
 --------------------------------------------------------------
 
                    Orbital Energies (a.u.)
 --------------------------------------------------------------
 
 Alpha MOs
 -- Occupied --
******* -58.085 -52.142 -52.141 -52.139 -10.225 -10.182 -10.182
 -7.818  -5.764  -5.759  -5.750  -2.097  -2.097  -2.089  -2.085
 -2.084  -0.811  -0.692  -0.681  -0.576  -0.464  -0.443  -0.415
 -0.395  -0.375  -0.353  -0.346  -0.296  -0.220
 -- Virtual --
  0.010   0.030   0.092   0.130   0.151   0.153   0.168   0.184
  0.192   0.205   0.224   0.237   0.286   0.328   0.334   0.465
  0.465   0.494   0.512   0.570   0.580   0.656   0.679   0.686
  0.711   0.744   0.773   0.796   0.841   0.868   0.869   0.894
  0.906   0.931   0.952   0.963   1.004   1.104   1.327   1.354
  1.404   1.505   1.557   1.643   1.785   1.802   1.831   1.884
  1.903   2.031   2.036   2.047   2.067   2.074   2.091   2.092
  2.104   2.118   2.271   2.329   2.360   2.395   2.522   2.553
  2.565   2.635   2.676   2.682   2.708   2.871   2.884   2.896
  2.910   3.191   3.245   3.316   3.417   3.451   3.465   3.512
  4.251   4.284   4.343   4.373   4.407   4.492   4.527   4.642
  5.477  89.785
 
 Beta MOs
 -- Occupied --
******* -58.085 -52.142 -52.141 -52.139 -10.225 -10.182 -10.182
 -7.818  -5.764  -5.759  -5.750  -2.097  -2.097  -2.089  -2.085
 -2.084  -0.811  -0.692  -0.681  -0.576  -0.464  -0.443  -0.415
 -0.395  -0.375  -0.353  -0.346  -0.296  -0.220
 -- Virtual --
  0.010   0.030   0.092   0.130   0.151   0.153   0.168   0.184
  0.192   0.205   0.224   0.237   0.286   0.328   0.334   0.465
  0.465   0.494   0.512   0.570   0.580   0.656   0.679   0.686
  0.711   0.744   0.773   0.796   0.841   0.868   0.869   0.894
  0.906   0.931   0.952   0.963   1.004   1.104   1.327   1.354
  1.404   1.505   1.557   1.643   1.785   1.802   1.831   1.884
  1.903   2.031   2.036   2.047   2.067   2.074   2.091   2.092
  2.104   2.118   2.271   2.329   2.360   2.395   2.522   2.553
  2.565   2.635   2.676   2.682   2.708   2.871   2.884   2.896
  2.910   3.191   3.245   3.316   3.417   3.451   3.465   3.512
  4.251   4.284   4.343   4.373   4.407   4.492   4.527   4.642
  5.477  89.785
 --------------------------------------------------------------
 
          Ground-State Mulliken Net Atomic Charges

     Atom                 Charge (a.u.)    Spin (a.u.)
  --------------------------------------------------------
      1 C                    -0.295010      -0.000000
      2 C                    -0.152384      -0.000000
      3 Se                   -0.094480       0.000000
      4 H                     0.042859      -0.000000
      5 C                    -0.295010       0.000000
      6 H                     0.122135       0.000000
      7 H                     0.101155      -0.000000
      8 H                     0.108279       0.000000
      9 H                     0.130887       0.000000
     10 H                     0.101155      -0.000000
     11 H                     0.122135       0.000000
     12 H                     0.108279      -0.000000
  --------------------------------------------------------
  Sum of atomic charges =    -0.000000
  Sum of spin   charges =     0.000000

 -----------------------------------------------------------------
                    Cartesian Multipole Moments
 -----------------------------------------------------------------
    Charge (ESU x 10^10)
                 0.0000
    Dipole Moment (Debye)
         X      -1.7510      Y      -0.0000      Z       0.2382
       Tot       1.7671
    Quadrupole Moments (Debye-Ang)
        XX     -39.1891     XY       0.0000     YY     -41.4774
        XZ       1.5625     YZ       0.0000     ZZ     -36.7141
    Octopole Moments (Debye-Ang^2)
       XXX      47.0455    XXY      -0.0000    XYY      14.4440
       YYY      -0.0000    XXZ      -0.8815    XYZ       0.0000
       YYZ      -1.7755    XZZ      16.8874    YZZ      -0.0000
       ZZZ      -1.5700
    Hexadecapole Moments (Debye-Ang^3)
      XXXX    -449.5869   XXXY       0.0000   XXYY    -118.5745
      XYYY       0.0000   YYYY    -216.3825   XXXZ       6.8193
      XXYZ       0.0000   XYYZ       1.0249   YYYZ      -0.0000
      XXZZ     -89.6006   XYZZ       0.0000   YYZZ     -51.1667
      XZZZ       1.9562   YZZZ       0.0000   ZZZZ     -79.2130
 -----------------------------------------------------------------
 Calculating analytic gradient of the SCF energy
 Gradient of SCF Energy
            1           2           3           4           5           6
    1  -0.0054318   0.0190443  -0.0221925   0.0070985  -0.0054318   0.0019263
    2   0.0005657   0.0000000   0.0000000   0.0000000  -0.0005657  -0.0043213
    3   0.0089295  -0.0250746  -0.0129772   0.0271283   0.0089295  -0.0022869
            7           8           9          10          11          12
    1   0.0047275   0.0018519  -0.0100982   0.0047275   0.0019263   0.0018519
    2  -0.0022684  -0.0028548   0.0000000   0.0022684   0.0043213   0.0028548
    3  -0.0007447  -0.0024153   0.0039583  -0.0007447  -0.0022869  -0.0024153
 Max gradient component =       2.713E-02
 RMS gradient           =       9.009E-03
 Gradient time:  CPU 12.41 s  wall 1.07 s
 Geometry Optimization Parameters
   NAtoms,    NIC,     NZ,  NCons,   NDum,   NFix, NCnnct, MaxDiis
       12      75       0       1       0       0       0       0


** CONSTRAINED OPTIMIZATION IN DELOCALIZED INTERNAL COORDINATES **
   Searching for a Minimum

   Optimization Cycle:   1

                       Coordinates (Angstroms)
     ATOM                X               Y               Z
      1  C        -1.7302000000    1.2492000000    0.1457000000
      2  C        -1.0705000000    0.0000000000   -0.4418000000
      3  Se        0.8389000000    0.0000000000    0.0006000000
      4  H         0.7833000000    0.0000000000    1.5596000000
      5  C        -1.7302000000   -1.2492000000    0.1457000000
      6  H        -1.2602000000    2.1392000000   -0.2728000000
      7  H        -2.7920000000    1.2492000000   -0.1003000000
      8  H        -1.6081000000    1.2492000000    1.2289000000
      9  H        -1.1925000000    0.0000000000   -1.5249000000
     10  H        -2.7920000000   -1.2492000000   -0.1003000000
     11  H        -1.2602000000   -2.1392000000   -0.2728000000
     12  H        -1.6081000000   -1.2492000000    1.2289000000
   Point Group: c1    Number of degrees of freedom:    30


   Energy is  -2520.437556793

              Constraints and their Current Values
                                        Value     Constraint
   Distance(Angs):        2   3             1.959981     1.800000

 Attempting to Generate Delocalized Internal Coordinates
**WARNING** Constraint Gradient Reduced for constraint   1

   Using Lagrange Multiplier Algorithm


 26 Hessian modes will be used to form the next step
  Hessian Eigenvalues:
    -0.920003    0.045000    0.077216    0.080533    0.084997    0.084997
     0.085005    0.085005    0.144779    0.160000    0.160000    0.160000
     0.160000    0.160000    0.160000    0.160000    0.202570    0.294246
     0.348057    0.348057    0.348104    0.348104    0.348185    0.348214
     0.348214    1.086953

 Minimum Search - Taking P-RFO Step
 Searching for Lamda that Maximizes Along the Constraint modes Only
 Value Taken    Lamda =   0.05365737


 ********************************************
 ** ERROR IN DETERMINING Lamda IN CONFormD **
 ********************************************


 ** Scaling Hessian by  2.384772 **


 26 Hessian modes will be used to form the next step
  Hessian Eigenvalues:
    -0.820552    0.107315    0.184143    0.192054    0.202698    0.202698
     0.202718    0.202718    0.345265    0.381564    0.381564    0.381564
     0.381564    0.381564    0.381564    0.381564    0.483083    0.701710
     0.830037    0.830037    0.830149    0.830149    0.830342    0.830410
     0.830410    1.218691

 Minimum Search - Taking P-RFO Step
 Searching for Lamda that Maximizes Along the Constraint modes Only
 Value Taken    Lamda =   0.06464600
 Searching for Lamda that Minimizes Along All other modes
 Value Taken    Lamda =  -0.03169871
 Calculated Step too Large.  Step scaled by  0.965572
 Step Taken.  Stepsize is  0.300000

                             Maximum     Tolerance    Cnvgd?
         Gradient            0.300000       0.000300      NO
         Displacement        0.273815       0.001200      NO
         Energy change     *********       0.000001      NO


 New Cartesian Coordinates Obtained by Inverse Iteration

 Displacement from previous Coordinates is:  0.446863
 ----------------------------------------------------------------
             Standard Nuclear Orientation (Angstroms)
    I     Atom           X                Y                Z
 ----------------------------------------------------------------
    1      C      -1.7023757301     1.2586351625     0.1556498351
    2      C      -1.0392235717     0.0000000000    -0.4208616311
    3      Se      0.7361353598     0.0000000000    -0.0431935845
    4      H       0.6246946563     0.0000000000     1.4763461332
    5      C      -1.7023757301    -1.2586351625     0.1556498351
    6      H      -1.2380955457     2.1548259213    -0.2588184987
    7      H      -2.7663923130     1.2621277379    -0.0924094664
    8      H      -1.5914746281     1.2728308564     1.2412645625
    9      H      -1.1467300104     0.0000000000    -1.5071637826
   10      H      -2.7663923130    -1.2621277379    -0.0924094664
   11      H      -1.2380955457    -2.1548259213    -0.2588184987
   12      H      -1.5914746281    -1.2728308564     1.2412645625
 ----------------------------------------------------------------
 Nuclear Repulsion Energy =   271.3643452560 hartrees
 There are       30 alpha and       30 beta electrons

                       Distance Matrix (Angstroms)
             C (  1)   C (  2)   Se(  3)   H (  4)   C (  5)   H (  6)
   C (  2)  1.535024
   Se(  3)  2.751370  1.815085
   H (  4)  2.956968  2.523494  1.523621
   C (  5)  2.517270  1.535024  2.751370  2.956968
   H (  6)  1.091099  2.170042  2.930419  3.335275  3.469734
   H (  7)  1.092555  2.164246  3.723317  3.943784  2.747346  1.777721
   H (  8)  1.091357  2.165120  2.947490  2.566470  2.756661  1.775681
   H (  9)  2.158206  1.091609  2.385035  3.469766  2.158206  2.491985
   H ( 10)  2.747346  2.164246  3.723317  3.943784  1.092555  3.746859
   H ( 11)  3.469734  2.170042  2.930419  3.335275  1.091099  4.309652
   H ( 12)  2.756661  2.165120  2.947490  2.566470  1.091357  3.758185
             H (  7)   H (  8)   H (  9)   H ( 10)   H ( 11)
   H (  8)  1.777423
   H (  9)  2.493552  3.061332
   H ( 10)  2.524255  3.095987  2.493552
   H ( 11)  3.746859  3.758185  2.491985  1.777721
   H ( 12)  3.095987  2.545662  3.061332  1.777423  1.775681
 
 Applying Cartesian multipole field
    Component          Value
    ---------          -----
     (2,0,0)        1.00000E-11
     (0,2,0)        2.00000E-11
     (0,0,2)       -3.00000E-11
 Nucleus-field energy     =     0.0000000045 hartrees
 Requested basis set is 6-31G(d,p)
 There are 44 shells and 120 basis functions
 A cutoff of  1.0D-14 yielded    973 shell pairs
 There are      7329 function pairs
 Smallest overlap matrix eigenvalue = 6.74E-04
 Guess from superposition of atomic densities
 Warning:  Energy on first SCF cycle will be non-variational
 SAD guess density has 59.968191 electrons

 -----------------------------------------------------------------------
  General SCF calculation program by
  Eric Jon Sundstrom, Paul Horn, Yuezhi Mao, Dmitri Zuev, Alec White,
  David Stuck, Shaama M.S., Shane Yost, Joonho Lee, David Small,
  Daniel Levine, Susi Lehtola, Hugh Burton, Evgeny Epifanovsky
 -----------------------------------------------------------------------
 Exchange:     0.2000 Hartree-Fock + 0.0800 Slater + 0.7200 B88
 Correlation:  0.1900 VWN1RPA + 0.8100 LYP
 Using SG-1 standard quadrature grid
 using 12 threads for integral computing
 -------------------------------------------------------
 OpenMP Integral computing Module                
 Release: version 1.0, May 2013, Q-Chem Inc. Pittsburgh 
 -------------------------------------------------------
 -------------------------------------------------------
 OpenMP BLAS3 based DFT computing Module                
 Release: version 1.0, May 2013, Q-Chem Inc. Pittsburgh 
 -------------------------------------------------------
 A unrestricted SCF calculation will be
 performed using DIIS
 SCF converges when DIIS error is below 1.0e-06
 Alpha HF Exchange    Energy = -10.38321161866682
 Beta HF Exchange     Energy = -10.38321161866682
 DFT Correlation      Energy =  -3.09643756332720
 DFT Exchange         Energy = -82.06632664848519
 One-Electron (alpha) Energy = -2018.45537441018746
 One-Electron (beta)  Energy = -2018.45537441018746
 Total Coulomb        Energy = 1347.89412513387560
 ---------------------------------------
  Cycle       Energy         DIIS error
 ---------------------------------------
    1   -2523.5814658751      1.40e-01  
 Alpha HF Exchange    Energy = -10.43010177744272
 Beta HF Exchange     Energy = -10.43010177744272
 DFT Correlation      Energy =  -3.13931874437433
 DFT Exchange         Energy = -82.99050071553918
 One-Electron (alpha) Energy = -2025.87530595575254
 One-Electron (beta)  Energy = -2025.87530595575254
 Total Coulomb        Energy = 1367.07504977555664
    2   -2520.3012398902      8.97e-03  
 Alpha HF Exchange    Energy = -10.32690393510563
 Beta HF Exchange     Energy = -10.32690393510564
 DFT Correlation      Energy =  -3.09999375852712
 DFT Exchange         Energy = -82.14965649679485
 One-Electron (alpha) Energy = -2015.51420121203500
 One-Electron (beta)  Energy = -2015.51420121203660
 Total Coulomb        Energy = 1345.29257626632534
    3   -2520.2749390227      4.79e-03  
 Alpha HF Exchange    Energy = -10.40832835150253
 Beta HF Exchange     Energy = -10.40832835150252
 DFT Correlation      Energy =  -3.13168972947231
 DFT Exchange         Energy = -82.80970187727900
 One-Electron (alpha) Energy = -2023.67476254073608
 One-Electron (beta)  Energy = -2023.67476254073654
 Total Coulomb        Energy = 1362.36797450235986
    4   -2520.3752536283      2.84e-03  
 Alpha HF Exchange    Energy = -10.38211180717131
 Beta HF Exchange     Energy = -10.38211180717132
 DFT Correlation      Energy =  -3.12091837631824
 DFT Exchange         Energy = -82.59528052008186
 One-Electron (alpha) Energy = -2021.25869912131475
 One-Electron (beta)  Energy = -2021.25869912131589
 Total Coulomb        Energy = 1357.20555612556905
    5   -2520.4279193673      5.74e-04  
 Alpha HF Exchange    Energy = -10.38023284703345
 Beta HF Exchange     Energy = -10.38023284703344
 DFT Correlation      Energy =  -3.12085752505687
 DFT Exchange         Energy = -82.58163659655685
 One-Electron (alpha) Energy = -2021.02517194012785
 One-Electron (beta)  Energy = -2021.02517194012580
 Total Coulomb        Energy = 1356.71882864622944
    6   -2520.4301297892      7.75e-05  
 Alpha HF Exchange    Energy = -10.37991731945132
 Beta HF Exchange     Energy = -10.37991731945131
 DFT Correlation      Energy =  -3.12061908751485
 DFT Exchange         Energy = -82.57885606979112
 One-Electron (alpha) Energy = -2020.97459688048752
 One-Electron (beta)  Energy = -2020.97459688048821
 Total Coulomb        Energy = 1356.61399197035598
    7   -2520.4301663263      1.49e-05  
 Alpha HF Exchange    Energy = -10.38000545915182
 Beta HF Exchange     Energy = -10.38000545915182
 DFT Correlation      Energy =  -3.12064480693846
 DFT Exchange         Energy = -82.57953700976086
 One-Electron (alpha) Energy = -2020.99509466550535
 One-Electron (beta)  Energy = -2020.99509466550535
 Total Coulomb        Energy = 1356.65586852634010
    8   -2520.4301682791      7.33e-06  
 Alpha HF Exchange    Energy = -10.37998987261131
 Beta HF Exchange     Energy = -10.37998987261132
 DFT Correlation      Energy =  -3.12064792050328
 DFT Exchange         Energy = -82.57943129814151
 One-Electron (alpha) Energy = -2020.99058763648873
 One-Electron (beta)  Energy = -2020.99058763648895
 Total Coulomb        Energy = 1356.64672036719912
    9   -2520.4301686091      6.81e-07  Convergence criterion met
 ---------------------------------------
 SCF time:   CPU 29.17s  wall 2.00s 
<S^2> =          0.000000000
 Alpha HF Exchange    Energy = -10.37998987261131
 Beta HF Exchange     Energy = -10.37998987261132
 DFT Correlation      Energy =  -3.12064792050328
 DFT Exchange         Energy = -82.57943129814151
 One-Electron (alpha) Energy = -2020.99058763648873
 One-Electron (beta)  Energy = -2020.99058763648895
 Total Coulomb        Energy = 1356.64672036719912
 Nuclear repulsion Energy = 271.36434526052994
 SCF   energy in the final basis set =    -2520.4301686091
 Total energy in the final basis set =    -2520.4301686091
 
 --------------------------------------------------------------
 
                    Orbital Energies (a.u.)
 --------------------------------------------------------------
 
 Alpha MOs
 -- Occupied --
******* -58.082 -52.140 -52.139 -52.136 -10.218 -10.182 -10.182
 -7.817  -5.763  -5.758  -5.749  -2.096  -2.096  -2.088  -2.084
 -2.083  -0.825  -0.692  -0.690  -0.576  -0.465  -0.442  -0.418
 -0.394  -0.380  -0.352  -0.349  -0.303  -0.217
 -- Virtual --
  0.015   0.065   0.096   0.128   0.151   0.152   0.167   0.179
  0.191   0.201   0.217   0.246   0.290   0.332   0.354   0.468
  0.474   0.487   0.509   0.565   0.591   0.655   0.674   0.692
  0.726   0.751   0.776   0.830   0.855   0.866   0.869   0.900
  0.904   0.935   0.951   0.961   1.059   1.109   1.340   1.388
  1.404   1.517   1.551   1.661   1.802   1.802   1.822   1.872
  1.905   2.035   2.038   2.058   2.073   2.074   2.102   2.108
  2.110   2.132   2.278   2.327   2.354   2.396   2.529   2.559
  2.586   2.641   2.670   2.693   2.713   2.868   2.879   2.893
  2.912   3.186   3.235   3.317   3.417   3.453   3.465   3.507
  4.254   4.293   4.366   4.371   4.429   4.498   4.537   4.624
  5.484  89.804
 
 Beta MOs
 -- Occupied --
******* -58.082 -52.140 -52.139 -52.136 -10.218 -10.182 -10.182
 -7.817  -5.763  -5.758  -5.749  -2.096  -2.096  -2.088  -2.084
 -2.083  -0.825  -0.692  -0.690  -0.576  -0.465  -0.442  -0.418
 -0.394  -0.380  -0.352  -0.349  -0.303  -0.217
 -- Virtual --
  0.015   0.065   0.096   0.128   0.151   0.152   0.167   0.179
  0.191   0.201   0.217   0.246   0.290   0.332   0.354   0.468
  0.474   0.487   0.509   0.565   0.591   0.655   0.674   0.692
  0.726   0.751   0.776   0.830   0.855   0.866   0.869   0.900
  0.904   0.935   0.951   0.961   1.059   1.109   1.340   1.388
  1.404   1.517   1.551   1.661   1.802   1.802   1.822   1.872
  1.905   2.035   2.038   2.058   2.073   2.074   2.102   2.108
  2.110   2.132   2.278   2.327   2.354   2.396   2.529   2.559
  2.586   2.641   2.670   2.693   2.713   2.868   2.879   2.893
  2.912   3.186   3.235   3.317   3.417   3.453   3.465   3.507
  4.254   4.293   4.366   4.371   4.429   4.498   4.537   4.624
  5.484  89.804
 --------------------------------------------------------------
 
          Ground-State Mulliken Net Atomic Charges

     Atom                 Charge (a.u.)    Spin (a.u.)
  --------------------------------------------------------
      1 C                    -0.297443       0.000000
      2 C                    -0.140868       0.000000
      3 Se                   -0.089369       0.000000
      4 H                     0.040343       0.000000
      5 C                    -0.297443       0.000000
      6 H                     0.122346      -0.000000
      7 H                     0.098943      -0.000000
      8 H                     0.106045       0.000000
      9 H                     0.130113      -0.000000
     10 H                     0.098943      -0.000000
     11 H                     0.122346      -0.000000
     12 H                     0.106045      -0.000000
  --------------------------------------------------------
  Sum of atomic charges =     0.000000
  Sum of spin   charges =     0.000000

 -----------------------------------------------------------------
                    Cartesian Multipole Moments
 -----------------------------------------------------------------
    Charge (ESU x 10^10)
                 0.0000
    Dipole Moment (Debye)
         X      -1.6569      Y       0.0000      Z       0.2221
       Tot       1.6717
    Quadrupole Moments (Debye-Ang)
        XX     -39.4125     XY      -0.0000     YY     -41.1893
        XZ       1.3525     YZ      -0.0000     ZZ     -36.7619
    Octopole Moments (Debye-Ang^2)
       XXX      52.5181    XXY       0.0000    XYY      15.9612
       YYY      -0.0000    XXZ      -0.2682    XYZ       0.0000
       YYZ      -0.9860    XZZ      18.0735    YZZ       0.0000
       ZZZ      -0.2725
    Hexadecapole Moments (Debye-Ang^3)
      XXXX    -422.7477   XXXY      -0.0000   XXYY    -113.5920
      XYYY       0.0000   YYYY    -218.0998   XXXZ       9.8577
      XXYZ      -0.0000   XYYZ       2.3105   YYYZ      -0.0000
      XXZZ     -85.2299   XYZZ      -0.0000   YYZZ     -51.2458
      XZZZ       5.1266   YZZZ      -0.0000   ZZZZ     -77.9934
 -----------------------------------------------------------------
 Calculating analytic gradient of the SCF energy
 Gradient of SCF Energy
            1           2           3           4           5           6
    1   0.0036488   0.0670133  -0.0830056   0.0019878   0.0036488   0.0007772
    2   0.0008445   0.0000000  -0.0000000   0.0000000  -0.0008445  -0.0022488
    3   0.0091635  -0.0081188  -0.0199104   0.0158582   0.0091635  -0.0013469
            7           8           9          10          11          12
    1   0.0033353   0.0008827  -0.0032837   0.0033353   0.0007772   0.0008827
    2  -0.0023083  -0.0014226  -0.0000000   0.0023083   0.0022488   0.0014226
    3  -0.0013034  -0.0019931   0.0031310  -0.0013034  -0.0013469  -0.0019931
 Max gradient component =       8.301E-02
 RMS gradient           =       1.854E-02
 Gradient time:  CPU 12.47 s  wall 1.12 s
 Geometry Optimization Parameters
   NAtoms,    NIC,     NZ,  NCons,   NDum,   NFix, NCnnct, MaxDiis
       12      75       0       1       0       0       0       0

 Cartesian Hessian Update
 Hessian Updated using BFGS Update


** CONSTRAINED OPTIMIZATION IN DELOCALIZED INTERNAL COORDINATES **
   Searching for a Minimum

   Optimization Cycle:   2

                       Coordinates (Angstroms)
     ATOM                X               Y               Z
      1  C        -1.7023757301    1.2586351625    0.1556498351
      2  C        -1.0392235717    0.0000000000   -0.4208616311
      3  Se        0.7361353598    0.0000000000   -0.0431935845
      4  H         0.6246946563    0.0000000000    1.4763461332
      5  C        -1.7023757301   -1.2586351625    0.1556498351
      6  H        -1.2380955457    2.1548259213   -0.2588184987
      7  H        -2.7663923130    1.2621277379   -0.0924094664
      8  H        -1.5914746281    1.2728308564    1.2412645625
      9  H        -1.1467300104    0.0000000000   -1.5071637826
     10  H        -2.7663923130   -1.2621277379   -0.0924094664
     11  H        -1.2380955457   -2.1548259213   -0.2588184987
     12  H        -1.5914746281   -1.2728308564    1.2412645625
   Point Group: c1    Number of degrees of freedom:    30


   Energy is  -2520.430168609

              Constraints and their Current Values
                                        Value     Constraint
   Distance(Angs):        2   3             1.815085     1.800000
 Hessian Updated using BFGS Update

   Using Lagrange Multiplier Algorithm


 17 Hessian modes will be used to form the next step
  Hessian Eigenvalues:
    -0.872791    0.107315    0.107315    0.185096    0.186305    0.202659
     0.202835    0.332721    0.376119    0.383725    0.485395    0.698825
     0.828657    0.830107    0.830194    0.830400    1.152721

 Minimum Search - Taking P-RFO Step
 Searching for Lamda that Maximizes Along the Constraint modes Only
 Value Taken    Lamda =   0.00001715
 Searching for Lamda that Minimizes Along All other modes
 Value Taken    Lamda =  -0.00511279
 Step Taken.  Stepsize is  0.117333

                             Maximum     Tolerance    Cnvgd?
         Gradient            0.036799       0.000300      NO
         Displacement        0.049969       0.001200      NO
         Energy change      0.007388       0.000001      NO


 New Cartesian Coordinates Obtained by Inverse Iteration

 Displacement from previous Coordinates is:  0.143401
 ----------------------------------------------------------------
             Standard Nuclear Orientation (Angstroms)
    I     Atom           X                Y                Z
 ----------------------------------------------------------------
    1      C      -1.7033834892     1.2630390738     0.1580880428
    2      C      -1.0211245004     0.0000000000    -0.4009947034
    3      Se      0.7458356604     0.0000000000    -0.0572292338
    4      H       0.6198532647     0.0000000000     1.4329542831
    5      C      -1.7033834892    -1.2630390738     0.1580880428
    6      H      -1.2448090249     2.1651520364    -0.2518889921
    7      H      -2.7681754512     1.2655861361    -0.0964714931
    8      H      -1.6079871274     1.2901546840     1.2463676603
    9      H      -1.1176542393     0.0000000000    -1.4904207818
   10      H      -2.7681754512    -1.2655861361    -0.0964714931
   11      H      -1.2448090249    -2.1651520364    -0.2518889921
   12      H      -1.6079871274    -1.2901546840     1.2463676603
 ----------------------------------------------------------------
 Nuclear Repulsion Energy =   271.3994285719 hartrees
 There are       30 alpha and       30 beta electrons

                       Distance Matrix (Angstroms)
             C (  1)   C (  2)   Se(  3)   H (  4)   C (  5)   H (  6)
   C (  2)  1.540558
   Se(  3)  2.764110  1.800090
   H (  4)  2.935640  2.460930  1.495499
   C (  5)  2.526078  1.540558  2.764110  2.935640
   H (  6)  1.091870  2.181777  2.947616  3.317159  3.482939
   H (  7)  1.094801  2.178676  3.735174  3.926779  2.755454  1.775956
   H (  8)  1.092789  2.173180  2.984015  2.581199  2.777094  1.772651
   H (  9)  2.157760  1.093694  2.350879  3.400743  2.157760  2.497601
   H ( 10)  2.755454  2.178676  3.735174  3.926779  1.094801  3.756962
   H ( 11)  3.482939  2.181777  2.947616  3.317159  1.091870  4.330304
   H ( 12)  2.777094  2.173180  2.984015  2.581199  1.092789  3.783625
             H (  7)   H (  8)   H (  9)   H ( 10)   H ( 11)
   H (  8)  1.774784
   H (  9)  2.503802  3.065116
   H ( 10)  2.531172  3.111441  2.503802
   H ( 11)  3.756962  3.783625  2.497601  1.775956
   H ( 12)  3.111441  2.580309  3.065116  1.774784  1.772651
 
 Applying Cartesian multipole field
    Component          Value
    ---------          -----
     (2,0,0)        1.00000E-11
     (0,2,0)        2.00000E-11
     (0,0,2)       -3.00000E-11
 Nucleus-field energy     =     0.0000000046 hartrees
 Requested basis set is 6-31G(d,p)
 There are 44 shells and 120 basis functions
 A cutoff of  1.0D-14 yielded    973 shell pairs
 There are      7329 function pairs
 Smallest overlap matrix eigenvalue = 6.74E-04
 Guess from superposition of atomic densities
 Warning:  Energy on first SCF cycle will be non-variational
 SAD guess density has 59.968191 electrons

 -----------------------------------------------------------------------
  General SCF calculation program by
  Eric Jon Sundstrom, Paul Horn, Yuezhi Mao, Dmitri Zuev, Alec White,
  David Stuck, Shaama M.S., Shane Yost, Joonho Lee, David Small,
  Daniel Levine, Susi Lehtola, Hugh Burton, Evgeny Epifanovsky
 -----------------------------------------------------------------------
 Exchange:     0.2000 Hartree-Fock + 0.0800 Slater + 0.7200 B88
 Correlation:  0.1900 VWN1RPA + 0.8100 LYP
 Using SG-1 standard quadrature grid
 using 12 threads for integral computing
 -------------------------------------------------------
 OpenMP Integral computing Module                
 Release: version 1.0, May 2013, Q-Chem Inc. Pittsburgh 
 -------------------------------------------------------
 -------------------------------------------------------
 OpenMP BLAS3 based DFT computing Module                
 Release: version 1.0, May 2013, Q-Chem Inc. Pittsburgh 
 -------------------------------------------------------
 A unrestricted SCF calculation will be
 performed using DIIS
 SCF converges when DIIS error is below 1.0e-06
 Alpha HF Exchange    Energy = -10.38369460049166
 Beta HF Exchange     Energy = -10.38369460049166
 DFT Correlation      Energy =  -3.09650217194230
 DFT Exchange         Energy = -82.06815375440203
 One-Electron (alpha) Energy = -2018.48005974494026
 One-Electron (beta)  Energy = -2018.48005974494026
 Total Coulomb        Energy = 1347.89959494602954
 ---------------------------------------
  Cycle       Energy         DIIS error
 ---------------------------------------
    1   -2523.5931410947      1.40e-01  
 Alpha HF Exchange    Energy = -10.43033617806745
 Beta HF Exchange     Energy = -10.43033617806745
 DFT Correlation      Energy =  -3.13935944026640
 DFT Exchange         Energy = -82.99187428567811
 One-Electron (alpha) Energy = -2025.86971928641447
 One-Electron (beta)  Energy = -2025.86971928641492
 Total Coulomb        Energy = 1367.02899202761682
    2   -2520.3029240508      8.96e-03  
 Alpha HF Exchange    Energy = -10.32771012054011
 Beta HF Exchange     Energy = -10.32771012054008
 DFT Correlation      Energy =  -3.10031715606616
 DFT Exchange         Energy = -82.15521914833755
 One-Electron (alpha) Energy = -2015.63949728961165
 One-Electron (beta)  Energy = -2015.63949728960870
 Total Coulomb        Energy = 1345.51264948193602
    3   -2520.2778730662      4.75e-03  
 Alpha HF Exchange    Energy = -10.40852419402683
 Beta HF Exchange     Energy = -10.40852419402685
 DFT Correlation      Energy =  -3.13176146899769
 DFT Exchange         Energy = -82.81081638444306
 One-Electron (alpha) Energy = -2023.65231427076947
 One-Electron (beta)  Energy = -2023.65231427077038
 Total Coulomb        Energy = 1362.28958866171683
    4   -2520.3752375448      2.84e-03  
 Alpha HF Exchange    Energy = -10.38261608881827
 Beta HF Exchange     Energy = -10.38261608881826
 DFT Correlation      Energy =  -3.12106487096013
 DFT Exchange         Energy = -82.59857288934030
 One-Electron (alpha) Energy = -2021.30407963134599
 One-Electron (beta)  Energy = -2021.30407963134599
 Total Coulomb        Energy = 1357.26573929776464
    5   -2520.4278613263      5.71e-04  
 Alpha HF Exchange    Energy = -10.38063568743050
 Beta HF Exchange     Energy = -10.38063568743051
 DFT Correlation      Energy =  -3.12099244646378
 DFT Exchange         Energy = -82.58415031044457
 One-Electron (alpha) Energy = -2021.06041279444230
 One-Electron (beta)  Energy = -2021.06041279444389
 Total Coulomb        Energy = 1356.75780229770680
    6   -2520.4300088464      7.62e-05  
 Alpha HF Exchange    Energy = -10.38030362341795
 Beta HF Exchange     Energy = -10.38030362341795
 DFT Correlation      Energy =  -3.12075145981983
 DFT Exchange         Energy = -82.58124639010430
 One-Electron (alpha) Energy = -2021.00601440318133
 One-Electron (beta)  Energy = -2021.00601440318201
 Total Coulomb        Energy = 1356.64516119174323
    7   -2520.4300441349      1.59e-05  
 Alpha HF Exchange    Energy = -10.38039847141121
 Beta HF Exchange     Energy = -10.38039847141120
 DFT Correlation      Energy =  -3.12077571424469
 DFT Exchange         Energy = -82.58197509610294
 One-Electron (alpha) Energy = -2021.02791761455387
 One-Electron (beta)  Energy = -2021.02791761455387
 Total Coulomb        Energy = 1356.68990816099222
    8   -2520.4300462448      8.05e-06  
 Alpha HF Exchange    Energy = -10.38038340033213
 Beta HF Exchange     Energy = -10.38038340033212
 DFT Correlation      Energy =  -3.12078004173205
 DFT Exchange         Energy = -82.58187472895793
 One-Electron (alpha) Energy = -2021.02356107633818
 One-Electron (beta)  Energy = -2021.02356107633841
 Total Coulomb        Energy = 1356.68106851529637
    9   -2520.4300466322      6.31e-07  Convergence criterion met
 ---------------------------------------
 SCF time:   CPU 29.48s  wall 2.00s 
<S^2> =          0.000000000
 Alpha HF Exchange    Energy = -10.38038340033213
 Beta HF Exchange     Energy = -10.38038340033212
 DFT Correlation      Energy =  -3.12078004173205
 DFT Exchange         Energy = -82.58187472895793
 One-Electron (alpha) Energy = -2021.02356107633818
 One-Electron (beta)  Energy = -2021.02356107633841
 Total Coulomb        Energy = 1356.68106851529637
 Nuclear repulsion Energy = 271.39942857652147
 SCF   energy in the final basis set =    -2520.4300466322
 Total energy in the final basis set =    -2520.4300466322
 
 --------------------------------------------------------------
 
                    Orbital Energies (a.u.)
 --------------------------------------------------------------
 
 Alpha MOs
 -- Occupied --
******* -58.082 -52.140 -52.138 -52.136 -10.217 -10.183 -10.183
 -7.817  -5.763  -5.758  -5.749  -2.097  -2.096  -2.088  -2.084
 -2.083  -0.824  -0.693  -0.691  -0.576  -0.464  -0.441  -0.418
 -0.393  -0.382  -0.350  -0.348  -0.307  -0.217
 -- Virtual --
  0.018   0.074   0.096   0.127   0.150   0.152   0.166   0.177
  0.190   0.199   0.216   0.247   0.289   0.333   0.354   0.469
  0.473   0.489   0.508   0.565   0.592   0.657   0.675   0.690
  0.726   0.757   0.770   0.834   0.852   0.867   0.870   0.902
  0.906   0.934   0.951   0.960   1.069   1.110   1.340   1.399
  1.400   1.512   1.550   1.668   1.787   1.800   1.813   1.864
  1.901   2.038   2.040   2.064   2.076   2.078   2.107   2.110
  2.111   2.138   2.280   2.327   2.350   2.388   2.529   2.553
  2.599   2.649   2.662   2.700   2.719   2.864   2.875   2.891
  2.909   3.179   3.228   3.315   3.417   3.451   3.463   3.505
  4.249   4.292   4.365   4.369   4.430   4.496   4.532   4.618
  5.485  89.809
 
 Beta MOs
 -- Occupied --
******* -58.082 -52.140 -52.138 -52.136 -10.217 -10.183 -10.183
 -7.817  -5.763  -5.758  -5.749  -2.097  -2.096  -2.088  -2.084
 -2.083  -0.824  -0.693  -0.691  -0.576  -0.464  -0.441  -0.418
 -0.393  -0.382  -0.350  -0.348  -0.307  -0.217
 -- Virtual --
  0.018   0.074   0.096   0.127   0.150   0.152   0.166   0.177
  0.190   0.199   0.216   0.247   0.289   0.333   0.354   0.469
  0.473   0.489   0.508   0.565   0.592   0.657   0.675   0.690
  0.726   0.757   0.770   0.834   0.852   0.867   0.870   0.902
  0.906   0.934   0.951   0.960   1.069   1.110   1.340   1.399
  1.400   1.512   1.550   1.668   1.787   1.800   1.813   1.864
  1.901   2.038   2.040   2.064   2.076   2.078   2.107   2.110
  2.111   2.138   2.280   2.327   2.350   2.388   2.529   2.553
  2.599   2.649   2.662   2.700   2.719   2.864   2.875   2.891
  2.909   3.179   3.228   3.315   3.417   3.451   3.463   3.505
  4.249   4.292   4.365   4.369   4.430   4.496   4.532   4.618
  5.485  89.809
 --------------------------------------------------------------
 
          Ground-State Mulliken Net Atomic Charges

     Atom                 Charge (a.u.)    Spin (a.u.)
  --------------------------------------------------------
      1 C                    -0.300179      -0.000000
      2 C                    -0.136252      -0.000000
      3 Se                   -0.087378      -0.000000
      4 H                     0.041767       0.000000
      5 C                    -0.300179      -0.000000
      6 H                     0.121737      -0.000000
      7 H                     0.099779       0.000000
      8 H                     0.105690       0.000000
      9 H                     0.127807      -0.000000
     10 H                     0.099779       0.000000
     11 H                     0.121737      -0.000000
     12 H                     0.105690       0.000000
  --------------------------------------------------------
  Sum of atomic charges =     0.000000
  Sum of spin   charges =    -0.000000

 -----------------------------------------------------------------
                    Cartesian Multipole Moments
 -----------------------------------------------------------------
    Charge (ESU x 10^10)
                -0.0000
    Dipole Moment (Debye)
         X      -1.6127      Y       0.0000      Z       0.2436
       Tot       1.6310
    Quadrupole Moments (Debye-Ang)
        XX     -39.3482     XY      -0.0000     YY     -41.0889
        XZ       1.2706     YZ       0.0000     ZZ     -36.8614
    Octopole Moments (Debye-Ang^2)
       XXX      51.9450    XXY       0.0000    XYY      15.5784
       YYY       0.0000    XXZ       0.0304    XYZ      -0.0000
       YYZ      -0.7235    XZZ      17.9582    YZZ       0.0000
       ZZZ       0.1513
    Hexadecapole Moments (Debye-Ang^3)
      XXXX    -423.0497   XXXY      -0.0000   XXYY    -113.5394
      XYYY      -0.0000   YYYY    -219.2159   XXXZ      11.0922
      XXYZ       0.0000   XYYZ       2.7817   YYYZ      -0.0000
      XXZZ     -85.4510   XYZZ      -0.0000   YYZZ     -51.3150
      XZZZ       6.2582   YZZZ      -0.0000   ZZZZ     -77.1936
 -----------------------------------------------------------------
 Calculating analytic gradient of the SCF energy
 Gradient of SCF Energy
            1           2           3           4           5           6
    1   0.0028081   0.0787234  -0.0872468  -0.0003005   0.0028081   0.0001494
    2   0.0013675  -0.0000000  -0.0000000   0.0000000  -0.0013675  -0.0011659
    3   0.0071280   0.0001902  -0.0167613   0.0063322   0.0071280  -0.0007750
            7           8           9          10          11          12
    1   0.0015278   0.0004119  -0.0009702   0.0015278   0.0001494   0.0004119
    2  -0.0009938  -0.0007689  -0.0000000   0.0009938   0.0011659   0.0007689
    3  -0.0008772  -0.0014646   0.0022165  -0.0008772  -0.0007750  -0.0014646
 Max gradient component =       8.725E-02
 RMS gradient           =       1.991E-02
 Gradient time:  CPU 12.53 s  wall 1.07 s
 Geometry Optimization Parameters
   NAtoms,    NIC,     NZ,  NCons,   NDum,   NFix, NCnnct, MaxDiis
       12      75       0       1       0       0       0       0

 Cartesian Hessian Update
 Hessian Updated using BFGS Update


** CONSTRAINED OPTIMIZATION IN DELOCALIZED INTERNAL COORDINATES **
   Searching for a Minimum

   Optimization Cycle:   3

                       Coordinates (Angstroms)
     ATOM                X               Y               Z
      1  C        -1.7033834892    1.2630390738    0.1580880428
      2  C        -1.0211245004    0.0000000000   -0.4009947034
      3  Se        0.7458356604    0.0000000000   -0.0572292338
      4  H         0.6198532647    0.0000000000    1.4329542831
      5  C        -1.7033834892   -1.2630390738    0.1580880428
      6  H        -1.2448090249    2.1651520364   -0.2518889921
      7  H        -2.7681754512    1.2655861361   -0.0964714931
      8  H        -1.6079871274    1.2901546840    1.2463676603
      9  H        -1.1176542393    0.0000000000   -1.4904207818
     10  H        -2.7681754512   -1.2655861361   -0.0964714931
     11  H        -1.2448090249   -2.1651520364   -0.2518889921
     12  H        -1.6079871274   -1.2901546840    1.2463676603
   Point Group: c1    Number of degrees of freedom:    30


   Energy is  -2520.430046632

              Constraints and their Current Values
                                        Value     Constraint
   Distance(Angs):        2   3             1.800090     1.800000
 Hessian Updated using BFGS Update

   Using Lagrange Multiplier Algorithm


 17 Hessian modes will be used to form the next step
  Hessian Eigenvalues:
    -0.856015    0.097213    0.107336    0.186704    0.202582    0.202792
     0.312589    0.374255    0.382276    0.395145    0.477544    0.696434
     0.823497    0.830135    0.830209    0.831037    1.169361

 Minimum Search - Taking P-RFO Step
 Searching for Lamda that Maximizes Along the Constraint modes Only
 Value Taken    Lamda =   0.00002796
 Searching for Lamda that Minimizes Along All other modes
 Value Taken    Lamda =  -0.00171774
 Step Taken.  Stepsize is  0.127889

                             Maximum     Tolerance    Cnvgd?
         Gradient            0.007545       0.000300      NO
         Displacement        0.063452       0.001200      NO
         Energy change      0.000122       0.000001      NO


 New Cartesian Coordinates Obtained by Inverse Iteration

 Displacement from previous Coordinates is:  0.173004
 ----------------------------------------------------------------
             Standard Nuclear Orientation (Angstroms)
    I     Atom           X                Y                Z
 ----------------------------------------------------------------
    1      C      -1.7101567053     1.2655796882     0.1586333999
    2      C      -1.0041863406     0.0000000000    -0.3761569912
    3      Se      0.7692310003     0.0000000000    -0.0679579946
    4      H       0.6575526287     0.0000000000     1.3981884174
    5      C      -1.7101567053    -1.2655796882     0.1586333999
    6      H      -1.2580487676     2.1738163264    -0.2474429083
    7      H      -2.7748418898     1.2631723952    -0.1052041318
    8      H      -1.6341009285     1.3088407483     1.2499558064
    9      H      -1.0901007059     0.0000000000    -1.4694577641
   10      H      -2.7748418898    -1.2631723952    -0.1052041318
   11      H      -1.2580487676    -2.1738163264    -0.2474429083
   12      H      -1.6341009285    -1.3088407483     1.2499558064
 ----------------------------------------------------------------
 Nuclear Repulsion Energy =   270.2801225805 hartrees
 There are       30 alpha and       30 beta electrons

                       Distance Matrix (Angstroms)
             C (  1)   C (  2)   Se(  3)   H (  4)   C (  5)   H (  6)
   C (  2)  1.544696
   Se(  3)  2.792919  1.799999
   H (  4)  2.957065  2.430983  1.470394
   C (  5)  2.531159  1.544696  2.792919  2.957065
   H (  6)  1.092792  2.192371  2.977844  3.332133  3.492670
   H (  7)  1.096891  2.191858  3.762638  3.954381  2.756402  1.774871
   H (  8)  1.094824  2.180390  3.037427  2.643239  2.797215  1.769689
   H (  9)  2.153333  1.096671  2.328372  3.358227  2.153333  2.499401
   H ( 10)  2.756402  2.191858  3.762638  3.954381  1.096891  3.759493
   H ( 11)  3.492670  2.192371  2.977844  3.332133  1.092792  4.347633
   H ( 12)  2.797215  2.180390  3.037427  2.643239  1.094824  3.809530
             H (  7)   H (  8)   H (  9)   H ( 10)   H ( 11)
   H (  8)  1.771958
   H (  9)  2.509013  3.066629
   H ( 10)  2.526345  3.122979  2.509013
   H ( 11)  3.759493  3.809530  2.499401  1.774871
   H ( 12)  3.122979  2.617681  3.066629  1.771958  1.769689
 
 Applying Cartesian multipole field
    Component          Value
    ---------          -----
     (2,0,0)        1.00000E-11
     (0,2,0)        2.00000E-11
     (0,0,2)       -3.00000E-11
 Nucleus-field energy     =     0.0000000047 hartrees
 Requested basis set is 6-31G(d,p)
 There are 44 shells and 120 basis functions
 A cutoff of  1.0D-14 yielded    971 shell pairs
 There are      7323 function pairs
 Smallest overlap matrix eigenvalue = 6.74E-04
 Guess from superposition of atomic densities
 Warning:  Energy on first SCF cycle will be non-variational
 SAD guess density has 59.968191 electrons

 -----------------------------------------------------------------------
  General SCF calculation program by
  Eric Jon Sundstrom, Paul Horn, Yuezhi Mao, Dmitri Zuev, Alec White,
  David Stuck, Shaama M.S., Shane Yost, Joonho Lee, David Small,
  Daniel Levine, Susi Lehtola, Hugh Burton, Evgeny Epifanovsky
 -----------------------------------------------------------------------
 Exchange:     0.2000 Hartree-Fock + 0.0800 Slater + 0.7200 B88
 Correlation:  0.1900 VWN1RPA + 0.8100 LYP
 Using SG-1 standard quadrature grid
 using 12 threads for integral computing
 -------------------------------------------------------
 OpenMP Integral computing Module                
 Release: version 1.0, May 2013, Q-Chem Inc. Pittsburgh 
 -------------------------------------------------------
 -------------------------------------------------------
 OpenMP BLAS3 based DFT computing Module                
 Release: version 1.0, May 2013, Q-Chem Inc. Pittsburgh 
 -------------------------------------------------------
 A unrestricted SCF calculation will be
 performed using DIIS
 SCF converges when DIIS error is below 1.0e-06
 Alpha HF Exchange    Energy = -10.38243996128413
 Beta HF Exchange     Energy = -10.38243996128413
 DFT Correlation      Energy =  -3.09604094199606
 DFT Exchange         Energy = -82.06647660996919
 One-Electron (alpha) Energy = -2017.35971486314975
 One-Electron (beta)  Energy = -2017.35971486314975
 Total Coulomb        Energy = 1346.78165438997985
 ---------------------------------------
  Cycle       Energy         DIIS error
 ---------------------------------------
    1   -2523.5850502256      1.40e-01  
 Alpha HF Exchange    Energy = -10.42979193533142
 Beta HF Exchange     Energy = -10.42979193533144
 DFT Correlation      Energy =  -3.13884631068705
 DFT Exchange         Energy = -82.98776230021568
 One-Electron (alpha) Energy = -2024.69675075763712
 One-Electron (beta)  Energy = -2024.69675075763871
 Total Coulomb        Energy = 1365.79357194242539
    2   -2520.3059994692      8.94e-03  
 Alpha HF Exchange    Energy = -10.32800588560152
 Beta HF Exchange     Energy = -10.32800588560151
 DFT Correlation      Energy =  -3.10017404498626
 DFT Exchange         Energy = -82.15750497599302
 One-Electron (alpha) Energy = -2014.63478718081660
 One-Electron (beta)  Energy = -2014.63478718081569
 Total Coulomb        Energy = 1344.62047464192824
    3   -2520.2826679267      4.69e-03  
 Alpha HF Exchange    Energy = -10.40801366713450
 Beta HF Exchange     Energy = -10.40801366713449
 DFT Correlation      Energy =  -3.13130727065079
 DFT Exchange         Energy = -82.80706621886856
 One-Electron (alpha) Energy = -2022.46888221769109
 One-Electron (beta)  Energy = -2022.46888221769018
 Total Coulomb        Energy = 1361.03574103722531
    4   -2520.3763016367      2.83e-03  
 Alpha HF Exchange    Energy = -10.38242131377362
 Beta HF Exchange     Energy = -10.38242131377363
 DFT Correlation      Energy =  -3.12067335996875
 DFT Exchange         Energy = -82.59704073178503
 One-Electron (alpha) Energy = -2020.19707659704136
 One-Electron (beta)  Energy = -2020.19707659704295
 Total Coulomb        Energy = 1356.16780637351235
    5   -2520.4287809547      5.76e-04  
 Alpha HF Exchange    Energy = -10.38036174188786
 Beta HF Exchange     Energy = -10.38036174188784
 DFT Correlation      Energy =  -3.12060485831021
 DFT Exchange         Energy = -82.58205396180432
 One-Electron (alpha) Energy = -2019.94294850534129
 One-Electron (beta)  Energy = -2019.94294850533970
 Total Coulomb        Energy = 1355.63821918641702
    6   -2520.4309375429      7.48e-05  
 Alpha HF Exchange    Energy = -10.38000775885144
 Beta HF Exchange     Energy = -10.38000775885142
 DFT Correlation      Energy =  -3.12035957293596
 DFT Exchange         Energy = -82.57898094211004
 One-Electron (alpha) Energy = -2019.88477213418992
 One-Electron (beta)  Energy = -2019.88477213418832
 Total Coulomb        Energy = 1355.51780586029031
    7   -2520.4309718556      1.69e-05  
 Alpha HF Exchange    Energy = -10.38010736815600
 Beta HF Exchange     Energy = -10.38010736815601
 DFT Correlation      Energy =  -3.12038220100104
 DFT Exchange         Energy = -82.57974343145938
 One-Electron (alpha) Energy = -2019.90759622018686
 One-Electron (beta)  Energy = -2019.90759622018732
 Total Coulomb        Energy = 1355.56443608838754
    8   -2520.4309741355      8.49e-06  
 Alpha HF Exchange    Energy = -10.38009340003818
 Beta HF Exchange     Energy = -10.38009340003817
 DFT Correlation      Energy =  -3.12038755564682
 DFT Exchange         Energy = -82.57965224204766
 One-Electron (alpha) Energy = -2019.90353676771656
 One-Electron (beta)  Energy = -2019.90353676771701
 Total Coulomb        Energy = 1355.55620299039583
    9   -2520.4309745576      6.13e-07  Convergence criterion met
 ---------------------------------------
 SCF time:   CPU 28.50s  wall 2.00s 
<S^2> =          0.000000000
 Alpha HF Exchange    Energy = -10.38009340003818
 Beta HF Exchange     Energy = -10.38009340003817
 DFT Correlation      Energy =  -3.12038755564682
 DFT Exchange         Energy = -82.57965224204766
 One-Electron (alpha) Energy = -2019.90353676771656
 One-Electron (beta)  Energy = -2019.90353676771701
 Total Coulomb        Energy = 1355.55620299039583
 Nuclear repulsion Energy = 270.28012258522068
 SCF   energy in the final basis set =    -2520.4309745576
 Total energy in the final basis set =    -2520.4309745576
 
 --------------------------------------------------------------
 
                    Orbital Energies (a.u.)
 --------------------------------------------------------------
 
 Alpha MOs
 -- Occupied --
******* -58.082 -52.140 -52.139 -52.136 -10.218 -10.184 -10.184
 -7.817  -5.763  -5.758  -5.749  -2.097  -2.096  -2.088  -2.085
 -2.084  -0.822  -0.695  -0.690  -0.576  -0.463  -0.440  -0.417
 -0.391  -0.383  -0.349  -0.344  -0.311  -0.219
 -- Virtual --
  0.020   0.079   0.093   0.127   0.149   0.152   0.165   0.177
  0.189   0.198   0.217   0.246   0.288   0.333   0.351   0.471
  0.472   0.491   0.507   0.568   0.592   0.660   0.674   0.688
  0.725   0.762   0.764   0.832   0.846   0.868   0.869   0.903
  0.909   0.933   0.952   0.958   1.068   1.115   1.337   1.396
  1.409   1.505   1.550   1.675   1.773   1.797   1.806   1.856
  1.899   2.040   2.041   2.068   2.080   2.083   2.108   2.109
  2.113   2.140   2.282   2.326   2.349   2.379   2.528   2.547
  2.603   2.652   2.662   2.707   2.726   2.860   2.871   2.888
  2.906   3.170   3.219   3.310   3.417   3.449   3.461   3.503
  4.245   4.290   4.361   4.371   4.427   4.492   4.525   4.615
  5.485  89.811
 
 Beta MOs
 -- Occupied --
******* -58.082 -52.140 -52.139 -52.136 -10.218 -10.184 -10.184
 -7.817  -5.763  -5.758  -5.749  -2.097  -2.096  -2.088  -2.085
 -2.084  -0.822  -0.695  -0.690  -0.576  -0.463  -0.440  -0.417
 -0.391  -0.383  -0.349  -0.344  -0.311  -0.219
 -- Virtual --
  0.020   0.079   0.093   0.127   0.149   0.152   0.165   0.177
  0.189   0.198   0.217   0.246   0.288   0.333   0.351   0.471
  0.472   0.491   0.507   0.568   0.592   0.660   0.674   0.688
  0.725   0.762   0.764   0.832   0.846   0.868   0.869   0.903
  0.909   0.933   0.952   0.958   1.068   1.115   1.337   1.396
  1.409   1.505   1.550   1.675   1.773   1.797   1.806   1.856
  1.899   2.040   2.041   2.068   2.080   2.083   2.108   2.109
  2.113   2.140   2.282   2.326   2.349   2.379   2.528   2.547
  2.603   2.652   2.662   2.707   2.726   2.860   2.871   2.888
  2.906   3.170   3.219   3.310   3.417   3.449   3.461   3.503
  4.245   4.290   4.361   4.371   4.427   4.492   4.525   4.615
  5.485  89.811
 --------------------------------------------------------------
 
          Ground-State Mulliken Net Atomic Charges

     Atom                 Charge (a.u.)    Spin (a.u.)
  --------------------------------------------------------
      1 C                    -0.302626       0.000000
      2 C                    -0.132835      -0.000000
      3 Se                   -0.086189      -0.000000
      4 H                     0.044178       0.000000
      5 C                    -0.302626      -0.000000
      6 H                     0.120852      -0.000000
      7 H                     0.100916      -0.000000
      8 H                     0.105507       0.000000
      9 H                     0.125549       0.000000
     10 H                     0.100916      -0.000000
     11 H                     0.120852      -0.000000
     12 H                     0.105507       0.000000
  --------------------------------------------------------
  Sum of atomic charges =     0.000000
  Sum of spin   charges =    -0.000000

 -----------------------------------------------------------------
                    Cartesian Multipole Moments
 -----------------------------------------------------------------
    Charge (ESU x 10^10)
                 0.0000
    Dipole Moment (Debye)
         X      -1.5675      Y       0.0000      Z       0.2803
       Tot       1.5924
    Quadrupole Moments (Debye-Ang)
        XX     -39.2333     XY      -0.0000     YY     -41.0254
        XZ       1.2479     YZ       0.0000     ZZ     -36.9804
    Octopole Moments (Debye-Ang^2)
       XXX      50.7004    XXY       0.0000    XYY      15.0080
       YYY       0.0000    XXZ       0.3029    XYZ      -0.0000
       YYZ      -0.5292    XZZ      17.7157    YZZ       0.0000
       ZZZ       0.4835
    Hexadecapole Moments (Debye-Ang^3)
      XXXX    -427.4513   XXXY      -0.0000   XXYY    -114.2345
      XYYY      -0.0000   YYYY    -220.0395   XXXZ      12.2272
      XXYZ       0.0000   XYYZ       3.1684   YYYZ      -0.0000
      XXZZ     -86.3515   XYZZ      -0.0000   YYZZ     -51.3330
      XZZZ       7.2396   YZZZ      -0.0000   ZZZZ     -76.3985
 -----------------------------------------------------------------
 Calculating analytic gradient of the SCF energy
 Gradient of SCF Energy
            1           2           3           4           5           6
    1   0.0007582   0.0836955  -0.0833257  -0.0012164   0.0007582  -0.0003225
    2   0.0010776  -0.0000000  -0.0000000   0.0000000  -0.0010776  -0.0001286
    3   0.0036526   0.0080158  -0.0109797  -0.0030035   0.0036526  -0.0002411
            7           8           9          10          11          12
    1  -0.0002887   0.0000555   0.0004417  -0.0002887  -0.0003225   0.0000555
    2   0.0003709  -0.0002324  -0.0000000  -0.0003709   0.0001286   0.0002324
    3  -0.0003002  -0.0006035   0.0009519  -0.0003002  -0.0002411  -0.0006035
 Max gradient component =       8.370E-02
 RMS gradient           =       1.984E-02
 Gradient time:  CPU 12.61 s  wall 1.13 s
 Geometry Optimization Parameters
   NAtoms,    NIC,     NZ,  NCons,   NDum,   NFix, NCnnct, MaxDiis
       12      75       0       1       0       0       0       0

 Cartesian Hessian Update
 Hessian Updated using BFGS Update


** CONSTRAINED OPTIMIZATION IN DELOCALIZED INTERNAL COORDINATES **
   Searching for a Minimum

   Optimization Cycle:   4

                       Coordinates (Angstroms)
     ATOM                X               Y               Z
      1  C        -1.7101567053    1.2655796882    0.1586333999
      2  C        -1.0041863406    0.0000000000   -0.3761569912
      3  Se        0.7692310003    0.0000000000   -0.0679579946
      4  H         0.6575526287    0.0000000000    1.3981884174
      5  C        -1.7101567053   -1.2655796882    0.1586333999
      6  H        -1.2580487676    2.1738163264   -0.2474429083
      7  H        -2.7748418898    1.2631723952   -0.1052041318
      8  H        -1.6341009285    1.3088407483    1.2499558064
      9  H        -1.0901007059    0.0000000000   -1.4694577641
     10  H        -2.7748418898   -1.2631723952   -0.1052041318
     11  H        -1.2580487676   -2.1738163264   -0.2474429083
     12  H        -1.6341009285   -1.3088407483    1.2499558064
   Point Group: c1    Number of degrees of freedom:    30


   Energy is  -2520.430974558

              Constraints and their Current Values
                                        Value     Constraint
   Distance(Angs):        2   3             1.799999     1.800000
 Hessian Updated using BFGS Update

   Using Lagrange Multiplier Algorithm


 20 Hessian modes will be used to form the next step
  Hessian Eigenvalues:
    -0.855389    0.075832    0.107321    0.186705    0.202566    0.202800
     0.339922    0.374366    0.381583    0.382943    0.412934    0.415234
     0.474999    0.701710    0.708418    0.821269    0.830136    0.830212
     0.831939    1.169988

 Minimum Search - Taking P-RFO Step
 Searching for Lamda that Maximizes Along the Constraint modes Only
 Value Taken    Lamda =   0.00000013
 Searching for Lamda that Minimizes Along All other modes
 Value Taken    Lamda =  -0.00018354
 Step Taken.  Stepsize is  0.038520

                             Maximum     Tolerance    Cnvgd?
         Gradient            0.003665       0.000300      NO
         Displacement        0.021875       0.001200      NO
         Energy change     -0.000928       0.000001      NO


 New Cartesian Coordinates Obtained by Inverse Iteration

 Displacement from previous Coordinates is:  0.066589
 ----------------------------------------------------------------
             Standard Nuclear Orientation (Angstroms)
    I     Atom           X                Y                Z
 ----------------------------------------------------------------
    1      C      -1.7132497961     1.2655278227     0.1578527251
    2      C      -1.0017614329     0.0000000000    -0.3676711102
    3      Se      0.7735811782     0.0000000000    -0.0707554201
    4      H       0.6840296184     0.0000000000     1.3977293987
    5      C      -1.7132497961    -1.2655278227     0.1578527251
    6      H      -1.2622164856     2.1743305266    -0.2488076426
    7      H      -2.7771595576     1.2591545113    -0.1093699318
    8      H      -1.6429200906     1.3150668308     1.2500104586
    9      H      -1.0865575041     0.0000000000    -1.4621740870
   10      H      -2.7771595576    -1.2591545113    -0.1093699318
   11      H      -1.2622164856    -2.1743305266    -0.2488076426
   12      H      -1.6429200906    -1.3150668308     1.2500104586
 ----------------------------------------------------------------
 Nuclear Repulsion Energy =   269.9865225052 hartrees
 There are       30 alpha and       30 beta electrons

                       Distance Matrix (Angstroms)
             C (  1)   C (  2)   Se(  3)   H (  4)   C (  5)   H (  6)
   C (  2)  1.544005
   Se(  3)  2.799670  1.800000
   H (  4)  2.980906  2.441010  1.471213
   C (  5)  2.531056  1.544005  2.799670  2.980906
   H (  6)  1.093035  2.193098  2.983938  3.350623  3.493054
   H (  7)  1.096974  2.191855  3.767588  3.979529  2.752696  1.775399
   H (  8)  1.095540  2.181142  3.051770  2.676923  2.803074  1.769103
   H (  9)  2.149137  1.097783  2.322964  3.363633  2.149137  2.496163
   H ( 10)  2.752696  2.191855  3.767588  3.979529  1.096974  3.755438
   H ( 11)  3.493054  2.193098  2.983938  3.350623  1.093035  4.348661
   H ( 12)  2.803074  2.181142  3.051770  2.676923  1.095540  3.816711
             H (  7)   H (  8)   H (  9)   H ( 10)   H ( 11)
   H (  8)  1.771310
   H (  9)  2.504732  3.065108
   H ( 10)  2.518309  3.124265  2.504732
   H ( 11)  3.755438  3.816711  2.496163  1.775399
   H ( 12)  3.124265  2.630134  3.065108  1.771310  1.769103
 
 Applying Cartesian multipole field
    Component          Value
    ---------          -----
     (2,0,0)        1.00000E-11
     (0,2,0)        2.00000E-11
     (0,0,2)       -3.00000E-11
 Nucleus-field energy     =     0.0000000047 hartrees
 Requested basis set is 6-31G(d,p)
 There are 44 shells and 120 basis functions
 A cutoff of  1.0D-14 yielded    971 shell pairs
 There are      7323 function pairs
 Smallest overlap matrix eigenvalue = 6.74E-04
 Guess from superposition of atomic densities
 Warning:  Energy on first SCF cycle will be non-variational
 SAD guess density has 59.968191 electrons

 -----------------------------------------------------------------------
  General SCF calculation program by
  Eric Jon Sundstrom, Paul Horn, Yuezhi Mao, Dmitri Zuev, Alec White,
  David Stuck, Shaama M.S., Shane Yost, Joonho Lee, David Small,
  Daniel Levine, Susi Lehtola, Hugh Burton, Evgeny Epifanovsky
 -----------------------------------------------------------------------
 Exchange:     0.2000 Hartree-Fock + 0.0800 Slater + 0.7200 B88
 Correlation:  0.1900 VWN1RPA + 0.8100 LYP
 Using SG-1 standard quadrature grid
 using 12 threads for integral computing
 -------------------------------------------------------
 OpenMP Integral computing Module                
 Release: version 1.0, May 2013, Q-Chem Inc. Pittsburgh 
 -------------------------------------------------------
 -------------------------------------------------------
 OpenMP BLAS3 based DFT computing Module                
 Release: version 1.0, May 2013, Q-Chem Inc. Pittsburgh 
 -------------------------------------------------------
 A unrestricted SCF calculation will be
 performed using DIIS
 SCF converges when DIIS error is below 1.0e-06
 Alpha HF Exchange    Energy = -10.38216761535629
 Beta HF Exchange     Energy = -10.38216761535629
 DFT Correlation      Energy =  -3.09590304736259
 DFT Exchange         Energy = -82.06597502666634
 One-Electron (alpha) Energy = -2017.06780031024095
 One-Electron (beta)  Energy = -2017.06780031024095
 Total Coulomb        Energy = 1346.49232919534393
 ---------------------------------------
  Cycle       Energy         DIIS error
 ---------------------------------------
    1   -2523.5829622200      1.40e-01  
 Alpha HF Exchange    Energy = -10.42962011612247
 Beta HF Exchange     Energy = -10.42962011612248
 DFT Correlation      Energy =  -3.13872003177943
 DFT Exchange         Energy = -82.98655185743041
 One-Electron (alpha) Energy = -2024.39793395682727
 One-Electron (beta)  Energy = -2024.39793395682909
 Total Coulomb        Energy = 1365.48761002226638
    2   -2520.3062475030      8.94e-03  
 Alpha HF Exchange    Energy = -10.32789181824604
 Beta HF Exchange     Energy = -10.32789181824604
 DFT Correlation      Energy =  -3.10003837614177
 DFT Exchange         Energy = -82.15672858540778
 One-Electron (alpha) Energy = -2014.34366309724783
 One-Electron (beta)  Energy = -2014.34366309724851
 Total Coulomb        Energy = 1344.33060635182756
    3   -2520.2827479308      4.69e-03  
 Alpha HF Exchange    Energy = -10.40786970205196
 Beta HF Exchange     Energy = -10.40786970205196
 DFT Correlation      Energy =  -3.13119414658287
 DFT Exchange         Energy = -82.80609777312470
 One-Electron (alpha) Energy = -2022.17287131266107
 One-Electron (beta)  Energy = -2022.17287131266039
 Total Coulomb        Energy = 1360.73604326246618
    4   -2520.3762081768      2.83e-03  
 Alpha HF Exchange    Energy = -10.38229283776973
 Beta HF Exchange     Energy = -10.38229283776971
 DFT Correlation      Energy =  -3.12054647866323
 DFT Exchange         Energy = -82.59616467709392
 One-Electron (alpha) Energy = -2019.90265236800951
 One-Electron (beta)  Energy = -2019.90265236800815
 Total Coulomb        Energy = 1355.87116800320064
    5   -2520.4289110542      5.78e-04  
 Alpha HF Exchange    Energy = -10.38021747958950
 Beta HF Exchange     Energy = -10.38021747958950
 DFT Correlation      Energy =  -3.12047598359675
 DFT Exchange         Energy = -82.58105721066202
 One-Electron (alpha) Energy = -2019.64774195111477
 One-Electron (beta)  Energy = -2019.64774195111477
 Total Coulomb        Energy = 1355.33984666985725
    6   -2520.4310828759      7.47e-05  
 Alpha HF Exchange    Energy = -10.37986255636104
 Beta HF Exchange     Energy = -10.37986255636102
 DFT Correlation      Energy =  -3.12023032428330
 DFT Exchange         Energy = -82.57797661026228
 One-Electron (alpha) Energy = -2019.58926840405024
 One-Electron (beta)  Energy = -2019.58926840404865
 Total Coulomb        Energy = 1355.21882929137905
    7   -2520.4311170541      1.69e-05  
 Alpha HF Exchange    Energy = -10.37996299455378
 Beta HF Exchange     Energy = -10.37996299455379
 DFT Correlation      Energy =  -3.12025317557711
 DFT Exchange         Energy = -82.57874575200934
 One-Electron (alpha) Energy = -2019.61221578098230
 One-Electron (beta)  Energy = -2019.61221578098366
 Total Coulomb        Energy = 1355.26571462456673
    8   -2520.4311193442      8.49e-06  
 Alpha HF Exchange    Energy = -10.37994899526649
 Beta HF Exchange     Energy = -10.37994899526648
[...]
     0.350779    0.367696    0.379046    0.382888    0.458130    0.660350
     0.813531    0.823638    0.830117    0.830512

 Minimum Search - Taking Simple RFO Step
 Searching for Lamda that Minimizes Along All modes
 Value Taken    Lamda =  -0.00000307
 Step Taken.  Stepsize is  0.004710

                             Maximum     Tolerance    Cnvgd?
         Gradient           0.000440      0.000300      NO
         Displacement       0.002437      0.001200      NO
         Energy change     -0.000006      0.000001      NO


 New Cartesian Coordinates Obtained by Inverse Iteration

 Displacement from previous Coordinates is:  0.007081
 ----------------------------------------------------------------
             Standard Nuclear Orientation (Angstroms)
    I     Atom           X                Y                Z
 ----------------------------------------------------------------
    1      C      -1.7177896711     1.2658626543     0.1568176324
    2      C      -1.0026951311     0.0000000000    -0.3527713609
    3      Se      0.7758185631     0.0000000000    -0.0754820651
    4      H       0.7279053072     0.0000000000     1.4034235226
    5      C      -1.7177896711    -1.2658626543     0.1568176324
    6      H      -1.2651767566     2.1717015216    -0.2546719338
    7      H      -2.7791769338     1.2508830150    -0.1165058888
    8      H      -1.6557447139     1.3278651140     1.2495461752
    9      H      -1.0870525882     0.0000000000    -1.4490420665
   10      H      -2.7791769338    -1.2508830150    -0.1165058888
   11      H      -1.2651767566    -2.1717015216    -0.2546719338
   12      H      -1.6557447139    -1.3278651140     1.2495461752
 ----------------------------------------------------------------
 Nuclear Repulsion Energy =   269.7013653675 hartrees
 There are       30 alpha and       30 beta electrons

                       Distance Matrix (Angstroms)
             C (  1)   C (  2)   Se(  3)   H (  4)   C (  5)   H (  6)
   C (  2)  1.540600
   Se(  3)  2.806146  1.800000
   H (  4)  3.022889  2.465603  1.479682
   C (  5)  2.531725  1.540600  2.806146  3.022889
   H (  6)  1.093035  2.189705  2.985642  3.382003  3.491565
   H (  7)  1.096117  2.185502  3.768870  4.021756  2.745042  1.777412
   H (  8)  1.096243  2.181083  3.071063  2.732891  2.815196  1.768410
   H (  9)  2.139865  1.099512  2.314510  3.380922  2.139865  2.484861
   H ( 10)  2.745042  2.185502  3.768870  4.021756  1.096117  3.745046
   H ( 11)  3.491565  2.189705  2.985642  3.382003  1.093035  4.343403
   H ( 12)  2.815196  2.181083  3.071063  2.732891  1.096243  3.829123
             H (  7)   H (  8)   H (  9)   H ( 10)   H ( 11)
   H (  8)  1.770346
   H (  9)  2.490712  3.060885
   H ( 10)  2.501766  3.127002  2.490712
   H ( 11)  3.745046  3.829123  2.484861  1.777412
   H ( 12)  3.127002  2.655730  3.060885  1.770346  1.768410
 
 Applying Cartesian multipole field
    Component          Value
    ---------          -----
     (2,0,0)        1.00000E-11
     (0,2,0)        2.00000E-11
     (0,0,2)       -3.00000E-11
 Nucleus-field energy     =     0.0000000047 hartrees
 Requested basis set is 6-31G(d,p)
 There are 44 shells and 120 basis functions
 A cutoff of  1.0D-14 yielded    971 shell pairs
 There are      7323 function pairs
 Smallest overlap matrix eigenvalue = 6.74E-04
 Guess from superposition of atomic densities
 Warning:  Energy on first SCF cycle will be non-variational
 SAD guess density has 59.968191 electrons

 -----------------------------------------------------------------------
  General SCF calculation program by
  Eric Jon Sundstrom, Paul Horn, Yuezhi Mao, Dmitri Zuev, Alec White,
  David Stuck, Shaama M.S., Shane Yost, Joonho Lee, David Small,
  Daniel Levine, Susi Lehtola, Hugh Burton, Evgeny Epifanovsky
 -----------------------------------------------------------------------
 Exchange:     0.2000 Hartree-Fock + 0.0800 Slater + 0.7200 B88
 Correlation:  0.1900 VWN1RPA + 0.8100 LYP
 Using SG-1 standard quadrature grid
 using 12 threads for integral computing
 -------------------------------------------------------
 OpenMP Integral computing Module                
 Release: version 1.0, May 2013, Q-Chem Inc. Pittsburgh 
 -------------------------------------------------------
 -------------------------------------------------------
 OpenMP BLAS3 based DFT computing Module                
 Release: version 1.0, May 2013, Q-Chem Inc. Pittsburgh 
 -------------------------------------------------------
 A unrestricted SCF calculation will be
 performed using DIIS
 SCF converges when DIIS error is below 1.0e-06
 Alpha HF Exchange    Energy = -10.38225254577752
 Beta HF Exchange     Energy = -10.38225254577752
 DFT Correlation      Energy =  -3.09580489507258
 DFT Exchange         Energy = -82.06600143085319
 One-Electron (alpha) Energy = -2016.78495206711659
 One-Electron (beta)  Energy = -2016.78495206711659
 Total Coulomb        Energy = 1346.21147708431135
 ---------------------------------------
  Cycle       Energy         DIIS error
 ---------------------------------------
    1   -2523.5833730952      1.40e-01  
 Alpha HF Exchange    Energy = -10.42957744705095
 Beta HF Exchange     Energy = -10.42957744705095
 DFT Correlation      Energy =  -3.13868060831194
 DFT Exchange         Energy = -82.98639346829640
 One-Electron (alpha) Energy = -2024.11836555161108
 One-Electron (beta)  Energy = -2024.11836555161062
 Total Coulomb        Energy = 1365.21371838178311
    2   -2520.3058763199      8.94e-03  
 Alpha HF Exchange    Energy = -10.32768197588081
 Beta HF Exchange     Energy = -10.32768197588081
 DFT Correlation      Energy =  -3.09986103649481
 DFT Exchange         Energy = -82.15526465672340
 One-Electron (alpha) Energy = -2014.03341316039882
 One-Electron (beta)  Energy = -2014.03341316039905
 Total Coulomb        Energy = 1343.99431391112239
    3   -2520.2816366824      4.71e-03  
 Alpha HF Exchange    Energy = -10.40782893869455
 Beta HF Exchange     Energy = -10.40782893869458
 DFT Correlation      Energy =  -3.13114599297907
 DFT Exchange         Energy = -82.80595872550852
 One-Electron (alpha) Energy = -2021.89713677557484
 One-Electron (beta)  Energy = -2021.89713677557870
 Total Coulomb        Energy = 1360.46983841138717
    4   -2520.3758323634      2.84e-03  
 Alpha HF Exchange    Energy = -10.38221855796625
 Beta HF Exchange     Energy = -10.38221855796626
 DFT Correlation      Energy =  -3.12046312035830
 DFT Exchange         Energy = -82.59578289510969
 One-Electron (alpha) Energy = -2019.61348833596026
 One-Electron (beta)  Energy = -2019.61348833596116
 Total Coulomb        Energy = 1355.57730649092218
    5   -2520.4289879402      5.84e-04  
 Alpha HF Exchange    Energy = -10.38012445321427
 Beta HF Exchange     Energy = -10.38012445321426
 DFT Correlation      Energy =  -3.12038503936077
 DFT Exchange         Energy = -82.58051713068306
 One-Electron (alpha) Energy = -2019.35892182172324
 One-Electron (beta)  Energy = -2019.35892182172279
 Total Coulomb        Energy = 1355.04642789589707
    6   -2520.4312014518      7.45e-05  
 Alpha HF Exchange    Energy = -10.37977448244016
 Beta HF Exchange     Energy = -10.37977448244016
 DFT Correlation      Energy =  -3.12013976688337
 DFT Exchange         Energy = -82.57747369745330
 One-Electron (alpha) Energy = -2019.30099002755742
 One-Electron (beta)  Energy = -2019.30099002755787
 Total Coulomb        Energy = 1354.92654173703318
    7   -2520.4312353751      1.66e-05  
 Alpha HF Exchange    Energy = -10.37987526409574
 Beta HF Exchange     Energy = -10.37987526409575
 DFT Correlation      Energy =  -3.12016380231408
 DFT Exchange         Energy = -82.57824753794874
 One-Electron (alpha) Energy = -2019.32390999468544
 One-Electron (beta)  Energy = -2019.32390999468703
 Total Coulomb        Energy = 1354.97337886335436
    8   -2520.4312376222      8.34e-06  
 Alpha HF Exchange    Energy = -10.37986074090747
 Beta HF Exchange     Energy = -10.37986074090747
 DFT Correlation      Energy =  -3.12016883905392
 DFT Exchange         Energy = -82.57815166460756
 One-Electron (alpha) Energy = -2019.31971272940268
 One-Electron (beta)  Energy = -2019.31971272940268
 Total Coulomb        Energy = 1354.96486404371308
    9   -2520.4312380283      6.24e-07  Convergence criterion met
 ---------------------------------------
 SCF time:   CPU 28.42s  wall 2.00s 
<S^2> =         -0.000000000
 Alpha HF Exchange    Energy = -10.37986074090747
 Beta HF Exchange     Energy = -10.37986074090747
 DFT Correlation      Energy =  -3.12016883905392
 DFT Exchange         Energy = -82.57815166460756
 One-Electron (alpha) Energy = -2019.31971272940268
 One-Electron (beta)  Energy = -2019.31971272940268
 Total Coulomb        Energy = 1354.96486404371308
 Nuclear repulsion Energy = 269.70136537222305
 SCF   energy in the final basis set =    -2520.4312380283
 Total energy in the final basis set =    -2520.4312380283
 
 --------------------------------------------------------------
 
                    Orbital Energies (a.u.)
 --------------------------------------------------------------
 
 Alpha MOs
 -- Occupied --
******* -58.083 -52.141 -52.139 -52.137 -10.218 -10.183 -10.183
 -7.818  -5.764  -5.759  -5.750  -2.098  -2.097  -2.089  -2.085
 -2.084  -0.822  -0.696  -0.690  -0.574  -0.463  -0.442  -0.417
 -0.390  -0.383  -0.350  -0.341  -0.311  -0.219
 -- Virtual --
  0.022   0.076   0.092   0.128   0.149   0.152   0.164   0.177
  0.188   0.200   0.218   0.245   0.288   0.334   0.350   0.472
  0.473   0.493   0.507   0.573   0.592   0.660   0.671   0.689
  0.724   0.759   0.762   0.828   0.845   0.868   0.869   0.903
  0.912   0.931   0.952   0.957   1.060   1.116   1.331   1.399
  1.415   1.502   1.554   1.687   1.765   1.796   1.810   1.856
  1.902   2.041   2.041   2.068   2.078   2.083   2.104   2.104
  2.114   2.137   2.282   2.324   2.354   2.377   2.530   2.548
  2.600   2.647   2.655   2.708   2.729   2.862   2.870   2.889
  2.911   3.169   3.218   3.304   3.416   3.449   3.461   3.503
  4.243   4.289   4.363   4.373   4.422   4.492   4.521   4.617
  5.484  89.807
 
 Beta MOs
 -- Occupied --
******* -58.083 -52.141 -52.139 -52.137 -10.218 -10.183 -10.183
 -7.818  -5.764  -5.759  -5.750  -2.098  -2.097  -2.089  -2.085
 -2.084  -0.822  -0.696  -0.690  -0.574  -0.463  -0.442  -0.417
 -0.390  -0.383  -0.350  -0.341  -0.311  -0.219
 -- Virtual --
  0.022   0.076   0.092   0.128   0.149   0.152   0.164   0.177
  0.188   0.200   0.218   0.245   0.288   0.334   0.350   0.472
  0.473   0.493   0.507   0.573   0.592   0.660   0.671   0.689
  0.724   0.759   0.762   0.828   0.845   0.868   0.869   0.903
  0.912   0.931   0.952   0.957   1.060   1.116   1.331   1.399
  1.415   1.502   1.554   1.687   1.765   1.796   1.810   1.856
  1.902   2.041   2.041   2.068   2.078   2.083   2.104   2.104
  2.114   2.137   2.282   2.324   2.354   2.377   2.530   2.548
  2.600   2.647   2.655   2.708   2.729   2.862   2.870   2.889
  2.911   3.169   3.218   3.304   3.416   3.449   3.461   3.503
  4.243   4.289   4.363   4.373   4.422   4.492   4.521   4.617
  5.484  89.807
 --------------------------------------------------------------
 
          Ground-State Mulliken Net Atomic Charges

     Atom                 Charge (a.u.)    Spin (a.u.)
  --------------------------------------------------------
      1 C                    -0.302860       0.000000
      2 C                    -0.130873       0.000000
      3 Se                   -0.087762      -0.000000
      4 H                     0.043606       0.000000
      5 C                    -0.302860      -0.000000
      6 H                     0.120707       0.000000
      7 H                     0.101320      -0.000000
      8 H                     0.105827      -0.000000
      9 H                     0.125041      -0.000000
     10 H                     0.101320       0.000000
     11 H                     0.120707       0.000000
     12 H                     0.105827       0.000000
  --------------------------------------------------------
  Sum of atomic charges =    -0.000000
  Sum of spin   charges =     0.000000

 -----------------------------------------------------------------
                    Cartesian Multipole Moments
 -----------------------------------------------------------------
    Charge (ESU x 10^10)
                -0.0000
    Dipole Moment (Debye)
         X      -1.5624      Y       0.0000      Z       0.3022
       Tot       1.5913
    Quadrupole Moments (Debye-Ang)
        XX     -39.1430     XY      -0.0000     YY     -41.0265
        XZ       1.3294     YZ      -0.0000     ZZ     -37.0660
    Octopole Moments (Debye-Ang^2)
       XXX      50.4522    XXY       0.0000    XYY      14.9515
       YYY       0.0000    XXZ       0.4508    XYZ       0.0000
       YYZ      -0.4343    XZZ      17.6777    YZZ       0.0000
       ZZZ       0.7075
    Hexadecapole Moments (Debye-Ang^3)
      XXXX    -430.9438   XXXY      -0.0000   XXYY    -115.0425
      XYYY      -0.0000   YYYY    -220.1968   XXXZ      12.7656
      XXYZ      -0.0000   XYYZ       3.2660   YYYZ      -0.0000
      XXZZ     -86.9433   XYZZ      -0.0000   YYZZ     -51.2509
      XZZZ       7.6604   YZZZ      -0.0000   ZZZZ     -76.2295
 -----------------------------------------------------------------
 Calculating analytic gradient of the SCF energy
 Gradient of SCF Energy
            1           2           3           4           5           6
    1  -0.0000806   0.0830705  -0.0828656   0.0000677  -0.0000806  -0.0000082
    2  -0.0001322   0.0000000   0.0000000   0.0000000   0.0001322   0.0000670
    3  -0.0001255   0.0128726  -0.0130124   0.0001434  -0.0001255   0.0000189
            7           8           9          10          11          12
    1  -0.0000164   0.0000303  -0.0001229  -0.0000164  -0.0000082   0.0000303
    2   0.0000122   0.0000049  -0.0000000  -0.0000122  -0.0000670  -0.0000049
    3   0.0000433   0.0000623  -0.0000014   0.0000433   0.0000189   0.0000623
 Max gradient component =       8.307E-02
 RMS gradient           =       1.979E-02
 Gradient time:  CPU 12.43 s  wall 1.06 s
 Geometry Optimization Parameters
   NAtoms,    NIC,     NZ,  NCons,   NDum,   NFix, NCnnct, MaxDiis
       12      75       0       1       0       0       0       0

 Cartesian Hessian Update
 Hessian Updated using BFGS Update


** CONSTRAINED OPTIMIZATION IN DELOCALIZED INTERNAL COORDINATES **
   Searching for a Minimum

   Optimization Cycle:   8

                       Coordinates (Angstroms)
     ATOM                X               Y               Z
      1  C        -1.7177896711    1.2658626543    0.1568176324
      2  C        -1.0026951311    0.0000000000   -0.3527713609
      3  Se        0.7758185631    0.0000000000   -0.0754820651
      4  H         0.7279053072    0.0000000000    1.4034235226
      5  C        -1.7177896711   -1.2658626543    0.1568176324
      6  H        -1.2651767566    2.1717015216   -0.2546719338
      7  H        -2.7791769338    1.2508830150   -0.1165058888
      8  H        -1.6557447139    1.3278651140    1.2495461752
      9  H        -1.0870525882    0.0000000000   -1.4490420665
     10  H        -2.7791769338   -1.2508830150   -0.1165058888
     11  H        -1.2651767566   -2.1717015216   -0.2546719338
     12  H        -1.6557447139   -1.3278651140    1.2495461752
   Point Group: c1    Number of degrees of freedom:    30


   Energy is  -2520.431238028

              Constraints and their Current Values
                                        Value     Constraint
   Distance(Angs):        2   3             1.800000     1.800000
 Hessian Updated using BFGS Update

 16 Hessian modes will be used to form the next step
  Hessian Eigenvalues:
     0.045184    0.105368    0.122839    0.199238    0.202812    0.254491
     0.303741    0.367714    0.378697    0.384719    0.448206    0.669277
     0.808678    0.824070    0.830110    0.831084

 Minimum Search - Taking Simple RFO Step
 Searching for Lamda that Minimizes Along All modes
 Value Taken    Lamda =   0.00000000
 Step Taken.  Stepsize is  0.002185

                             Maximum     Tolerance    Cnvgd?
         Gradient           0.000218      0.000300     YES
         Displacement       0.000932      0.001200     YES
         Energy change     -0.000002      0.000001      NO


                       Distance Matrix (Angstroms)
             C (  1)   C (  2)   Se(  3)   H (  4)   C (  5)   H (  6)
   C (  2)  1.540600
   Se(  3)  2.806146  1.800000
   H (  4)  3.022889  2.465603  1.479682
   C (  5)  2.531725  1.540600  2.806146  3.022889
   H (  6)  1.093035  2.189705  2.985642  3.382003  3.491565
   H (  7)  1.096117  2.185502  3.768870  4.021756  2.745042  1.777412
   H (  8)  1.096243  2.181083  3.071063  2.732891  2.815196  1.768410
   H (  9)  2.139865  1.099512  2.314510  3.380922  2.139865  2.484861
   H ( 10)  2.745042  2.185502  3.768870  4.021756  1.096117  3.745046
   H ( 11)  3.491565  2.189705  2.985642  3.382003  1.093035  4.343403
   H ( 12)  2.815196  2.181083  3.071063  2.732891  1.096243  3.829123
             H (  7)   H (  8)   H (  9)   H ( 10)   H ( 11)
   H (  8)  1.770346
   H (  9)  2.490712  3.060885
   H ( 10)  2.501766  3.127002  2.490712
   H ( 11)  3.745046  3.829123  2.484861  1.777412
   H ( 12)  3.127002  2.655730  3.060885  1.770346  1.768410
 
 Final energy is   -2520.43123802835     


 ******************************
 **  OPTIMIZATION CONVERGED  **
 ******************************

                       Coordinates (Angstroms)
     ATOM                X               Y               Z
      1  C        -1.7177896711    1.2658626543    0.1568176324
      2  C        -1.0026951311    0.0000000000   -0.3527713609
      3  Se        0.7758185631    0.0000000000   -0.0754820651
      4  H         0.7279053072    0.0000000000    1.4034235226
      5  C        -1.7177896711   -1.2658626543    0.1568176324
      6  H        -1.2651767566    2.1717015216   -0.2546719338
      7  H        -2.7791769338    1.2508830150   -0.1165058888
      8  H        -1.6557447139    1.3278651140    1.2495461752
      9  H        -1.0870525882    0.0000000000   -1.4490420665
     10  H        -2.7791769338   -1.2508830150   -0.1165058888
     11  H        -1.2651767566   -2.1717015216   -0.2546719338
     12  H        -1.6557447139   -1.3278651140    1.2495461752

Z-matrix Print:
$molecule
0 1
Se
H  1 1.479682
C  1 1.800000 2 97.006073
H  3 1.099512 1 103.261889 2 -180.000000 0
C  3 1.540600 1 114.058552 2 -64.136776 0
H  5 1.093035 3 111.359399 1 -54.018935 0
H  5 1.096117 3 110.839417 1 -174.996399 0
H  5 1.096243 3 110.482082 1 65.691404 0
C  3 1.540600 1 114.058552 2 64.136776 0
H  9 1.093035 3 111.359399 1 54.018935 0
H  9 1.096117 3 110.839417 1 174.996399 0
H  9 1.096243 3 110.482082 1 -65.691404 0
$end

PES scan, value:    1.8000 energy: -2520.4312380283
------- Summary of potential scan: ------ 
    1.8000     -2520.4312380283
----------------------------------------- 
Archival summary:
1\1\hpc0248\JobtypUnspecified\ProcedureUnspecified\6-31G**\e138\knomura\WedMar1313:55:082019WedMar1313:55:082019\0\\#,JobtypUnspecified,ProcedureUnspecified,6-31G**,\\0,1\Se\H,1,1.47968\C,1,1.8,2,97.0061\H,3,1.09951,1,103.262,2,-180,0\C,3,1.5406,1,114.059,2,-64.1368,0\H,5,1.09304,3,111.359,1,-54.0189,0\H,5,1.09612,3,110.839,1,-174.996,0\H,5,1.09624,3,110.482,1,65.6914,0\C,3,1.5406,1,114.059,2,64.1368,0\H,9,1.09304,3,111.359,1,54.0189,0\H,9,1.09612,3,110.839,1,174.996,0\H,9,1.09624,3,110.482,1,-65.6914,0\\\@

 Total job time:  32.01s(wall), 370.45s(cpu) 
 Wed Mar 13 13:55:08 2019

        *************************************************************
        *                                                           *
        *  Thank you very much for using Q-Chem.  Have a nice day.  *
        *                                                           *
        *************************************************************


