
Running Job 1 of 1 selenium/01/C-Se.xyz.data/inputs/bond_singlet_1.9.in
qchem selenium/01/C-Se.xyz.data/inputs/bond_singlet_1.9.in_18876.0 /staging/scratch/2868765/qchem18876/ 1
/usr/usc/qchem/5.1.1/exe/qcprog.exe_s selenium/01/C-Se.xyz.data/inputs/bond_singlet_1.9.in_18876.0 /staging/scratch/2868765/qchem18876/
Check license passed

                  Welcome to Q-Chem
     A Quantum Leap Into The Future Of Chemistry


 Q-Chem 5.1, Q-Chem, Inc., Pleasanton, CA (2018)

 Yihan Shao,  Zhengting Gan,  E. Epifanovsky,  A. T. B. Gilbert,  M. Wormit,  
 J. Kussmann,  A. W. Lange,  A. Behn,  Jia Deng,  Xintian Feng,  D. Ghosh,  
 M. Goldey,  P. R. Horn,  L. D. Jacobson,  I. Kaliman,  T. Kus,  A. Landau,  
 Jie Liu,  E. I. Proynov,  R. M. Richard,  R. P. Steele,  E. J. Sundstrom,  
 H. L. Woodcock III,  P. M. Zimmerman,  D. Zuev,  B. Albrecht,  E. Alguire,  
 S. A. Baeppler,  D. Barton,  Z. Benda,  Y. A. Bernard,  E. J. Berquist,  
 K. B. Bravaya,  H. Burton,  D. Casanova,  Chun-Min Chang,  Yunqing Chen,  
 A. Chien,  K. D. Closser,  M. P. Coons,  S. Coriani,  S. Dasgupta,  
 A. L. Dempwolff,  M. Diedenhofen,  Hainam Do,  R. G. Edgar,  Po-Tung Fang,  
 S. Faraji,  S. Fatehi,  Qingguo Feng,  K. D. Fenk,  J. Fosso-Tande,  
 Qinghui Ge,  A. Ghysels,  G. Gidofalvi,  J. Gomes,  J. Gonthier,  A. Gunina,  
 D. Hait,  M. W. D. Hanson-Heine,  P. H. P. Harbach,  A. W. Hauser,  
 J. E. Herr,  E. G. Hohenstein,  Z. C. Holden,  Kerwin Hui,  B. C. Huynh,  
 T.-C. Jagau,  Hyunjun Ji,  B. Kaduk,  K. Khistyaev,  Jaehoon Kim,  
 P. Klunzinger,  K. Koh,  D. Kosenkov,  L. Koulias,  T. Kowalczyk,  
 C. M. Krauter,  A. Kunitsa,  Ka Un Lao,  A. Laurent,  K. V. Lawler,  
 Joonho Lee,  D. Lefrancois,  S. Lehtola,  D. S. Levine,  Yi-Pei Li,  
 You-Sheng Lin,  Fenglai Liu,  E. Livshits,  A. Luenser,  P. Manohar,  
 E. Mansoor,  S. F. Manzer,  Shan-Ping Mao,  Yuezhi Mao,  N. Mardirossian,  
 A. V. Marenich,  T. Markovich,  L. A. Martinez-Martinez,  S. A. Maurer,  
 N. J. Mayhall,  S. C. McKenzie,  J.-M. Mewes,  A. F. Morrison,  
 J. W. Mullinax,  K. Nanda,  T. S. Nguyen-Beck,  R. Olivares-Amaya,  
 J. A. Parkhill,  T. M. Perrine,  F. Plasser,  P. Pokhilko,  S. Prager,  
 A. Prociuk,  E. Ramos,  D. R. Rehn,  F. Rob,  M. Schneider,  N. Sergueev,  
 S. M. Sharada,  S. Sharma,  D. W. Small,  T. Stauch,  T. Stein,  
 Yu-Chuan Su,  A. J. W. Thom,  A. Tkatchenko,  T. Tsuchimochi,  N. M. Tubman,  
 L. Vogt,  M. L. Vidal,  O. Vydrov,  M. A. Watson,  J. Wenzel,  
 M. de Wergifosse,  T. A. Wesolowski,  A. White,  J. Witte,  A. Yamada,  
 Jun Yang,  K. Yao,  S. Yeganeh,  S. R. Yost,  Zhi-Qiang You,  A. Zech,  
 Igor Ying Zhang,  Xing Zhang,  Yan Zhao,  Ying Zhu,  B. R. Brooks,  
 G. K. L. Chan,  C. J. Cramer,  M. S. Gordon,  W. J. Hehre,  A. Klamt,  
 M. W. Schmidt,  C. D. Sherrill,  D. G. Truhlar,  A. Aspuru-Guzik,  R. Baer,  
 A. T. Bell,  N. A. Besley,  Jeng-Da Chai,  A. E. DePrince, III,  
 R. A. DiStasio Jr.,  A. Dreuw,  B. D. Dunietz,  T. R. Furlani,  
 Chao-Ping Hsu,  Yousung Jung,  Jing Kong,  D. S. Lambrecht,  WanZhen Liang,  
 C. Ochsenfeld,  V. A. Rassolov,  L. V. Slipchenko,  J. E. Subotnik,  
 T. Van Voorhis,  J. M. Herbert,  A. I. Krylov,  P. M. W. Gill,  M. Head-Gordon

 Contributors to earlier versions of Q-Chem not listed above: 
 R. D. Adamson,  B. Austin,  J. Baker,  G. J. O. Beran,  K. Brandhorst,  
 S. T. Brown,  E. F. C. Byrd,  A. K. Chakraborty,  C.-L. Cheng,  
 Siu Hung Chien,  D. M. Chipman,  D. L. Crittenden,  H. Dachsel,  
 R. J. Doerksen,  A. D. Dutoi,  L. Fusti-Molnar,  W. A. Goddard III,  
 A. Golubeva-Zadorozhnaya,  S. R. Gwaltney,  G. Hawkins,  A. Heyden,  
 S. Hirata,  G. Kedziora,  F. J. Keil,  C. Kelley,  Jihan Kim,  R. A. King,  
 R. Z. Khaliullin,  P. P. Korambath,  W. Kurlancheek,  A. M. Lee,  M. S. Lee,  
 S. V. Levchenko,  Ching Yeh Lin,  D. Liotard,  R. C. Lochan,  I. Lotan,  
 P. E. Maslen,  N. Nair,  D. P. O'Neill,  D. Neuhauser,  E. Neuscamman,  
 C. M. Oana,  R. Olson,  B. Peters,  R. Peverati,  P. A. Pieniazek,  
 Y. M. Rhee,  J. Ritchie,  M. A. Rohrdanz,  E. Rosta,  N. J. Russ,  
 H. F. Schaefer III,  N. E. Schultz,  N. Shenvi,  A. C. Simmonett,  A. Sodt,  
 D. Stuck,  K. S. Thanthiriwatte,  V. Vanovschi,  Tao Wang,  A. Warshel,  
 C. F. Williams,  Q. Wu,  X. Xu,  W. Zhang

 Please cite Q-Chem as follows:
 Y. Shao et al., Mol. Phys. 113, 184-215 (2015)
 DOI: 10.1080/00268976.2014.952696

 Q-Chem 5.1.1 for Intel X86 EM64T Linux

 Parts of Q-Chem use Armadillo 8.300.2 (Tropical Shenanigans).
 http://arma.sourceforge.net/

 Q-Chem begins on Wed Mar 13 14:23:58 2019  

Host: 
0

     Scratch files written to /staging/scratch/2868765/qchem18876//
 Aug318 |scratch|qcdevops|jenkins|workspace|build_RNUM 6013   
Processing $rem in /usr/usc/qchem/5.1.1/config/preferences.
 MEM_TOTAL  2000 
Input Ideriv = 2
Curr. Ideriv = -1
Max.  Ideriv = 2

Checking the input file for inconsistencies... 	...done.

--------------------------------------------------------------
User input:
--------------------------------------------------------------

$comment
potential surface scanner
$end

$rem
JOBTYPE  PES_SCAN
UNRESTRICTED TRUE
SYM_IGNORE  TRUE
GEOM_OPT_MAX_CYCLES 400
SCF_MAX_CYCLES 400
METHOD   B3LYP
BASIS   6-31G**
PDB_PRINT 2
SCF_CONVERGENCE 6
THRESH 14
SCF_PRINT 1
$end
$molecule
0 1
C -1.730200 1.249200 0.145700
C -1.070500 -0.000000 -0.441800
Se 0.838900 0.000000 0.000600
H 0.783300 0.000000 1.559600
C -1.730200 -1.249200 0.145700
H -1.260200 2.139200 -0.272800
H -2.792000 1.249200 -0.100300
H -1.608100 1.249200 1.228900
H -1.192500 -0.000000 -1.524900
H -2.792000 -1.249200 -0.100300
H -1.260200 -2.139200 -0.272800
H -1.608100 -1.249200 1.228900
$end
$scan
stre 2 3 1.900000 1.901000 0.100000
$end
--------------------------------------------------------------
 ----------------------------------------------------------------
             Standard Nuclear Orientation (Angstroms)
    I     Atom           X                Y                Z
 ----------------------------------------------------------------
    1      C      -1.7302000000     1.2492000000     0.1457000000
    2      C      -1.0705000000     0.0000000000    -0.4418000000
    3      Se      0.8389000000     0.0000000000     0.0006000000
    4      H       0.7833000000     0.0000000000     1.5596000000
    5      C      -1.7302000000    -1.2492000000     0.1457000000
    6      H      -1.2602000000     2.1392000000    -0.2728000000
    7      H      -2.7920000000     1.2492000000    -0.1003000000
    8      H      -1.6081000000     1.2492000000     1.2289000000
    9      H      -1.1925000000     0.0000000000    -1.5249000000
   10      H      -2.7920000000    -1.2492000000    -0.1003000000
   11      H      -1.2602000000    -2.1392000000    -0.2728000000
   12      H      -1.6081000000    -1.2492000000     1.2289000000
 ----------------------------------------------------------------
 Nuclear Repulsion Energy =   262.3907289757 hartrees
 There are       30 alpha and       30 beta electrons
 Requested basis set is 6-31G(d,p)
 There are 44 shells and 120 basis functions

 Total QAlloc Memory Limit   2000 MB
 Mega-Array Size       188 MB
 MEM_STATIC part       192 MB
A total of 1 constraints
  
            1
    1   1.0100000
    2   2.0100000
    3   3.0100000
    4   1.9000000
    5   1.9010000
    6   0.1000000
    7   0.0000000
    8   0.0000000
    9   0.0000000
   10   0.0000000

                       Distance Matrix (Angstroms)
             C (  1)   C (  2)   Se(  3)   H (  4)   C (  5)   H (  6)
   C (  2)  1.529987
   Se(  3)  2.860390  1.959981
   H (  4)  3.142817  2.728035  1.559991
   C (  5)  2.498400  1.529987  2.860390  3.142817
   H (  6)  1.090019  2.154234  3.009509  3.479908  3.446345
   H (  7)  1.089924  2.154225  3.841109  4.135038  2.725791  1.779963
   H (  8)  1.090060  2.154241  3.009490  2.718208  2.725845  1.779954
   H (  9)  2.154188  1.089949  2.540420  3.663049  2.154188  2.479620
   H ( 10)  2.725791  2.154225  3.841109  4.135038  1.089924  3.722556
   H ( 11)  3.446345  2.154234  3.009509  3.479908  1.090019  4.278400
   H ( 12)  2.725845  2.154241  3.009490  2.718208  1.090060  3.722552
             H (  7)   H (  8)   H (  9)   H ( 10)   H ( 11)
   H (  8)  1.779998
   H (  9)  2.479594  3.052317
   H ( 10)  2.498400  3.067637  2.479594
   H ( 11)  3.722556  3.722552  2.479620  1.779963
   H ( 12)  3.067637  2.498400  3.052317  1.779998  1.779954
 
 A cutoff of  1.0D-14 yielded    970 shell pairs
 There are      7307 function pairs
 
 -------------------------------------------------------
 OpenMP Integral Computing Module                       
 Release: version 1.0, May 2013, Q-Chem Inc. Pittsburgh 
 -------------------------------------------------------
 Integral Job Info:
 Integral job number is                      11
 Integral operator is                         1
 short-range coefficients                     0
 long-range coefficients              100000000
 Omega coefficients                           0
 if combine SR and LR in K                    0
 Integral screening is                        0
 Integral computing path is                   2
 max size of driver memory is            800000
 size of driver memory is                593474
 size of scratch memory is             15267112
 max col of scratch BK array               1296
 max len of scratch array in speh3          155
 max len of scratch index in speh4           18
 max int batch size is                      520
 min int batch size is                       52
 fixed nKL is                                52
 max L of basis functions is                  2
 order of int derivative is                   0
 number of shells is                         44
 number of basis is                         120
 number of cartesian basis is               120
 number of contracted shell pairs           970
 number of primitive shell pairs           3688
 maxK2 (contraction) of shell pair           36
 max number of K2 of shell pair               1
 max number of CS2 of shell pair             86
 max number of PS2 of shell pair            288
 mem total for path MDJ                  519708
 -------------------------------------------------------
 Smallest overlap matrix eigenvalue = 6.74E-04

 Scale SEOQF with 1.000000e-01/1.000000e-01/1.000000e-01

 Standard Electronic Orientation quadrupole field applied
 Nucleus-field energy     =     0.0000000047 hartrees
 Guess from superposition of atomic densities
 Warning:  Energy on first SCF cycle will be non-variational
 SAD guess density has 59.968191 electrons

 -----------------------------------------------------------------------
  General SCF calculation program by
  Eric Jon Sundstrom, Paul Horn, Yuezhi Mao, Dmitri Zuev, Alec White,
  David Stuck, Shaama M.S., Shane Yost, Joonho Lee, David Small,
  Daniel Levine, Susi Lehtola, Hugh Burton, Evgeny Epifanovsky
 -----------------------------------------------------------------------
 Exchange:     0.2000 Hartree-Fock + 0.0800 Slater + 0.7200 B88
 Correlation:  0.1900 VWN1RPA + 0.8100 LYP
 Using SG-1 standard quadrature grid
 using 12 threads for integral computing
 -------------------------------------------------------
 OpenMP Integral computing Module                
 Release: version 1.0, May 2013, Q-Chem Inc. Pittsburgh 
 -------------------------------------------------------
 -------------------------------------------------------
 OpenMP BLAS3 based DFT computing Module                
 Release: version 1.0, May 2013, Q-Chem Inc. Pittsburgh 
 -------------------------------------------------------
 A unrestricted SCF calculation will be
 performed using DIIS
 SCF converges when DIIS error is below 1.0e-06
 Alpha HF Exchange    Energy = -10.36874540746125
 Beta HF Exchange     Energy = -10.36874540746125
 DFT Correlation      Energy =  -3.09228192288524
 DFT Exchange         Energy = -82.03653711550899
 One-Electron (alpha) Energy = -2009.55236640785802
 One-Electron (beta)  Energy = -2009.55236640785802
 Total Coulomb        Energy = 1339.16670206529102
 ---------------------------------------
  Cycle       Energy         DIIS error
 ---------------------------------------
    1   -2523.4136116233      1.39e-01  
 Alpha HF Exchange    Energy = -10.42400060729059
 Beta HF Exchange     Energy = -10.42400060729058
 DFT Correlation      Energy =  -3.13484673835002
 DFT Exchange         Energy = -82.94792493966023
 One-Electron (alpha) Energy = -2016.85158295230440
 One-Electron (beta)  Energy = -2016.85158295230372
 Total Coulomb        Energy = 1357.93243274699921
    2   -2520.3107770698      8.94e-03  
 Alpha HF Exchange    Energy = -10.32263851748538
 Beta HF Exchange     Energy = -10.32263851748538
 DFT Correlation      Energy =  -3.09641071369595
 DFT Exchange         Energy = -82.12235611459013
 One-Electron (alpha) Energy = -2006.72609743933776
 One-Electron (beta)  Energy = -2006.72609743933708
 Total Coulomb        Energy = 1336.63308268279070
    3   -2520.2924270787      4.66e-03  
 Alpha HF Exchange    Energy = -10.40252805813646
 Beta HF Exchange     Energy = -10.40252805813648
 DFT Correlation      Energy =  -3.12718366955654
 DFT Exchange         Energy = -82.76945322803088
 One-Electron (alpha) Energy = -2014.65685855634183
 One-Electron (beta)  Energy = -2014.65685855634410
 Total Coulomb        Energy = 1353.23722484058999
    4   -2520.3874563056      2.73e-03  
 Alpha HF Exchange    Energy = -10.37625005826880
 Beta HF Exchange     Energy = -10.37625005826880
 DFT Correlation      Energy =  -3.11657288640096
 DFT Exchange         Energy = -82.55467574084255
 One-Electron (alpha) Energy = -2012.31678513839347
 One-Electron (beta)  Energy = -2012.31678513839438
 Total Coulomb        Energy = 1348.23168865230036
    5   -2520.4349013879      5.97e-04  
 Alpha HF Exchange    Energy = -10.37477428272580
 Beta HF Exchange     Energy = -10.37477428272582
 DFT Correlation      Energy =  -3.11666366167576
 DFT Exchange         Energy = -82.54457592049710
 One-Electron (alpha) Energy = -2012.07953988894792
 One-Electron (beta)  Energy = -2012.07953988895088
 Total Coulomb        Energy = 1347.74162241860358
    6   -2520.4375165265      7.75e-05  
 Alpha HF Exchange    Energy = -10.37443569580122
 Beta HF Exchange     Energy = -10.37443569580122
 DFT Correlation      Energy =  -3.11640954329292
 DFT Exchange         Energy = -82.54156455530489
 One-Electron (alpha) Energy = -2012.03383016436851
 One-Electron (beta)  Energy = -2012.03383016436919
 Total Coulomb        Energy = 1347.64622187471377
    7   -2520.4375549638      1.30e-05  
 Alpha HF Exchange    Energy = -10.37450078887117
 Beta HF Exchange     Energy = -10.37450078887116
 DFT Correlation      Energy =  -3.11643318782390
 DFT Exchange         Energy = -82.54207605974761
 One-Electron (alpha) Energy = -2012.04999730788995
 One-Electron (beta)  Energy = -2012.04999730788950
 Total Coulomb        Energy = 1347.67921984171790
    8   -2520.4375566190      5.21e-06  
 Alpha HF Exchange    Energy = -10.37448676446539
 Beta HF Exchange     Energy = -10.37448676446540
 DFT Correlation      Energy =  -3.11643414080605
 DFT Exchange         Energy = -82.54197682082913
 One-Electron (alpha) Energy = -2012.04594259482678
 One-Electron (beta)  Energy = -2012.04594259482633
 Total Coulomb        Energy = 1347.67098390690035
    9   -2520.4375567929      9.33e-07  Convergence criterion met
 ---------------------------------------
 SCF time:   CPU 29.49s  wall 2.00s 
<S^2> =         -0.000000000
 Alpha HF Exchange    Energy = -10.37448676446539
 Beta HF Exchange     Energy = -10.37448676446540
 DFT Correlation      Energy =  -3.11643414080605
 DFT Exchange         Energy = -82.54197682082913
 One-Electron (alpha) Energy = -2012.04594259482678
 One-Electron (beta)  Energy = -2012.04594259482633
 Total Coulomb        Energy = 1347.67098390690035
 Nuclear repulsion Energy = 262.39072898040314
 SCF   energy in the final basis set =    -2520.4375567929
 Total energy in the final basis set =    -2520.4375567929
 
 --------------------------------------------------------------
 
                    Orbital Energies (a.u.)
 --------------------------------------------------------------
 
 Alpha MOs
 -- Occupied --
******* -58.085 -52.142 -52.141 -52.139 -10.225 -10.182 -10.182
 -7.818  -5.764  -5.759  -5.750  -2.097  -2.097  -2.089  -2.085
 -2.084  -0.811  -0.692  -0.681  -0.576  -0.464  -0.443  -0.415
 -0.395  -0.375  -0.353  -0.346  -0.296  -0.220
 -- Virtual --
  0.010   0.030   0.092   0.130   0.151   0.153   0.168   0.184
  0.192   0.205   0.224   0.237   0.286   0.328   0.334   0.465
  0.465   0.494   0.512   0.570   0.580   0.656   0.679   0.686
  0.711   0.744   0.773   0.796   0.841   0.868   0.869   0.894
  0.906   0.931   0.952   0.963   1.004   1.104   1.327   1.354
  1.404   1.505   1.557   1.643   1.785   1.802   1.831   1.884
  1.903   2.031   2.036   2.047   2.067   2.074   2.091   2.092
  2.104   2.118   2.271   2.329   2.360   2.395   2.522   2.553
  2.565   2.635   2.676   2.682   2.708   2.871   2.884   2.896
  2.910   3.191   3.245   3.316   3.417   3.451   3.465   3.512
  4.251   4.284   4.343   4.373   4.407   4.492   4.527   4.642
  5.477  89.785
 
 Beta MOs
 -- Occupied --
******* -58.085 -52.142 -52.141 -52.139 -10.225 -10.182 -10.182
 -7.818  -5.764  -5.759  -5.750  -2.097  -2.097  -2.089  -2.085
 -2.084  -0.811  -0.692  -0.681  -0.576  -0.464  -0.443  -0.415
 -0.395  -0.375  -0.353  -0.346  -0.296  -0.220
 -- Virtual --
  0.010   0.030   0.092   0.130   0.151   0.153   0.168   0.184
  0.192   0.205   0.224   0.237   0.286   0.328   0.334   0.465
  0.465   0.494   0.512   0.570   0.580   0.656   0.679   0.686
  0.711   0.744   0.773   0.796   0.841   0.868   0.869   0.894
  0.906   0.931   0.952   0.963   1.004   1.104   1.327   1.354
  1.404   1.505   1.557   1.643   1.785   1.802   1.831   1.884
  1.903   2.031   2.036   2.047   2.067   2.074   2.091   2.092
  2.104   2.118   2.271   2.329   2.360   2.395   2.522   2.553
  2.565   2.635   2.676   2.682   2.708   2.871   2.884   2.896
  2.910   3.191   3.245   3.316   3.417   3.451   3.465   3.512
  4.251   4.284   4.343   4.373   4.407   4.492   4.527   4.642
  5.477  89.785
 --------------------------------------------------------------
 
          Ground-State Mulliken Net Atomic Charges

     Atom                 Charge (a.u.)    Spin (a.u.)
  --------------------------------------------------------
      1 C                    -0.295010      -0.000000
      2 C                    -0.152384       0.000000
      3 Se                   -0.094480      -0.000000
      4 H                     0.042859      -0.000000
      5 C                    -0.295010       0.000000
      6 H                     0.122135       0.000000
      7 H                     0.101155       0.000000
      8 H                     0.108279       0.000000
      9 H                     0.130887      -0.000000
     10 H                     0.101155      -0.000000
     11 H                     0.122135       0.000000
     12 H                     0.108279      -0.000000
  --------------------------------------------------------
  Sum of atomic charges =    -0.000000
  Sum of spin   charges =    -0.000000

 -----------------------------------------------------------------
                    Cartesian Multipole Moments
 -----------------------------------------------------------------
    Charge (ESU x 10^10)
                -0.0000
    Dipole Moment (Debye)
         X      -1.7510      Y      -0.0000      Z       0.2382
       Tot       1.7671
    Quadrupole Moments (Debye-Ang)
        XX     -39.1891     XY       0.0000     YY     -41.4774
        XZ       1.5625     YZ       0.0000     ZZ     -36.7141
    Octopole Moments (Debye-Ang^2)
       XXX      47.0455    XXY      -0.0000    XYY      14.4440
       YYY      -0.0000    XXZ      -0.8815    XYZ      -0.0000
       YYZ      -1.7755    XZZ      16.8874    YZZ       0.0000
       ZZZ      -1.5700
    Hexadecapole Moments (Debye-Ang^3)
      XXXX    -449.5869   XXXY       0.0000   XXYY    -118.5745
      XYYY       0.0000   YYYY    -216.3825   XXXZ       6.8193
      XXYZ       0.0000   XYYZ       1.0249   YYYZ       0.0000
      XXZZ     -89.6006   XYZZ      -0.0000   YYZZ     -51.1667
      XZZZ       1.9562   YZZZ       0.0000   ZZZZ     -79.2130
 -----------------------------------------------------------------
 Calculating analytic gradient of the SCF energy
 Gradient of SCF Energy
            1           2           3           4           5           6
    1  -0.0054318   0.0190443  -0.0221925   0.0070985  -0.0054318   0.0019263
    2   0.0005657   0.0000000   0.0000000   0.0000000  -0.0005657  -0.0043213
    3   0.0089295  -0.0250746  -0.0129772   0.0271283   0.0089295  -0.0022869
            7           8           9          10          11          12
    1   0.0047275   0.0018519  -0.0100982   0.0047275   0.0019263   0.0018519
    2  -0.0022684  -0.0028548   0.0000000   0.0022684   0.0043213   0.0028548
    3  -0.0007447  -0.0024153   0.0039583  -0.0007447  -0.0022869  -0.0024153
 Max gradient component =       2.713E-02
 RMS gradient           =       9.009E-03
 Gradient time:  CPU 12.44 s  wall 1.06 s
 Geometry Optimization Parameters
   NAtoms,    NIC,     NZ,  NCons,   NDum,   NFix, NCnnct, MaxDiis
       12      75       0       1       0       0       0       0


** CONSTRAINED OPTIMIZATION IN DELOCALIZED INTERNAL COORDINATES **
   Searching for a Minimum

   Optimization Cycle:   1

                       Coordinates (Angstroms)
     ATOM                X               Y               Z
      1  C        -1.7302000000    1.2492000000    0.1457000000
      2  C        -1.0705000000    0.0000000000   -0.4418000000
      3  Se        0.8389000000    0.0000000000    0.0006000000
      4  H         0.7833000000    0.0000000000    1.5596000000
      5  C        -1.7302000000   -1.2492000000    0.1457000000
      6  H        -1.2602000000    2.1392000000   -0.2728000000
      7  H        -2.7920000000    1.2492000000   -0.1003000000
      8  H        -1.6081000000    1.2492000000    1.2289000000
      9  H        -1.1925000000    0.0000000000   -1.5249000000
     10  H        -2.7920000000   -1.2492000000   -0.1003000000
     11  H        -1.2602000000   -2.1392000000   -0.2728000000
     12  H        -1.6081000000   -1.2492000000    1.2289000000
   Point Group: c1    Number of degrees of freedom:    30


   Energy is  -2520.437556793

              Constraints and their Current Values
                                        Value     Constraint
   Distance(Angs):        2   3             1.959981     1.900000

 Attempting to Generate Delocalized Internal Coordinates

   Using Lagrange Multiplier Algorithm


 26 Hessian modes will be used to form the next step
  Hessian Eigenvalues:
    -0.920003    0.045000    0.077216    0.080533    0.084997    0.084997
     0.085005    0.085005    0.144779    0.160000    0.160000    0.160000
     0.160000    0.160000    0.160000    0.160000    0.202570    0.294246
     0.348057    0.348057    0.348104    0.348104    0.348185    0.348214
     0.348214    1.086953

 Minimum Search - Taking P-RFO Step
 Searching for Lamda that Maximizes Along the Constraint modes Only
 Value Taken    Lamda =   0.00895484
 Searching for Lamda that Minimizes Along All other modes
 Value Taken    Lamda =  -0.01674675
 Calculated Step too Large.  Step scaled by  0.951273
 Step Taken.  Stepsize is  0.300000

                             Maximum     Tolerance    Cnvgd?
         Gradient            0.113348       0.000300      NO
         Displacement        0.149344       0.001200      NO
         Energy change     *********       0.000001      NO


 New Cartesian Coordinates Obtained by Inverse Iteration

 Displacement from previous Coordinates is:  0.474322
 ----------------------------------------------------------------
             Standard Nuclear Orientation (Angstroms)
    I     Atom           X                Y                Z
 ----------------------------------------------------------------
    1      C      -1.7114107315     1.2705015622     0.1568406702
    2      C      -1.0408447181     0.0000000000    -0.4025995633
    3      Se      0.8277541126     0.0000000000    -0.0392304642
    4      H       0.6390188300     0.0000000000     1.4250240622
    5      C      -1.7114107315    -1.2705015622     0.1568406702
    6      H      -1.2529157326     2.1748653542    -0.2500211777
    7      H      -2.7771041874     1.2784450634    -0.0991926608
    8      H      -1.6202871898     1.3027116735     1.2456377693
    9      H      -1.1242925419     0.0000000000    -1.4932232366
   10      H      -2.7771041874    -1.2784450634    -0.0991926608
   11      H      -1.2529157326    -2.1748653542    -0.2500211777
   12      H      -1.6202871898    -1.3027116735     1.2456377693
 ----------------------------------------------------------------
 Nuclear Repulsion Energy =   264.8015555317 hartrees
 There are       30 alpha and       30 beta electrons

                       Distance Matrix (Angstroms)
             C (  1)   C (  2)   Se(  3)   H (  4)   C (  5)   H (  6)
   C (  2)  1.541689
   Se(  3)  2.846046  1.903602
   H (  4)  2.957530  2.482368  1.476368
   C (  5)  2.541003  1.541689  2.846046  2.957530
   H (  6)  1.092533  2.190501  3.017227  3.333951  3.499472
   H (  7)  1.096047  2.177401  3.825313  3.953170  2.774596  1.774674
   H (  8)  1.093078  2.179334  3.056280  2.614135  2.795570  1.769918
   H (  9)  2.163699  1.093811  2.434046  3.409609  2.163699  2.508413
   H ( 10)  2.774596  2.177401  3.825313  3.953170  1.096047  3.777731
   H ( 11)  3.499472  2.190501  3.017227  3.333951  1.092533  4.349731
   H ( 12)  2.795570  2.179334  3.056280  2.614135  1.093078  3.803354
             H (  7)   H (  8)   H (  9)   H ( 10)   H ( 11)
   H (  8)  1.774087
   H (  9)  2.511878  3.073179
   H ( 10)  2.556890  3.131959  2.511878
   H ( 11)  3.777731  3.803354  2.508413  1.774674
   H ( 12)  3.131959  2.605423  3.073179  1.774087  1.769918
 
 Applying Cartesian multipole field
    Component          Value
    ---------          -----
     (2,0,0)        1.00000E-11
     (0,2,0)        2.00000E-11
     (0,0,2)       -3.00000E-11
 Nucleus-field energy     =     0.0000000048 hartrees
 Requested basis set is 6-31G(d,p)
 There are 44 shells and 120 basis functions
 A cutoff of  1.0D-14 yielded    971 shell pairs
 There are      7323 function pairs
 Smallest overlap matrix eigenvalue = 6.74E-04
 Guess from superposition of atomic densities
 Warning:  Energy on first SCF cycle will be non-variational
 SAD guess density has 59.968191 electrons

 -----------------------------------------------------------------------
  General SCF calculation program by
  Eric Jon Sundstrom, Paul Horn, Yuezhi Mao, Dmitri Zuev, Alec White,
  David Stuck, Shaama M.S., Shane Yost, Joonho Lee, David Small,
  Daniel Levine, Susi Lehtola, Hugh Burton, Evgeny Epifanovsky
 -----------------------------------------------------------------------
 Exchange:     0.2000 Hartree-Fock + 0.0800 Slater + 0.7200 B88
 Correlation:  0.1900 VWN1RPA + 0.8100 LYP
 Using SG-1 standard quadrature grid
 using 12 threads for integral computing
 -------------------------------------------------------
 OpenMP Integral computing Module                
 Release: version 1.0, May 2013, Q-Chem Inc. Pittsburgh 
 -------------------------------------------------------
 -------------------------------------------------------
 OpenMP BLAS3 based DFT computing Module                
 Release: version 1.0, May 2013, Q-Chem Inc. Pittsburgh 
 -------------------------------------------------------
 A unrestricted SCF calculation will be
 performed using DIIS
 SCF converges when DIIS error is below 1.0e-06
 Alpha HF Exchange    Energy = -10.37256654802866
 Beta HF Exchange     Energy = -10.37256654802866
 DFT Correlation      Energy =  -3.09350040013214
 DFT Exchange         Energy = -82.04618739298580
 One-Electron (alpha) Energy = -2011.93176446575694
 One-Electron (beta)  Energy = -2011.93176446575694
 Total Coulomb        Energy = 1341.47786820454940
 ---------------------------------------
  Cycle       Energy         DIIS error
 ---------------------------------------
    1   -2523.4689260796      1.39e-01  
 Alpha HF Exchange    Energy = -10.42576820956191
 Beta HF Exchange     Energy = -10.42576820956191
 DFT Correlation      Energy =  -3.13596997295914
 DFT Exchange         Energy = -82.95903490051998
 One-Electron (alpha) Energy = -2019.19211964865235
 One-Electron (beta)  Energy = -2019.19211964865235
 Total Coulomb        Energy = 1360.20959347853614
    2   -2520.3196315749      8.92e-03  
 Alpha HF Exchange    Energy = -10.32562453592020
 Beta HF Exchange     Energy = -10.32562453592021
 DFT Correlation      Energy =  -3.09825320450859
 DFT Exchange         Energy = -82.14228755687159
 One-Electron (alpha) Energy = -2009.37091174899820
 One-Electron (beta)  Energy = -2009.37091174899706
 Total Coulomb        Energy = 1339.52790708963721
    3   -2520.3041507051      4.56e-03  
 Alpha HF Exchange    Energy = -10.40416848148742
 Beta HF Exchange     Energy = -10.40416848148743
 DFT Correlation      Energy =  -3.12840052451156
 DFT Exchange         Energy = -82.77962584987634
 One-Electron (alpha) Energy = -2016.94164627918872
 One-Electron (beta)  Energy = -2016.94164627919008
 Total Coulomb        Energy = 1355.40638248139112
    4   -2520.3917178778      2.73e-03  
 Alpha HF Exchange    Energy = -10.37866008991858
 Beta HF Exchange     Energy = -10.37866008991857
 DFT Correlation      Energy =  -3.11798815631153
 DFT Exchange         Energy = -82.57036994425431
 One-Electron (alpha) Energy = -2014.77645609366891
 One-Electron (beta)  Energy = -2014.77645609366755
 Total Coulomb        Energy = 1350.75788718673266
    5   -2520.4391477445      5.93e-04  
 Alpha HF Exchange    Energy = -10.37690057330661
 Beta HF Exchange     Energy = -10.37690057330663
 DFT Correlation      Energy =  -3.11804058178839
 DFT Exchange         Energy = -82.55800377302896
 One-Electron (alpha) Energy = -2014.51235487610688
 One-Electron (beta)  Energy = -2014.51235487610825
 Total Coulomb        Energy = 1350.21140733528932
    6   -2520.4415923818      7.30e-05  
 Alpha HF Exchange    Energy = -10.37650793256848
 Beta HF Exchange     Energy = -10.37650793256848
 DFT Correlation      Energy =  -3.11778057007969
 DFT Exchange         Energy = -82.55460234602074
 One-Electron (alpha) Energy = -2014.45410946163338
 One-Electron (beta)  Energy = -2014.45410946163361
 Total Coulomb        Energy = 1350.09043530577719
    7   -2520.4416268622      1.55e-05  
 Alpha HF Exchange    Energy = -10.37659581151848
 Beta HF Exchange     Energy = -10.37659581151846
 DFT Correlation      Energy =  -3.11780147119892
 DFT Exchange         Energy = -82.55527874883434
 One-Electron (alpha) Energy = -2014.47504464226472
 One-Electron (beta)  Energy = -2014.47504464226290
 Total Coulomb        Energy = 1350.13317671409527
    8   -2520.4416288770      7.81e-06  
 Alpha HF Exchange    Energy = -10.37658048217495
 Beta HF Exchange     Energy = -10.37658048217495
 DFT Correlation      Energy =  -3.11780502575374
 DFT Exchange         Energy = -82.55517329661902
 One-Electron (alpha) Energy = -2014.47101505315482
 One-Electron (beta)  Energy = -2014.47101505315504
 Total Coulomb        Energy = 1350.12498461864516
    9   -2520.4416292379      6.55e-07  Convergence criterion met
 ---------------------------------------
 SCF time:   CPU 29.47s  wall 2.00s 
<S^2> =         -0.000000000
 Alpha HF Exchange    Energy = -10.37658048217495
 Beta HF Exchange     Energy = -10.37658048217495
 DFT Correlation      Energy =  -3.11780502575374
 DFT Exchange         Energy = -82.55517329661902
 One-Electron (alpha) Energy = -2014.47101505315482
 One-Electron (beta)  Energy = -2014.47101505315504
 Total Coulomb        Energy = 1350.12498461864516
 Nuclear repulsion Energy = 264.80155553651531
 SCF   energy in the final basis set =    -2520.4416292379
 Total energy in the final basis set =    -2520.4416292379
 
 --------------------------------------------------------------
 
                    Orbital Energies (a.u.)
 --------------------------------------------------------------
 
 Alpha MOs
 -- Occupied --
******* -58.082 -52.140 -52.139 -52.136 -10.223 -10.184 -10.184
 -7.816  -5.762  -5.758  -5.749  -2.096  -2.095  -2.087  -2.084
 -2.083  -0.811  -0.691  -0.689  -0.576  -0.461  -0.439  -0.414
 -0.392  -0.379  -0.350  -0.346  -0.306  -0.220
 -- Virtual --
  0.013   0.065   0.094   0.129   0.148   0.152   0.169   0.180
  0.188   0.196   0.222   0.243   0.284   0.330   0.336   0.461
  0.468   0.494   0.507   0.563   0.585   0.664   0.678   0.685
  0.714   0.759   0.769   0.811   0.839   0.868   0.868   0.902
  0.907   0.929   0.949   0.958   1.062   1.098   1.328   1.385
  1.389   1.503   1.546   1.658   1.774   1.786   1.817   1.860
  1.890   2.038   2.041   2.060   2.075   2.082   2.106   2.106
  2.110   2.135   2.276   2.319   2.344   2.381   2.522   2.556
  2.602   2.650   2.662   2.702   2.721   2.864   2.870   2.890
  2.900   3.174   3.223   3.317   3.416   3.449   3.461   3.502
  4.245   4.289   4.354   4.358   4.420   4.486   4.523   4.629
  5.481  89.796
 
 Beta MOs
 -- Occupied --
******* -58.082 -52.140 -52.139 -52.136 -10.223 -10.184 -10.184
 -7.816  -5.762  -5.758  -5.749  -2.096  -2.095  -2.087  -2.084
 -2.083  -0.811  -0.691  -0.689  -0.576  -0.461  -0.439  -0.414
 -0.392  -0.379  -0.350  -0.346  -0.306  -0.220
 -- Virtual --
  0.013   0.065   0.094   0.129   0.148   0.152   0.169   0.180
  0.188   0.196   0.222   0.243   0.284   0.330   0.336   0.461
  0.468   0.494   0.507   0.563   0.585   0.664   0.678   0.685
  0.714   0.759   0.769   0.811   0.839   0.868   0.868   0.902
  0.907   0.929   0.949   0.958   1.062   1.098   1.328   1.385
  1.389   1.503   1.546   1.658   1.774   1.786   1.817   1.860
  1.890   2.038   2.041   2.060   2.075   2.082   2.106   2.106
  2.110   2.135   2.276   2.319   2.344   2.381   2.522   2.556
  2.602   2.650   2.662   2.702   2.721   2.864   2.870   2.890
  2.900   3.174   3.223   3.317   3.416   3.449   3.461   3.502
  4.245   4.289   4.354   4.358   4.420   4.486   4.523   4.629
  5.481  89.796
 --------------------------------------------------------------
 
          Ground-State Mulliken Net Atomic Charges

     Atom                 Charge (a.u.)    Spin (a.u.)
  --------------------------------------------------------
      1 C                    -0.300649      -0.000000
      2 C                    -0.146251       0.000000
      3 Se                   -0.087352      -0.000000
      4 H                     0.046562       0.000000
      5 C                    -0.300649       0.000000
      6 H                     0.122696       0.000000
      7 H                     0.101690      -0.000000
      8 H                     0.106632      -0.000000
      9 H                     0.126306      -0.000000
     10 H                     0.101690      -0.000000
     11 H                     0.122696      -0.000000
     12 H                     0.106632      -0.000000
  --------------------------------------------------------
  Sum of atomic charges =     0.000000
  Sum of spin   charges =     0.000000

 -----------------------------------------------------------------
                    Cartesian Multipole Moments
 -----------------------------------------------------------------
    Charge (ESU x 10^10)
                -0.0000
    Dipole Moment (Debye)
         X      -1.6470      Y       0.0000      Z       0.2629
       Tot       1.6678
    Quadrupole Moments (Debye-Ang)
        XX     -39.2367     XY      -0.0000     YY     -41.0658
        XZ       1.1911     YZ       0.0000     ZZ     -36.9066
    Octopole Moments (Debye-Ang^2)
       XXX      47.7894    XXY       0.0000    XYY      13.9528
       YYY       0.0000    XXZ      -0.2676    XYZ      -0.0000
       YYZ      -0.9756    XZZ      16.9399    YZZ      -0.0000
       ZZZ      -0.4348
    Hexadecapole Moments (Debye-Ang^3)
      XXXX    -439.8690   XXXY      -0.0000   XXYY    -116.7196
      XYYY      -0.0000   YYYY    -220.7589   XXXZ      10.3160
      XXYZ       0.0000   XYYZ       2.4113   YYYZ       0.0000
      XXZZ     -88.2372   XYZZ      -0.0000   YYZZ     -51.5851
      XZZZ       5.2462   YZZZ      -0.0000   ZZZZ     -76.8239
 -----------------------------------------------------------------
 Calculating analytic gradient of the SCF energy
 Gradient of SCF Energy
            1           2           3           4           5           6
    1  -0.0000887   0.0338288  -0.0325986  -0.0014752  -0.0000887  -0.0001487
    2   0.0029900  -0.0000000  -0.0000000   0.0000000  -0.0029900  -0.0001424
    3   0.0060463  -0.0054356  -0.0029990  -0.0003869   0.0060463  -0.0002515
            7           8           9          10          11          12
    1   0.0008076   0.0004491  -0.0017936   0.0008076  -0.0001487   0.0004491
    2  -0.0003452  -0.0003282   0.0000000   0.0003452   0.0001424   0.0003282
    3  -0.0007341  -0.0013060   0.0013120  -0.0007341  -0.0002515  -0.0013060
 Max gradient component =       3.383E-02
 RMS gradient           =       8.081E-03
 Gradient time:  CPU 12.38 s  wall 1.06 s
 Geometry Optimization Parameters
   NAtoms,    NIC,     NZ,  NCons,   NDum,   NFix, NCnnct, MaxDiis
       12      75       0       1       0       0       0       0

 Cartesian Hessian Update
 Hessian Updated using BFGS Update


** CONSTRAINED OPTIMIZATION IN DELOCALIZED INTERNAL COORDINATES **
   Searching for a Minimum

   Optimization Cycle:   2

                       Coordinates (Angstroms)
     ATOM                X               Y               Z
      1  C        -1.7114107315    1.2705015622    0.1568406702
      2  C        -1.0408447181    0.0000000000   -0.4025995633
      3  Se        0.8277541126    0.0000000000   -0.0392304642
      4  H         0.6390188300    0.0000000000    1.4250240622
      5  C        -1.7114107315   -1.2705015622    0.1568406702
      6  H        -1.2529157326    2.1748653542   -0.2500211777
      7  H        -2.7771041874    1.2784450634   -0.0991926608
      8  H        -1.6202871898    1.3027116735    1.2456377693
      9  H        -1.1242925419    0.0000000000   -1.4932232366
     10  H        -2.7771041874   -1.2784450634   -0.0991926608
     11  H        -1.2529157326   -2.1748653542   -0.2500211777
     12  H        -1.6202871898   -1.3027116735    1.2456377693
   Point Group: c1    Number of degrees of freedom:    30


   Energy is  -2520.441629238

              Constraints and their Current Values
                                        Value     Constraint
   Distance(Angs):        2   3             1.903602     1.900000
 Hessian Updated using BFGS Update

   Using Lagrange Multiplier Algorithm


 16 Hessian modes will be used to form the next step
  Hessian Eigenvalues:
    -0.915453    0.045002    0.072748    0.077871    0.084963    0.085032
     0.146825    0.158431    0.185672    0.204904    0.303887    0.346404
     0.348121    0.348154    0.348638    1.092880

 Minimum Search - Taking P-RFO Step
 Searching for Lamda that Maximizes Along the Constraint modes Only
 Value Taken    Lamda =   0.00006055
 Searching for Lamda that Minimizes Along All other modes
 Value Taken    Lamda =  -0.00082119
 Step Taken.  Stepsize is  0.096433

                             Maximum     Tolerance    Cnvgd?
         Gradient            0.006806       0.000300      NO
         Displacement        0.054694       0.001200      NO
         Energy change     -0.004072       0.000001      NO


 New Cartesian Coordinates Obtained by Inverse Iteration

 Displacement from previous Coordinates is:  0.160222
 ----------------------------------------------------------------
             Standard Nuclear Orientation (Angstroms)
    I     Atom           X                Y                Z
 ----------------------------------------------------------------
    1      C      -1.7190033732     1.2682897918     0.1556122633
    2      C      -1.0367221779     0.0000000000    -0.3816756573
    3      Se      0.8340569784     0.0000000000    -0.0497282558
    4      H       0.7012971931     0.0000000000     1.4181104011
    5      C      -1.7190033732    -1.2682897918     0.1556122633
    6      H      -1.2598247852     2.1725256031    -0.2514419390
    7      H      -2.7839124077     1.2732686043    -0.1089563989
    8      H      -1.6445250301     1.3137141365     1.2473374766
    9      H      -1.1059008013     0.0000000000    -1.4753092919
   10      H      -2.7839124077    -1.2732686043    -0.1089563989
   11      H      -1.2598247852    -2.1725256031    -0.2514419390
   12      H      -1.6445250301    -1.3137141365     1.2473374766
 ----------------------------------------------------------------
 Nuclear Repulsion Energy =   264.5178763932 hartrees
 There are       30 alpha and       30 beta electrons

                       Distance Matrix (Angstroms)
             C (  1)   C (  2)   Se(  3)   H (  4)   C (  5)   H (  6)
   C (  2)  1.537122
   Se(  3)  2.858118  1.900001
   H (  4)  3.010036  2.501987  1.473830
   C (  5)  2.536580  1.537122  2.858118  3.010036
   H (  6)  1.092786  2.187831  3.024053  3.369462  3.495104
   H (  7)  1.097293  2.179051  3.835938  4.012460  2.768311  1.775333
   H (  8)  1.095205  2.179209  3.090565  2.694047  2.804310  1.769715
   H (  9)  2.155077  1.095819  2.407430  3.411428  2.155077  2.498282
   H ( 10)  2.768311  2.179051  3.835938  4.012460  1.097293  3.770496
   H ( 11)  3.495104  2.187831  3.024053  3.369462  1.092786  4.345051
   H ( 12)  2.804310  2.179209  3.090565  2.694047  1.095205  3.814210
             H (  7)   H (  8)   H (  9)   H ( 10)   H ( 11)
   H (  8)  1.771827
   H (  9)  2.510748  3.070630
   H ( 10)  2.546537  3.135318  2.510748
   H ( 11)  3.770496  3.814210  2.498282  1.775333
   H ( 12)  3.135318  2.627428  3.070630  1.771827  1.769715
 
 Applying Cartesian multipole field
    Component          Value
    ---------          -----
     (2,0,0)        1.00000E-11
     (0,2,0)        2.00000E-11
     (0,0,2)       -3.00000E-11
 Nucleus-field energy     =     0.0000000049 hartrees
 Requested basis set is 6-31G(d,p)
 There are 44 shells and 120 basis functions
 A cutoff of  1.0D-14 yielded    971 shell pairs
 There are      7323 function pairs
 Smallest overlap matrix eigenvalue = 6.74E-04
 Guess from superposition of atomic densities
 Warning:  Energy on first SCF cycle will be non-variational
 SAD guess density has 59.968191 electrons

 -----------------------------------------------------------------------
  General SCF calculation program by
  Eric Jon Sundstrom, Paul Horn, Yuezhi Mao, Dmitri Zuev, Alec White,
  David Stuck, Shaama M.S., Shane Yost, Joonho Lee, David Small,
  Daniel Levine, Susi Lehtola, Hugh Burton, Evgeny Epifanovsky
 -----------------------------------------------------------------------
 Exchange:     0.2000 Hartree-Fock + 0.0800 Slater + 0.7200 B88
 Correlation:  0.1900 VWN1RPA + 0.8100 LYP
 Using SG-1 standard quadrature grid
 using 12 threads for integral computing
 -------------------------------------------------------
 OpenMP Integral computing Module                
 Release: version 1.0, May 2013, Q-Chem Inc. Pittsburgh 
 -------------------------------------------------------
 -------------------------------------------------------
 OpenMP BLAS3 based DFT computing Module                
 Release: version 1.0, May 2013, Q-Chem Inc. Pittsburgh 
 -------------------------------------------------------
 A unrestricted SCF calculation will be
 performed using DIIS
 SCF converges when DIIS error is below 1.0e-06
 Alpha HF Exchange    Energy = -10.37308259741976
 Beta HF Exchange     Energy = -10.37308259741976
 DFT Correlation      Energy =  -3.09346284493472
 DFT Exchange         Energy = -82.04735571427243
 One-Electron (alpha) Energy = -2011.64689121412016
 One-Electron (beta)  Energy = -2011.64689121412016
 Total Coulomb        Energy = 1341.18679762385500
 ---------------------------------------
  Cycle       Energy         DIIS error
 ---------------------------------------
    1   -2523.4760921604      1.39e-01  
 Alpha HF Exchange    Energy = -10.42586804037608
 Beta HF Exchange     Energy = -10.42586804037609
 DFT Correlation      Energy =  -3.13599886005532
 DFT Exchange         Energy = -82.95975896175680
 One-Electron (alpha) Energy = -2018.90252392775778
 One-Electron (beta)  Energy = -2018.90252392775801
 Total Coulomb        Energy = 1359.91471633833885
    2   -2520.3199490217      8.92e-03  
 Alpha HF Exchange    Energy = -10.32568399540363
 Beta HF Exchange     Energy = -10.32568399540361
 DFT Correlation      Energy =  -3.09817244258623
 DFT Exchange         Energy = -82.14259265874915
 One-Electron (alpha) Energy = -2009.08145322471182
 One-Electron (beta)  Energy = -2009.08145322471023
 Total Coulomb        Energy = 1339.23366332510159
    3   -2520.3034998184      4.57e-03  
 Alpha HF Exchange    Energy = -10.40428070986613
 Beta HF Exchange     Energy = -10.40428070986612
 DFT Correlation      Energy =  -3.12845947454413
 DFT Exchange         Energy = -82.78053788456441
 One-Electron (alpha) Energy = -2016.64992428172945
 One-Electron (beta)  Energy = -2016.64992428172900
 Total Coulomb        Energy = 1355.10855922588530
    4   -2520.3909717184      2.75e-03  
 Alpha HF Exchange    Energy = -10.37884899314749
 Beta HF Exchange     Energy = -10.37884899314750
 DFT Correlation      Energy =  -3.11799500309593
 DFT Exchange         Energy = -82.57175838570211
 One-Electron (alpha) Energy = -2014.49491803501701
 One-Electron (beta)  Energy = -2014.49491803501860
 Total Coulomb        Energy = 1350.48002297342828
    5   -2520.4393880737      6.06e-04  
 Alpha HF Exchange    Energy = -10.37699560438462
 Beta HF Exchange     Energy = -10.37699560438462
 DFT Correlation      Energy =  -3.11803377816585
 DFT Exchange         Energy = -82.55866784038852
 One-Electron (alpha) Energy = -2014.22347652923759
 One-Electron (beta)  Energy = -2014.22347652923690
 Total Coulomb        Energy = 1349.91785140419370
    6   -2520.4419180836      7.24e-05  
 Alpha HF Exchange    Energy = -10.37660284386738
 Beta HF Exchange     Energy = -10.37660284386738
 DFT Correlation      Energy =  -3.11777313008860
 DFT Exchange         Energy = -82.55526680980131
 One-Electron (alpha) Energy = -2014.16460907446685
 One-Electron (beta)  Energy = -2014.16460907446594
 Total Coulomb        Energy = 1349.79563551608453
    7   -2520.4419518624      1.56e-05  
 Alpha HF Exchange    Energy = -10.37669290096392
 Beta HF Exchange     Energy = -10.37669290096392
 DFT Correlation      Energy =  -3.11779496683150
 DFT Exchange         Energy = -82.55596097502875
 One-Electron (alpha) Energy = -2014.18584164868116
 One-Electron (beta)  Energy = -2014.18584164868184
 Total Coulomb        Energy = 1349.83899474088503
    8   -2520.4419539022      7.77e-06  
 Alpha HF Exchange    Energy = -10.37667763271074
 Beta HF Exchange     Energy = -10.37667763271072
 DFT Correlation      Energy =  -3.11779852670244
 DFT Exchange         Energy = -82.55585589043682
 One-Electron (alpha) Energy = -2014.18179011958068
 One-Electron (beta)  Energy = -2014.18179011957864
 Total Coulomb        Energy = 1349.83075926498577
    9   -2520.4419542587      6.61e-07  Convergence criterion met
 ---------------------------------------
 SCF time:   CPU 29.14s  wall 2.00s 
<S^2> =         -0.000000000
 Alpha HF Exchange    Energy = -10.37667763271074
 Beta HF Exchange     Energy = -10.37667763271072
 DFT Correlation      Energy =  -3.11779852670244
 DFT Exchange         Energy = -82.55585589043682
 One-Electron (alpha) Energy = -2014.18179011958068
 One-Electron (beta)  Energy = -2014.18179011957864
 Total Coulomb        Energy = 1349.83075926498577
 Nuclear repulsion Energy = 264.51787639803985
 SCF   energy in the final basis set =    -2520.4419542587
 Total energy in the final basis set =    -2520.4419542587
 
 --------------------------------------------------------------
 
                    Orbital Energies (a.u.)
 --------------------------------------------------------------
 
 Alpha MOs
 -- Occupied --
******* -58.083 -52.140 -52.139 -52.137 -10.223 -10.184 -10.184
 -7.817  -5.762  -5.758  -5.749  -2.096  -2.095  -2.088  -2.084
 -2.083  -0.812  -0.691  -0.690  -0.576  -0.461  -0.440  -0.415
 -0.391  -0.380  -0.351  -0.343  -0.307  -0.221
 -- Virtual --
  0.015   0.065   0.092   0.129   0.148   0.152   0.168   0.180
  0.188   0.198   0.224   0.243   0.285   0.331   0.335   0.464
  0.467   0.495   0.507   0.567   0.586   0.665   0.677   0.686
  0.715   0.760   0.764   0.809   0.838   0.868   0.868   0.902
  0.908   0.928   0.950   0.957   1.057   1.099   1.326   1.390
  1.392   1.500   1.548   1.668   1.766   1.787   1.819   1.859
  1.894   2.040   2.041   2.061   2.073   2.084   2.102   2.104
  2.112   2.134   2.276   2.319   2.346   2.377   2.523   2.555
  2.603   2.651   2.658   2.706   2.725   2.862   2.868   2.891
  2.903   3.169   3.218   3.313   3.416   3.448   3.460   3.502
  4.243   4.288   4.357   4.359   4.416   4.485   4.518   4.630
  5.481  89.795
 
 Beta MOs
 -- Occupied --
******* -58.083 -52.140 -52.139 -52.137 -10.223 -10.184 -10.184
 -7.817  -5.762  -5.758  -5.749  -2.096  -2.095  -2.088  -2.084
 -2.083  -0.812  -0.691  -0.690  -0.576  -0.461  -0.440  -0.415
 -0.391  -0.380  -0.351  -0.343  -0.307  -0.221
 -- Virtual --
  0.015   0.065   0.092   0.129   0.148   0.152   0.168   0.180
  0.188   0.198   0.224   0.243   0.285   0.331   0.335   0.464
  0.467   0.495   0.507   0.567   0.586   0.665   0.677   0.686
  0.715   0.760   0.764   0.809   0.838   0.868   0.868   0.902
  0.908   0.928   0.950   0.957   1.057   1.099   1.326   1.390
  1.392   1.500   1.548   1.668   1.766   1.787   1.819   1.859
  1.894   2.040   2.041   2.061   2.073   2.084   2.102   2.104
  2.112   2.134   2.276   2.319   2.346   2.377   2.523   2.555
  2.603   2.651   2.658   2.706   2.725   2.862   2.868   2.891
  2.903   3.169   3.218   3.313   3.416   3.448   3.460   3.502
  4.243   4.288   4.357   4.359   4.416   4.485   4.518   4.630
  5.481  89.795
 --------------------------------------------------------------
 
          Ground-State Mulliken Net Atomic Charges

     Atom                 Charge (a.u.)    Spin (a.u.)
  --------------------------------------------------------
      1 C                    -0.301259       0.000000
      2 C                    -0.143337       0.000000
      3 Se                   -0.088665       0.000000
      4 H                     0.047184       0.000000
      5 C                    -0.301259       0.000000
      6 H                     0.122292       0.000000
      7 H                     0.102044      -0.000000
      8 H                     0.106627      -0.000000
      9 H                     0.125412       0.000000
     10 H                     0.102044      -0.000000
     11 H                     0.122292       0.000000
     12 H                     0.106627      -0.000000
  --------------------------------------------------------
  Sum of atomic charges =    -0.000000
  Sum of spin   charges =     0.000000

 -----------------------------------------------------------------
                    Cartesian Multipole Moments
 -----------------------------------------------------------------
    Charge (ESU x 10^10)
                -0.0000
    Dipole Moment (Debye)
         X      -1.6287      Y       0.0000      Z       0.2951
       Tot       1.6552
    Quadrupole Moments (Debye-Ang)
        XX     -39.1545     XY       0.0000     YY     -41.0568
        XZ       1.2406     YZ      -0.0000     ZZ     -36.9824
    Octopole Moments (Debye-Ang^2)
       XXX      47.5573    XXY       0.0000    XYY      13.8434
       YYY       0.0000    XXZ       0.0487    XYZ       0.0000
       YYZ      -0.8086    XZZ      16.9453    YZZ       0.0000
       ZZZ      -0.0506
    Hexadecapole Moments (Debye-Ang^3)
      XXXX    -443.1422   XXXY      -0.0000   XXYY    -117.1768
      XYYY      -0.0000   YYYY    -220.5302   XXXZ      11.0633
      XXYZ      -0.0000   XYYZ       2.6515   YYYZ       0.0000
      XXZZ     -88.8539   XYZZ      -0.0000   YYZZ     -51.4368
      XZZZ       5.9431   YZZZ       0.0000   ZZZZ     -76.4315
 -----------------------------------------------------------------
 Calculating analytic gradient of the SCF energy
 Gradient of SCF Energy
            1           2           3           4           5           6
    1   0.0000931   0.0349231  -0.0335722  -0.0004265   0.0000931  -0.0001112
    2   0.0005443   0.0000000  -0.0000000  -0.0000000  -0.0005443   0.0000102
    3   0.0023448   0.0007387  -0.0034519  -0.0012449   0.0023448  -0.0001685
            7           8           9          10          11          12
    1  -0.0002019   0.0001624  -0.0008093  -0.0002019  -0.0001112   0.0001624
    2   0.0001868  -0.0001227   0.0000000  -0.0001868  -0.0000102   0.0001227
    3  -0.0002923  -0.0002186   0.0006272  -0.0002923  -0.0001685  -0.0002186
 Max gradient component =       3.492E-02
 RMS gradient           =       8.121E-03
 Gradient time:  CPU 12.09 s  wall 1.01 s
 Geometry Optimization Parameters
   NAtoms,    NIC,     NZ,  NCons,   NDum,   NFix, NCnnct, MaxDiis
       12      75       0       1       0       0       0       0

 Cartesian Hessian Update
 Hessian Updated using BFGS Update


** CONSTRAINED OPTIMIZATION IN DELOCALIZED INTERNAL COORDINATES **
   Searching for a Minimum

   Optimization Cycle:   3

                       Coordinates (Angstroms)
     ATOM                X               Y               Z
      1  C        -1.7190033732    1.2682897918    0.1556122633
      2  C        -1.0367221779    0.0000000000   -0.3816756573
      3  Se        0.8340569784    0.0000000000   -0.0497282558
      4  H         0.7012971931    0.0000000000    1.4181104011
      5  C        -1.7190033732   -1.2682897918    0.1556122633
      6  H        -1.2598247852    2.1725256031   -0.2514419390
      7  H        -2.7839124077    1.2732686043   -0.1089563989
      8  H        -1.6445250301    1.3137141365    1.2473374766
      9  H        -1.1059008013    0.0000000000   -1.4753092919
     10  H        -2.7839124077   -1.2732686043   -0.1089563989
     11  H        -1.2598247852   -2.1725256031   -0.2514419390
     12  H        -1.6445250301   -1.3137141365    1.2473374766
   Point Group: c1    Number of degrees of freedom:    30


   Energy is  -2520.441954259

              Constraints and their Current Values
                                        Value     Constraint
   Distance(Angs):        2   3             1.900001     1.900000
 Hessian Updated using BFGS Update

   Using Lagrange Multiplier Algorithm


 20 Hessian modes will be used to form the next step
  Hessian Eigenvalues:
    -0.915585    0.044990    0.045000    0.046340    0.077983    0.084945
     0.085060    0.151046    0.157891    0.162742    0.174119    0.180384
     0.206212    0.294246    0.294777    0.346353    0.348119    0.348234
     0.350482    1.092834

 Minimum Search - Taking P-RFO Step
 Searching for Lamda that Maximizes Along the Constraint modes Only
 Value Taken    Lamda =   0.00000005
 Searching for Lamda that Minimizes Along All other modes
 Value Taken    Lamda =  -0.00022871
 Step Taken.  Stepsize is  0.067126

                             Maximum     Tolerance    Cnvgd?
         Gradient            0.002103       0.000300      NO
         Displacement        0.040523       0.001200      NO
         Energy change     -0.000325       0.000001      NO


 New Cartesian Coordinates Obtained by Inverse Iteration

 Displacement from previous Coordinates is:  0.103368
 ----------------------------------------------------------------
             Standard Nuclear Orientation (Angstroms)
    I     Atom           X                Y                Z
 ----------------------------------------------------------------
    1      C      -1.7235690000     1.2688817783     0.1549285332
    2      C      -1.0371542218     0.0000000000    -0.3665715304
    3      Se      0.8375806001     0.0000000000    -0.0577516473
    4      H       0.7406872239     0.0000000000     1.4173617911
    5      C      -1.7235690000    -1.2688817783     0.1549285332
    6      H      -1.2632878350     2.1717317728    -0.2540257368
    7      H      -2.7865928986     1.2688405653    -0.1155375925
    8      H      -1.6592542151     1.3246693190     1.2475350942
    9      H      -1.0975057048     0.0000000000    -1.4623392097
   10      H      -2.7865928986    -1.2688405653    -0.1155375925
   11      H      -1.2632878350    -2.1717317728    -0.2540257368
   12      H      -1.6592542151    -1.3246693190     1.2475350942
 ----------------------------------------------------------------
 Nuclear Repulsion Energy =   264.2158514724 hartrees
 There are       30 alpha and       30 beta electrons

                       Distance Matrix (Angstroms)
             C (  1)   C (  2)   Se(  3)   H (  4)   C (  5)   H (  6)
   C (  2)  1.534011
   Se(  3)  2.866144  1.900000
   H (  4)  3.045711  2.518559  1.478292
   C (  5)  2.537764  1.534011  2.866144  3.045711
   H (  6)  1.092813  2.186372  3.027968  3.394977  3.495272
   H (  7)  1.096892  2.175663  3.840303  4.049869  2.764635  1.776190
   H (  8)  1.095919  2.178783  3.113311  2.746508  2.815037  1.768895
   H (  9)  2.148853  1.097428  2.391114  3.416377  2.148853  2.490768
   H ( 10)  2.764635  2.175663  3.840303  4.049869  1.096892  3.765259
   H ( 11)  3.495272  2.186372  3.027968  3.394977  1.092813  4.343464
   H ( 12)  2.815037  2.178783  3.113311  2.746508  1.095919  3.825741
             H (  7)   H (  8)   H (  9)   H ( 10)   H ( 11)
   H (  8)  1.769739
   H (  9)  2.505364  3.068180
   H ( 10)  2.537681  3.139292  2.505364
   H ( 11)  3.765259  3.825741  2.490768  1.776190
   H ( 12)  3.139292  2.649339  3.068180  1.769739  1.768895
 
 Applying Cartesian multipole field
    Component          Value
    ---------          -----
     (2,0,0)        1.00000E-11
     (0,2,0)        2.00000E-11
     (0,0,2)       -3.00000E-11
 Nucleus-field energy     =     0.0000000049 hartrees
 Requested basis set is 6-31G(d,p)
 There are 44 shells and 120 basis functions
 A cutoff of  1.0D-14 yielded    969 shell pairs
 There are      7299 function pairs
 Smallest overlap matrix eigenvalue = 6.75E-04
 Guess from superposition of atomic densities
 Warning:  Energy on first SCF cycle will be non-variational
 SAD guess density has 59.968191 electrons

 -----------------------------------------------------------------------
  General SCF calculation program by
  Eric Jon Sundstrom, Paul Horn, Yuezhi Mao, Dmitri Zuev, Alec White,
  David Stuck, Shaama M.S., Shane Yost, Joonho Lee, David Small,
  Daniel Levine, Susi Lehtola, Hugh Burton, Evgeny Epifanovsky
 -----------------------------------------------------------------------
 Exchange:     0.2000 Hartree-Fock + 0.0800 Slater + 0.7200 B88
 Correlation:  0.1900 VWN1RPA + 0.8100 LYP
 Using SG-1 standard quadrature grid
 using 12 threads for integral computing
 -------------------------------------------------------
 OpenMP Integral computing Module                
 Release: version 1.0, May 2013, Q-Chem Inc. Pittsburgh 
 -------------------------------------------------------
 -------------------------------------------------------
 OpenMP BLAS3 based DFT computing Module                
 Release: version 1.0, May 2013, Q-Chem Inc. Pittsburgh 
 -------------------------------------------------------
 A unrestricted SCF calculation will be
 performed using DIIS
 SCF converges when DIIS error is below 1.0e-06
 Alpha HF Exchange    Energy = -10.37323372578462
 Beta HF Exchange     Energy = -10.37323372578462
 DFT Correlation      Energy =  -3.09337762754539
 DFT Exchange         Energy = -82.04761464748127
 One-Electron (alpha) Energy = -2011.34585833649044
 One-Electron (beta)  Energy = -2011.34585833649044
 Total Coulomb        Energy = 1340.88578672532981
 ---------------------------------------
  Cycle       Energy         DIIS error
 ---------------------------------------
    1   -2523.4775381969      1.39e-01  
 Alpha HF Exchange    Energy = -10.42585775490814
 Beta HF Exchange     Energy = -10.42585775490814
 DFT Correlation      Energy =  -3.13596769852657
 DFT Exchange         Energy = -82.95982715222021
 One-Electron (alpha) Energy = -2018.60235921058597
 One-Electron (beta)  Energy = -2018.60235921058688
 Total Coulomb        Energy = 1359.61651919716883
    2   -2520.3198581073      8.92e-03  
 Alpha HF Exchange    Energy = -10.32558149143917
 Beta HF Exchange     Energy = -10.32558149143918
 DFT Correlation      Energy =  -3.09804741031455
 DFT Exchange         Energy = -82.14191198053817
 One-Electron (alpha) Energy = -2008.76737147863241
 One-Electron (beta)  Energy = -2008.76737147863400
 Total Coulomb        Energy = 1338.90706462843718
    3   -2520.3029492252      4.57e-03  
 Alpha HF Exchange    Energy = -10.40427026850216
 Beta HF Exchange     Energy = -10.40427026850214
 DFT Correlation      Energy =  -3.12842772960595
 DFT Exchange         Energy = -82.78063011871939
 One-Electron (alpha) Energy = -2016.34982229309958
 One-Electron (beta)  Energy = -2016.34982229309844
 Total Coulomb        Energy = 1354.81076570640926
    4   -2520.3906257878      2.76e-03  
 Alpha HF Exchange    Energy = -10.37884243436219
 Beta HF Exchange     Energy = -10.37884243436217
 DFT Correlation      Energy =  -3.11793400795397
 DFT Exchange         Energy = -82.57185226246465
 One-Electron (alpha) Energy = -2014.19274562105966
 One-Electron (beta)  Energy = -2014.19274562105738
 Total Coulomb        Energy = 1350.17766295450883
    5   -2520.4394479494      6.14e-04  
 Alpha HF Exchange    Energy = -10.37695454511643
 Beta HF Exchange     Energy = -10.37695454511644
 DFT Correlation      Energy =  -3.11796631552365
 DFT Exchange         Energy = -82.55849503652006
 One-Electron (alpha) Energy = -2013.91860315454915
 One-Electron (beta)  Energy = -2013.91860315455006
 Total Coulomb        Energy = 1349.60968358908258
    6   -2520.4420416850      7.20e-05  
 Alpha HF Exchange    Energy = -10.37656523146211
 Beta HF Exchange     Energy = -10.37656523146212
 DFT Correlation      Energy =  -3.11770550867704
 DFT Exchange         Energy = -82.55511944215388
 One-Electron (alpha) Energy = -2013.86013303258915
 One-Electron (beta)  Energy = -2013.86013303258892
 Total Coulomb        Energy = 1349.48829502527292
    7   -2520.4420749763      1.53e-05  
 Alpha HF Exchange    Energy = -10.37665519356207
 Beta HF Exchange     Energy = -10.37665519356208
 DFT Correlation      Energy =  -3.11772834989733
 DFT Exchange         Energy = -82.55581482932634
 One-Electron (alpha) Energy = -2013.88126864729588
 One-Electron (beta)  Energy = -2013.88126864729634
 Total Coulomb        Energy = 1349.53146240075876
    8   -2520.4420769829      7.56e-06  
 Alpha HF Exchange    Energy = -10.37663975736863
 Beta HF Exchange     Energy = -10.37663975736862
 DFT Correlation      Energy =  -3.11773162299515
 DFT Exchange         Energy = -82.55570796906906
 One-Electron (alpha) Energy = -2013.87714939957709
 One-Electron (beta)  Energy = -2013.87714939957618
 Total Coulomb        Energy = 1349.52308910778675
    9   -2520.4420773209      6.78e-07  Convergence criterion met
 ---------------------------------------
 SCF time:   CPU 28.09s  wall 2.00s 
<S^2> =          0.000000000
 Alpha HF Exchange    Energy = -10.37663975736863
 Beta HF Exchange     Energy = -10.37663975736862
 DFT Correlation      Energy =  -3.11773162299515
 DFT Exchange         Energy = -82.55570796906906
 One-Electron (alpha) Energy = -2013.87714939957709
 One-Electron (beta)  Energy = -2013.87714939957618
 Total Coulomb        Energy = 1349.52308910778675
 Nuclear repulsion Energy = 264.21585147731571
 SCF   energy in the final basis set =    -2520.4420773209
 Total energy in the final basis set =    -2520.4420773209
 
 --------------------------------------------------------------
 
                    Orbital Energies (a.u.)
 --------------------------------------------------------------
 
 Alpha MOs
 -- Occupied --
******* -58.083 -52.141 -52.139 -52.137 -10.223 -10.184 -10.184
 -7.817  -5.763  -5.758  -5.749  -2.096  -2.096  -2.088  -2.084
 -2.083  -0.812  -0.691  -0.690  -0.575  -0.461  -0.440  -0.415
 -0.391  -0.380  -0.351  -0.341  -0.307  -0.221
 -- Virtual --
  0.015   0.064   0.091   0.129   0.148   0.152   0.168   0.180
  0.187   0.199   0.225   0.243   0.285   0.331   0.334   0.465
  0.466   0.496   0.507   0.569   0.586   0.664   0.676   0.686
  0.716   0.760   0.761   0.808   0.837   0.867   0.868   0.902
  0.909   0.927   0.950   0.956   1.052   1.100   1.323   1.390
  1.397   1.498   1.550   1.675   1.760   1.787   1.823   1.858
  1.897   2.041   2.041   2.061   2.072   2.083   2.099   2.103
  2.113   2.134   2.277   2.317   2.349   2.376   2.524   2.556
  2.601   2.649   2.657   2.708   2.726   2.864   2.867   2.893
  2.907   3.168   3.217   3.310   3.416   3.449   3.460   3.502
  4.241   4.287   4.358   4.360   4.413   4.485   4.516   4.631
  5.480  89.793
 
 Beta MOs
 -- Occupied --
******* -58.083 -52.141 -52.139 -52.137 -10.223 -10.184 -10.184
 -7.817  -5.763  -5.758  -5.749  -2.096  -2.096  -2.088  -2.084
 -2.083  -0.812  -0.691  -0.690  -0.575  -0.461  -0.440  -0.415
 -0.391  -0.380  -0.351  -0.341  -0.307  -0.221
 -- Virtual --
  0.015   0.064   0.091   0.129   0.148   0.152   0.168   0.180
  0.187   0.199   0.225   0.243   0.285   0.331   0.334   0.465
  0.466   0.496   0.507   0.569   0.586   0.664   0.676   0.686
  0.716   0.760   0.761   0.808   0.837   0.867   0.868   0.902
  0.909   0.927   0.950   0.956   1.052   1.100   1.323   1.390
  1.397   1.498   1.550   1.675   1.760   1.787   1.823   1.858
  1.897   2.041   2.041   2.061   2.072   2.083   2.099   2.103
  2.113   2.134   2.277   2.317   2.349   2.376   2.524   2.556
  2.601   2.649   2.657   2.708   2.726   2.864   2.867   2.893
  2.907   3.168   3.217   3.310   3.416   3.449   3.460   3.502
  4.241   4.287   4.358   4.360   4.413   4.485   4.516   4.631
  5.480  89.793
 --------------------------------------------------------------
 
          Ground-State Mulliken Net Atomic Charges

     Atom                 Charge (a.u.)    Spin (a.u.)
  --------------------------------------------------------
      1 C                    -0.301491       0.000000
      2 C                    -0.142157       0.000000
      3 Se                   -0.089485      -0.000000
      4 H                     0.046831       0.000000
      5 C                    -0.301491       0.000000
      6 H                     0.122364       0.000000
      7 H                     0.102387      -0.000000
      8 H                     0.106817      -0.000000
      9 H                     0.124659       0.000000
     10 H                     0.102387      -0.000000
     11 H                     0.122364      -0.000000
     12 H                     0.106817      -0.000000
  --------------------------------------------------------
  Sum of atomic charges =     0.000000
  Sum of spin   charges =    -0.000000

 -----------------------------------------------------------------
                    Cartesian Multipole Moments
 -----------------------------------------------------------------
    Charge (ESU x 10^10)
                 0.0000
    Dipole Moment (Debye)
         X      -1.6247      Y       0.0000      Z       0.3096
       Tot       1.6539
    Quadrupole Moments (Debye-Ang)
        XX     -39.0972     XY       0.0000     YY     -41.0395
        XZ       1.2672     YZ      -0.0000     ZZ     -37.0423
    Octopole Moments (Debye-Ang^2)
       XXX      47.4493    XXY       0.0000    XYY      13.7847
       YYY       0.0000    XXZ       0.2313    XYZ       0.0000
       YYZ      -0.6903    XZZ      16.9426    YZZ       0.0000
       ZZZ       0.2245
    Hexadecapole Moments (Debye-Ang^3)
      XXXX    -445.1968   XXXY      -0.0000   XXYY    -117.5925
      XYYY      -0.0000   YYYY    -220.6447   XXXZ      11.5659
      XXYZ      -0.0000   XYYZ       2.8054   YYYZ      -0.0000
      XXZZ     -89.2473   XYZZ      -0.0000   YYZZ     -51.4020
      XZZZ       6.3954   YZZZ      -0.0000   ZZZZ     -76.2888
 -----------------------------------------------------------------
 Calculating analytic gradient of the SCF energy
 Gradient of SCF Energy
            1           2           3           4           5           6
    1   0.0000398   0.0335842  -0.0332826  -0.0000775   0.0000398  -0.0000496
    2  -0.0002974   0.0000000  -0.0000000   0.0000000   0.0002974   0.0001418
    3   0.0000432   0.0050491  -0.0056530   0.0002446   0.0000432   0.0000214
            7           8           9          10          11          12
    1  -0.0000464   0.0000187  -0.0001491  -0.0000464  -0.0000496   0.0000187
    2   0.0000980   0.0000098  -0.0000000  -0.0000980  -0.0001418  -0.0000098
    3   0.0000109   0.0000666   0.0000750   0.0000109   0.0000214   0.0000666
 Max gradient component =       3.358E-02
 RMS gradient           =       7.982E-03
 Gradient time:  CPU 12.46 s  wall 1.28 s
 Geometry Optimization Parameters
   NAtoms,    NIC,     NZ,  NCons,   NDum,   NFix, NCnnct, MaxDiis
       12      75       0       1       0       0       0       0

 Cartesian Hessian Update
 Hessian Updated using BFGS Update


** CONSTRAINED OPTIMIZATION IN DELOCALIZED INTERNAL COORDINATES **
   Searching for a Minimum

   Optimization Cycle:   4

                       Coordinates (Angstroms)
     ATOM                X               Y               Z
      1  C        -1.7235690000    1.2688817783    0.1549285332
      2  C        -1.0371542218    0.0000000000   -0.3665715304
      3  Se        0.8375806001    0.0000000000   -0.0577516473
      4  H         0.7406872239    0.0000000000    1.4173617911
      5  C        -1.7235690000   -1.2688817783    0.1549285332
      6  H        -1.2632878350    2.1717317728   -0.2540257368
      7  H        -2.7865928986    1.2688405653   -0.1155375925
      8  H        -1.6592542151    1.3246693190    1.2475350942
      9  H        -1.0975057048    0.0000000000   -1.4623392097
     10  H        -2.7865928986   -1.2688405653   -0.1155375925
     11  H        -1.2632878350   -2.1717317728   -0.2540257368
     12  H        -1.6592542151   -1.3246693190    1.2475350942
   Point Group: c1    Number of degrees of freedom:    30


   Energy is  -2520.442077321

              Constraints and their Current Values
                                        Value     Constraint
   Distance(Angs):        2   3             1.900000     1.900000
 Hessian Updated using BFGS Update

 16 Hessian modes will be used to form the next step
  Hessian Eigenvalues:
     0.041359    0.045009    0.077993    0.084993    0.085059    0.153279
     0.158646    0.160553    0.162492    0.179655    0.207101    0.295672
     0.346459    0.348129    0.348382    0.350265

 Minimum Search - Taking Simple RFO Step
 Searching for Lamda that Minimizes Along All modes
 Value Taken    Lamda =  -0.00000454
 Step Taken.  Stepsize is  0.008952

                             Maximum     Tolerance    Cnvgd?
         Gradient           0.000303      0.000300      NO
         Displacement       0.004595      0.001200      NO
         Energy change     -0.000123      0.000001      NO


 New Cartesian Coordinates Obtained by Inverse Iteration

 Displacement from previous Coordinates is:  0.014518
 ----------------------------------------------------------------
             Standard Nuclear Orientation (Angstroms)
    I     Atom           X                Y                Z
 ----------------------------------------------------------------
    1      C      -1.7242180149     1.2694977247     0.1551207327
    2      C      -1.0377800937     0.0000000000    -0.3642348236
    3      Se      0.8373824560     0.0000000000    -0.0580228301
    4      H       0.7454850968     0.0000000000     1.4164729711
    5      C      -1.7242180150    -1.2694977247     0.1551207327
    6      H      -1.2628317703     2.1710682777    -0.2550251590
    7      H      -2.7868761174     1.2686631615    -0.1164629469
    8      H      -1.6611037517     1.3269920915     1.2476515552
    9      H      -1.0968281504     0.0000000000    -1.4602836813
   10      H      -2.7868761174    -1.2686631615    -0.1164629469
   11      H      -1.2628317703    -2.1710682777    -0.2550251590
   12      H      -1.6611037517    -1.3269920915     1.2476515552
 ----------------------------------------------------------------
 Nuclear Repulsion Energy =   264.2014943882 hartrees
 There are       30 alpha and       30 beta electrons

                       Distance Matrix (Angstroms)
             C (  1)   C (  2)   Se(  3)   H (  4)   C (  5)   H (  6)
   C (  2)  1.533803
   Se(  3)  2.866854  1.900000
   H (  4)  3.049929  2.520110  1.477357
   C (  5)  2.538995  1.533803  2.866854  3.049929
   H (  6)  1.092669  2.185432  3.027086  3.397172  3.495510
   H (  7)  1.096814  2.174910  3.840335  4.054254  2.765006  1.776583
   H (  8)  1.095862  2.178903  3.115787  2.753376  2.817688  1.768933
   H (  9)  2.148202  1.097638  2.389039  3.416116  2.148202  2.488723
   H ( 10)  2.765006  2.174910  3.840335  4.054254  1.096814  3.764793
   H ( 11)  3.495510  2.185432  3.027086  3.397172  1.092669  4.342137
   H ( 12)  2.817688  2.178903  3.115787  2.753376  1.095862  3.827935
             H (  7)   H (  8)   H (  9)   H ( 10)   H ( 11)
   H (  8)  1.769625
   H (  9)  2.504321  3.067935
   H ( 10)  2.537326  3.140955  2.504321
   H ( 11)  3.764793  3.827935  2.488723  1.776583
   H ( 12)  3.140955  2.653984  3.067935  1.769625  1.768933
 
 Applying Cartesian multipole field
    Component          Value
    ---------          -----
     (2,0,0)        1.00000E-11
     (0,2,0)        2.00000E-11
     (0,0,2)       -3.00000E-11
 Nucleus-field energy     =     0.0000000049 hartrees
 Requested basis set is 6-31G(d,p)
 There are 44 shells and 120 basis functions
 A cutoff of  1.0D-14 yielded    969 shell pairs
 There are      7299 function pairs
 Smallest overlap matrix eigenvalue = 6.75E-04
 Guess from superposition of atomic densities
 Warning:  Energy on first SCF cycle will be non-variational
 SAD guess density has 59.968191 electrons

 -----------------------------------------------------------------------
  General SCF calculation program by
  Eric Jon Sundstrom, Paul Horn, Yuezhi Mao, Dmitri Zuev, Alec White,
  David Stuck, Shaama M.S., Shane Yost, Joonho Lee, David Small,
  Daniel Levine, Susi Lehtola, Hugh Burton, Evgeny Epifanovsky
 -----------------------------------------------------------------------
 Exchange:     0.2000 Hartree-Fock + 0.0800 Slater + 0.7200 B88
 Correlation:  0.1900 VWN1RPA + 0.8100 LYP
 Using SG-1 standard quadrature grid
 using 12 threads for integral computing
 -------------------------------------------------------
 OpenMP Integral computing Module                
 Release: version 1.0, May 2013, Q-Chem Inc. Pittsburgh 
 -------------------------------------------------------
 -------------------------------------------------------
 OpenMP BLAS3 based DFT computing Module                
 Release: version 1.0, May 2013, Q-Chem Inc. Pittsburgh 
 -------------------------------------------------------
 A unrestricted SCF calculation will be
 performed using DIIS
 SCF converges when DIIS error is below 1.0e-06
 Alpha HF Exchange    Energy = -10.37332587466185
 Beta HF Exchange     Energy = -10.37332587466185
 DFT Correlation      Energy =  -3.09338635439458
 DFT Exchange         Energy = -82.04783416303583
 One-Electron (alpha) Energy = -2011.33072396866419
 One-Electron (beta)  Energy = -2011.33072396866419
 Total Coulomb        Energy = 1340.86939693847148
 ---------------------------------------
  Cycle       Energy         DIIS error
 ---------------------------------------
    1   -2523.4784288725      1.39e-01  
 Alpha HF Exchange    Energy = -10.42591704781709
 Beta HF Exchange     Energy = -10.42591704781708
 DFT Correlation      Energy =  -3.13598561444780
 DFT Exchange         Energy = -82.96025273434049
 One-Electron (alpha) Energy = -2018.58807841470798
 One-Electron (beta)  Energy = -2018.58807841470662
 Total Coulomb        Energy = 1359.60286885985511
    2   -2520.3198660209      8.92e-03  
 Alpha HF Exchange    Energy = -10.32563793351253
 Beta HF Exchange     Energy = -10.32563793351254
 DFT Correlation      Energy =  -3.09806905393094
 DFT Exchange         Energy = -82.14231936382190
 One-Electron (alpha) Energy = -2008.75550425505935
 One-Electron (beta)  Energy = -2008.75550425506026
 Total Coulomb        Energy = 1338.89812237443175
    3   -2520.3030560274      4.57e-03  
 Alpha HF Exchange    Energy = -10.40431429170748
 Beta HF Exchange     Energy = -10.40431429170747
 DFT Correlation      Energy =  -3.12843941731508
 DFT Exchange         Energy = -82.78093091688196
 One-Electron (alpha) Energy = -2016.33386873978316
 One-Electron (beta)  Energy = -2016.33386873978225
 Total Coulomb        Energy = 1354.79358132049811
    4   -2520.3906606836      2.76e-03  
 Alpha HF Exchange    Energy = -10.37889617565972
 Beta HF Exchange     Energy = -10.37889617565971
 DFT Correlation      Energy =  -3.11795063511250
 DFT Exchange         Energy = -82.57223115229711
 One-Electron (alpha) Energy = -2014.17865858766436
 One-Electron (beta)  Energy = -2014.17865858766322
 Total Coulomb        Energy = 1350.16435109601207
    5   -2520.4394458250      6.14e-04  
 Alpha HF Exchange    Energy = -10.37700710123630
 Beta HF Exchange     Energy = -10.37700710123629
 DFT Correlation      Energy =  -3.11798297934731
 DFT Exchange         Energy = -82.55886506379507
 One-Electron (alpha) Energy = -2013.90456933385349
 One-Electron (beta)  Energy = -2013.90456933385371
 Total Coulomb        Energy = 1349.59646239912581
    6   -2520.4420441211      7.19e-05  
 Alpha HF Exchange    Energy = -10.37661747145208
 Beta HF Exchange     Energy = -10.37661747145208
 DFT Correlation      Energy =  -3.11772212243504
 DFT Exchange         Energy = -82.55548719177477
 One-Electron (alpha) Energy = -2013.84601196810263
 One-Electron (beta)  Energy = -2013.84601196810286
 Total Coulomb        Energy = 1349.47489643888048
    7   -2520.4420773614      1.53e-05  
 Alpha HF Exchange    Energy = -10.37670743612197
 Beta HF Exchange     Energy = -10.37670743612196
 DFT Correlation      Energy =  -3.11774494110545
 DFT Exchange         Energy = -82.55618257149149
 One-Electron (alpha) Energy = -2013.86714206122861
 One-Electron (beta)  Energy = -2013.86714206122815
 Total Coulomb        Energy = 1349.51805274967819
    8   -2520.4420793645      7.56e-06  
 Alpha HF Exchange    Energy = -10.37669198729467
 Beta HF Exchange     Energy = -10.37669198729468
 DFT Correlation      Energy =  -3.11774821621143
 DFT Exchange         Energy = -82.55607561155935
 One-Electron (alpha) Energy = -2013.86302238653752
 One-Electron (beta)  Energy = -2013.86302238653889
 Total Coulomb        Energy = 1349.50967848021946
    9   -2520.4420797021      6.76e-07  Convergence criterion met
 ---------------------------------------
 SCF time:   CPU 28.68s  wall 2.00s 
<S^2> =         -0.000000000
 Alpha HF Exchange    Energy = -10.37669198729467
 Beta HF Exchange     Energy = -10.37669198729468
 DFT Correlation      Energy =  -3.11774821621143
 DFT Exchange         Energy = -82.55607561155935
 One-Electron (alpha) Energy = -2013.86302238653752
 One-Electron (beta)  Energy = -2013.86302238653889
 Total Coulomb        Energy = 1349.50967848021946
 Nuclear repulsion Energy = 264.20149439308483
 SCF   energy in the final basis set =    -2520.4420797021
 Total energy in the final basis set =    -2520.4420797021
 
 --------------------------------------------------------------
 
                    Orbital Energies (a.u.)
 --------------------------------------------------------------
 
 Alpha MOs
 -- Occupied --
******* -58.083 -52.140 -52.139 -52.137 -10.223 -10.184 -10.184
 -7.817  -5.763  -5.758  -5.749  -2.096  -2.095  -2.088  -2.084
 -2.083  -0.812  -0.691  -0.690  -0.575  -0.461  -0.440  -0.416
 -0.391  -0.380  -0.352  -0.341  -0.307  -0.221
 -- Virtual --
  0.015   0.064   0.091   0.129   0.148   0.152   0.168   0.180
  0.187   0.199   0.225   0.243   0.285   0.331   0.334   0.466
  0.466   0.497   0.507   0.569   0.586   0.664   0.676   0.686
  0.716   0.759   0.760   0.808   0.837   0.867   0.868   0.902
  0.909   0.927   0.951   0.956   1.052   1.100   1.323   1.390
  1.398   1.498   1.550   1.677   1.759   1.787   1.823   1.858
  1.897   2.040   2.041   2.061   2.072   2.084   2.099   2.103
  2.113   2.134   2.277   2.317   2.350   2.376   2.525   2.556
  2.601   2.650   2.657   2.707   2.726   2.864   2.867   2.893
  2.907   3.169   3.218   3.310   3.416   3.449   3.460   3.502
  4.241   4.287   4.359   4.360   4.413   4.485   4.516   4.631
  5.480  89.794
 
 Beta MOs
 -- Occupied --
******* -58.083 -52.140 -52.139 -52.137 -10.223 -10.184 -10.184
 -7.817  -5.763  -5.758  -5.749  -2.096  -2.095  -2.088  -2.084
 -2.083  -0.812  -0.691  -0.690  -0.575  -0.461  -0.440  -0.416
 -0.391  -0.380  -0.352  -0.341  -0.307  -0.221
 -- Virtual --
  0.015   0.064   0.091   0.129   0.148   0.152   0.168   0.180
  0.187   0.199   0.225   0.243   0.285   0.331   0.334   0.466
  0.466   0.497   0.507   0.569   0.586   0.664   0.676   0.686
  0.716   0.759   0.760   0.808   0.837   0.867   0.868   0.902
  0.909   0.927   0.951   0.956   1.052   1.100   1.323   1.390
  1.398   1.498   1.550   1.677   1.759   1.787   1.823   1.858
  1.897   2.040   2.041   2.061   2.072   2.084   2.099   2.103
  2.113   2.134   2.277   2.317   2.350   2.376   2.525   2.556
  2.601   2.650   2.657   2.707   2.726   2.864   2.867   2.893
  2.907   3.169   3.218   3.310   3.416   3.449   3.460   3.502
  4.241   4.287   4.359   4.360   4.413   4.485   4.516   4.631
  5.480  89.794
 --------------------------------------------------------------
 
          Ground-State Mulliken Net Atomic Charges

     Atom                 Charge (a.u.)    Spin (a.u.)
  --------------------------------------------------------
      1 C                    -0.301479       0.000000
      2 C                    -0.142128      -0.000000
      3 Se                   -0.089864      -0.000000
      4 H                     0.046929       0.000000
      5 C                    -0.301479      -0.000000
      6 H                     0.122454       0.000000
      7 H                     0.102405       0.000000
      8 H                     0.106874       0.000000
      9 H                     0.124555       0.000000
     10 H                     0.102405       0.000000
     11 H                     0.122454      -0.000000
     12 H                     0.106874       0.000000
  --------------------------------------------------------
  Sum of atomic charges =    -0.000000
  Sum of spin   charges =     0.000000

 -----------------------------------------------------------------
                    Cartesian Multipole Moments
 -----------------------------------------------------------------
    Charge (ESU x 10^10)
                 0.0000
    Dipole Moment (Debye)
         X      -1.6249      Y       0.0000      Z       0.3126
       Tot       1.6547
    Quadrupole Moments (Debye-Ang)
        XX     -39.0910     XY       0.0000     YY     -41.0377
        XZ       1.2723     YZ       0.0000     ZZ     -37.0460
    Octopole Moments (Debye-Ang^2)
       XXX      47.4779    XXY       0.0000    XYY      13.8034
       YYY       0.0000    XXZ       0.2408    XYZ       0.0000
       YYZ      -0.6936    XZZ      16.9523    YZZ       0.0000
       ZZZ       0.2200
    Hexadecapole Moments (Debye-Ang^3)
      XXXX    -445.3806   XXXY      -0.0000   XXYY    -117.6706
      XYYY      -0.0000   YYYY    -220.7862   XXXZ      11.6217
      XXYZ      -0.0000   XYYZ       2.8190   YYYZ      -0.0000
      XXZZ     -89.2663   XYZZ      -0.0000   YYZZ     -51.3951
      XZZZ       6.4361   YZZZ      -0.0000   ZZZZ     -76.2302
 -----------------------------------------------------------------
 Calculating analytic gradient of the SCF energy
 Gradient of SCF Energy
            1           2           3           4           5           6
    1   0.0000268   0.0333499  -0.0333630   0.0000298   0.0000268  -0.0000048
    2  -0.0001174   0.0000000  -0.0000000  -0.0000000   0.0001174   0.0000314
    3  -0.0000703   0.0054576  -0.0053594  -0.0001053  -0.0000703   0.0000264
            7           8           9          10          11          12
    1  -0.0000041   0.0000002  -0.0000529  -0.0000041  -0.0000048   0.0000002
    2   0.0000134   0.0000069  -0.0000000  -0.0000134  -0.0000314  -0.0000069
    3   0.0000232   0.0000291  -0.0000097   0.0000232   0.0000264   0.0000291
 Max gradient component =       3.336E-02
 RMS gradient           =       7.965E-03
 Gradient time:  CPU 12.20 s  wall 1.14 s
 Geometry Optimization Parameters
   NAtoms,    NIC,     NZ,  NCons,   NDum,   NFix, NCnnct, MaxDiis
       12      75       0       1       0       0       0       0

 Cartesian Hessian Update
 Hessian Updated using BFGS Update


** CONSTRAINED OPTIMIZATION IN DELOCALIZED INTERNAL COORDINATES **
   Searching for a Minimum

   Optimization Cycle:   5

                       Coordinates (Angstroms)
     ATOM                X               Y               Z
      1  C        -1.7242180149    1.2694977247    0.1551207327
      2  C        -1.0377800937    0.0000000000   -0.3642348236
      3  Se        0.8373824560    0.0000000000   -0.0580228301
      4  H         0.7454850968    0.0000000000    1.4164729711
      5  C        -1.7242180150   -1.2694977247    0.1551207327
      6  H        -1.2628317703    2.1710682777   -0.2550251590
      7  H        -2.7868761174    1.2686631615   -0.1164629469
      8  H        -1.6611037517    1.3269920915    1.2476515552
      9  H        -1.0968281504    0.0000000000   -1.4602836813
     10  H        -2.7868761174   -1.2686631615   -0.1164629469
     11  H        -1.2628317703   -2.1710682777   -0.2550251590
     12  H        -1.6611037517   -1.3269920915    1.2476515552
   Point Group: c1    Number of degrees of freedom:    30


   Energy is  -2520.442079702

              Constraints and their Current Values
                                        Value     Constraint
   Distance(Angs):        2   3             1.900000     1.900000
 Hessian Updated using BFGS Update

 16 Hessian modes will be used to form the next step
  Hessian Eigenvalues:
     0.037951    0.045389    0.077616    0.084577    0.085055    0.151116
     0.158768    0.161779    0.171302    0.178969    0.204234    0.298599
     0.346114    0.347198    0.348310    0.350001

 Minimum Search - Taking Simple RFO Step
 Searching for Lamda that Minimizes Along All modes
 Value Taken    Lamda =   0.00000000
 Step Taken.  Stepsize is  0.001528

                             Maximum     Tolerance    Cnvgd?
         Gradient           0.000131      0.000300     YES
         Displacement       0.000972      0.001200     YES
         Energy change     -0.000002      0.000001      NO


                       Distance Matrix (Angstroms)
             C (  1)   C (  2)   Se(  3)   H (  4)   C (  5)   H (  6)
   C (  2)  1.533803
   Se(  3)  2.866854  1.900000
   H (  4)  3.049929  2.520110  1.477357
   C (  5)  2.538995  1.533803  2.866854  3.049929
   H (  6)  1.092669  2.185432  3.027086  3.397172  3.495510
   H (  7)  1.096814  2.174910  3.840335  4.054254  2.765006  1.776583
   H (  8)  1.095862  2.178903  3.115787  2.753376  2.817688  1.768933
   H (  9)  2.148202  1.097638  2.389039  3.416116  2.148202  2.488723
   H ( 10)  2.765006  2.174910  3.840335  4.054254  1.096814  3.764793
   H ( 11)  3.495510  2.185432  3.027086  3.397172  1.092669  4.342137
   H ( 12)  2.817688  2.178903  3.115787  2.753376  1.095862  3.827935
             H (  7)   H (  8)   H (  9)   H ( 10)   H ( 11)
   H (  8)  1.769625
   H (  9)  2.504321  3.067935
   H ( 10)  2.537326  3.140955  2.504321
   H ( 11)  3.764793  3.827935  2.488723  1.776583
   H ( 12)  3.140955  2.653984  3.067935  1.769625  1.768933
 
 Final energy is   -2520.44207970213     


 ******************************
 **  OPTIMIZATION CONVERGED  **
 ******************************

                       Coordinates (Angstroms)
     ATOM                X               Y               Z
      1  C        -1.7242180149    1.2694977247    0.1551207327
      2  C        -1.0377800937    0.0000000000   -0.3642348236
      3  Se        0.8373824560    0.0000000000   -0.0580228301
      4  H         0.7454850968    0.0000000000    1.4164729711
      5  C        -1.7242180150   -1.2694977247    0.1551207327
      6  H        -1.2628317703    2.1710682777   -0.2550251590
      7  H        -2.7868761174    1.2686631615   -0.1164629469
      8  H        -1.6611037517    1.3269920915    1.2476515552
      9  H        -1.0968281504    0.0000000000   -1.4602836813
     10  H        -2.7868761174   -1.2686631615   -0.1164629469
     11  H        -1.2628317703   -2.1710682777   -0.2550251590
     12  H        -1.6611037517   -1.3269920915    1.2476515552

Z-matrix Print:
$molecule
0 1
Se
H  1 1.477357
C  1 1.900000 2 95.708153
H  3 1.097638 1 102.358224 2 -180.000000 0
C  3 1.533803 1 112.775302 2 -63.853610 0
H  5 1.092669 3 111.521434 1 -54.486921 0
H  5 1.095862 3 110.807308 1 65.674700 0
H  5 1.096814 3 110.434137 1 -175.172195 0
C  3 1.533803 1 112.775302 2 63.853610 0
H  9 1.092669 3 111.521434 1 54.486921 0
H  9 1.095862 3 110.807308 1 -65.674700 0
H  9 1.096814 3 110.434137 1 175.172195 0
$end

PES scan, value:    1.9000 energy: -2520.4420797021
------- Summary of potential scan: ------ 
    1.9000     -2520.4420797021
----------------------------------------- 
Archival summary:
1\1\hpc0248\JobtypUnspecified\ProcedureUnspecified\6-31G**\e138\knomura\WedMar1314:24:192019WedMar1314:24:192019\0\\#,JobtypUnspecified,ProcedureUnspecified,6-31G**,\\0,1\Se\H,1,1.47736\C,1,1.9,2,95.7082\H,3,1.09764,1,102.358,2,-180,0\C,3,1.5338,1,112.775,2,-63.8536,0\H,5,1.09267,3,111.521,1,-54.4869,0\H,5,1.09586,3,110.807,1,65.6747,0\H,5,1.09681,3,110.434,1,-175.172,0\C,3,1.5338,1,112.775,2,63.8536,0\H,9,1.09267,3,111.521,1,54.4869,0\H,9,1.09586,3,110.807,1,-65.6747,0\H,9,1.09681,3,110.434,1,175.172,0\\\@

 Total job time:  20.84s(wall), 233.09s(cpu) 
 Wed Mar 13 14:24:19 2019

        *************************************************************
        *                                                           *
        *  Thank you very much for using Q-Chem.  Have a nice day.  *
        *                                                           *
        *************************************************************


