
Running Job 1 of 1 selenium/01/C-Se.xyz.data/inputs/bond_triplet_5.0.in
qchem selenium/01/C-Se.xyz.data/inputs/bond_triplet_5.0.in_20545.0 /staging/scratch/2868765/qchem20545/ 1
/usr/usc/qchem/5.1.1/exe/qcprog.exe_s selenium/01/C-Se.xyz.data/inputs/bond_triplet_5.0.in_20545.0 /staging/scratch/2868765/qchem20545/
Check license passed

                  Welcome to Q-Chem
     A Quantum Leap Into The Future Of Chemistry


 Q-Chem 5.1, Q-Chem, Inc., Pleasanton, CA (2018)

 Yihan Shao,  Zhengting Gan,  E. Epifanovsky,  A. T. B. Gilbert,  M. Wormit,  
 J. Kussmann,  A. W. Lange,  A. Behn,  Jia Deng,  Xintian Feng,  D. Ghosh,  
 M. Goldey,  P. R. Horn,  L. D. Jacobson,  I. Kaliman,  T. Kus,  A. Landau,  
 Jie Liu,  E. I. Proynov,  R. M. Richard,  R. P. Steele,  E. J. Sundstrom,  
 H. L. Woodcock III,  P. M. Zimmerman,  D. Zuev,  B. Albrecht,  E. Alguire,  
 S. A. Baeppler,  D. Barton,  Z. Benda,  Y. A. Bernard,  E. J. Berquist,  
 K. B. Bravaya,  H. Burton,  D. Casanova,  Chun-Min Chang,  Yunqing Chen,  
 A. Chien,  K. D. Closser,  M. P. Coons,  S. Coriani,  S. Dasgupta,  
 A. L. Dempwolff,  M. Diedenhofen,  Hainam Do,  R. G. Edgar,  Po-Tung Fang,  
 S. Faraji,  S. Fatehi,  Qingguo Feng,  K. D. Fenk,  J. Fosso-Tande,  
 Qinghui Ge,  A. Ghysels,  G. Gidofalvi,  J. Gomes,  J. Gonthier,  A. Gunina,  
 D. Hait,  M. W. D. Hanson-Heine,  P. H. P. Harbach,  A. W. Hauser,  
 J. E. Herr,  E. G. Hohenstein,  Z. C. Holden,  Kerwin Hui,  B. C. Huynh,  
 T.-C. Jagau,  Hyunjun Ji,  B. Kaduk,  K. Khistyaev,  Jaehoon Kim,  
 P. Klunzinger,  K. Koh,  D. Kosenkov,  L. Koulias,  T. Kowalczyk,  
 C. M. Krauter,  A. Kunitsa,  Ka Un Lao,  A. Laurent,  K. V. Lawler,  
 Joonho Lee,  D. Lefrancois,  S. Lehtola,  D. S. Levine,  Yi-Pei Li,  
 You-Sheng Lin,  Fenglai Liu,  E. Livshits,  A. Luenser,  P. Manohar,  
 E. Mansoor,  S. F. Manzer,  Shan-Ping Mao,  Yuezhi Mao,  N. Mardirossian,  
 A. V. Marenich,  T. Markovich,  L. A. Martinez-Martinez,  S. A. Maurer,  
 N. J. Mayhall,  S. C. McKenzie,  J.-M. Mewes,  A. F. Morrison,  
 J. W. Mullinax,  K. Nanda,  T. S. Nguyen-Beck,  R. Olivares-Amaya,  
 J. A. Parkhill,  T. M. Perrine,  F. Plasser,  P. Pokhilko,  S. Prager,  
 A. Prociuk,  E. Ramos,  D. R. Rehn,  F. Rob,  M. Schneider,  N. Sergueev,  
 S. M. Sharada,  S. Sharma,  D. W. Small,  T. Stauch,  T. Stein,  
 Yu-Chuan Su,  A. J. W. Thom,  A. Tkatchenko,  T. Tsuchimochi,  N. M. Tubman,  
 L. Vogt,  M. L. Vidal,  O. Vydrov,  M. A. Watson,  J. Wenzel,  
 M. de Wergifosse,  T. A. Wesolowski,  A. White,  J. Witte,  A. Yamada,  
 Jun Yang,  K. Yao,  S. Yeganeh,  S. R. Yost,  Zhi-Qiang You,  A. Zech,  
 Igor Ying Zhang,  Xing Zhang,  Yan Zhao,  Ying Zhu,  B. R. Brooks,  
 G. K. L. Chan,  C. J. Cramer,  M. S. Gordon,  W. J. Hehre,  A. Klamt,  
 M. W. Schmidt,  C. D. Sherrill,  D. G. Truhlar,  A. Aspuru-Guzik,  R. Baer,  
 A. T. Bell,  N. A. Besley,  Jeng-Da Chai,  A. E. DePrince, III,  
 R. A. DiStasio Jr.,  A. Dreuw,  B. D. Dunietz,  T. R. Furlani,  
 Chao-Ping Hsu,  Yousung Jung,  Jing Kong,  D. S. Lambrecht,  WanZhen Liang,  
 C. Ochsenfeld,  V. A. Rassolov,  L. V. Slipchenko,  J. E. Subotnik,  
 T. Van Voorhis,  J. M. Herbert,  A. I. Krylov,  P. M. W. Gill,  M. Head-Gordon

 Contributors to earlier versions of Q-Chem not listed above: 
 R. D. Adamson,  B. Austin,  J. Baker,  G. J. O. Beran,  K. Brandhorst,  
 S. T. Brown,  E. F. C. Byrd,  A. K. Chakraborty,  C.-L. Cheng,  
 Siu Hung Chien,  D. M. Chipman,  D. L. Crittenden,  H. Dachsel,  
 R. J. Doerksen,  A. D. Dutoi,  L. Fusti-Molnar,  W. A. Goddard III,  
 A. Golubeva-Zadorozhnaya,  S. R. Gwaltney,  G. Hawkins,  A. Heyden,  
 S. Hirata,  G. Kedziora,  F. J. Keil,  C. Kelley,  Jihan Kim,  R. A. King,  
 R. Z. Khaliullin,  P. P. Korambath,  W. Kurlancheek,  A. M. Lee,  M. S. Lee,  
 S. V. Levchenko,  Ching Yeh Lin,  D. Liotard,  R. C. Lochan,  I. Lotan,  
 P. E. Maslen,  N. Nair,  D. P. O'Neill,  D. Neuhauser,  E. Neuscamman,  
 C. M. Oana,  R. Olson,  B. Peters,  R. Peverati,  P. A. Pieniazek,  
 Y. M. Rhee,  J. Ritchie,  M. A. Rohrdanz,  E. Rosta,  N. J. Russ,  
 H. F. Schaefer III,  N. E. Schultz,  N. Shenvi,  A. C. Simmonett,  A. Sodt,  
 D. Stuck,  K. S. Thanthiriwatte,  V. Vanovschi,  Tao Wang,  A. Warshel,  
 C. F. Williams,  Q. Wu,  X. Xu,  W. Zhang

 Please cite Q-Chem as follows:
 Y. Shao et al., Mol. Phys. 113, 184-215 (2015)
 DOI: 10.1080/00268976.2014.952696

 Q-Chem 5.1.1 for Intel X86 EM64T Linux

 Parts of Q-Chem use Armadillo 8.300.2 (Tropical Shenanigans).
 http://arma.sourceforge.net/

 Q-Chem begins on Wed Mar 13 15:28:48 2019  

Host: 
0

     Scratch files written to /staging/scratch/2868765/qchem20545//
 Aug318 |scratch|qcdevops|jenkins|workspace|build_RNUM 6013   
Processing $rem in /usr/usc/qchem/5.1.1/config/preferences.
 MEM_TOTAL  2000 
Input Ideriv = 2
Curr. Ideriv = -1
Max.  Ideriv = 2

Checking the input file for inconsistencies... 	...done.

--------------------------------------------------------------
User input:
--------------------------------------------------------------

$comment
potential surface scanner
$end

$rem
JOBTYPE  PES_SCAN
UNRESTRICTED TRUE
SYM_IGNORE  TRUE
GEOM_OPT_MAX_CYCLES 400
SCF_MAX_CYCLES 400
METHOD   B3LYP
BASIS   6-31G**
PDB_PRINT 2
SCF_CONVERGENCE 6
THRESH 14
SCF_PRINT 1
$end
$molecule
0 3
C -2.328988 1.299218 0.104102
C -1.635006 0.000000 -0.134231
Se 3.464961 0.000000 -0.115630
H 3.291372 0.000000 1.354353
C -2.328988 -1.299218 0.104102
H -1.632134 2.143421 0.097211
H -3.093816 1.510575 -0.664914
H -2.859069 1.303993 1.066421
H -0.715107 0.000000 -0.713638
H -3.093816 -1.510575 -0.664914
H -1.632134 -2.143421 0.097211
H -2.859069 -1.303993 1.066421
$end
$scan
stre 2 3 5.000000 5.001000 0.100000
$end
--------------------------------------------------------------
 ----------------------------------------------------------------
             Standard Nuclear Orientation (Angstroms)
    I     Atom           X                Y                Z
 ----------------------------------------------------------------
    1      C      -2.3289880000     1.2992180000     0.1041020000
    2      C      -1.6350060000     0.0000000000    -0.1342310000
    3      Se      3.4649610000     0.0000000000    -0.1156300000
    4      H       3.2913720000     0.0000000000     1.3543530000
    5      C      -2.3289880000    -1.2992180000     0.1041020000
    6      H      -1.6321340000     2.1434210000     0.0972110000
    7      H      -3.0938160000     1.5105750000    -0.6649140000
    8      H      -2.8590690000     1.3039930000     1.0664210000
    9      H      -0.7151070000     0.0000000000    -0.7136380000
   10      H      -3.0938160000    -1.5105750000    -0.6649140000
   11      H      -1.6321340000    -2.1434210000     0.0972110000
   12      H      -2.8590690000    -1.3039930000     1.0664210000
 ----------------------------------------------------------------
 Nuclear Repulsion Energy =   168.8209831095 hartrees
 There are       31 alpha and       29 beta electrons
 Requested basis set is 6-31G(d,p)
 There are 44 shells and 120 basis functions

 Total QAlloc Memory Limit   2000 MB
 Mega-Array Size       188 MB
 MEM_STATIC part       192 MB
A total of 1 constraints
  
            1
    1   1.0100000
    2   2.0100000
    3   3.0100000
    4   5.0000000
    5   5.0010000
    6   0.1000000
    7   0.0000000
    8   0.0000000
    9   0.0000000
   10   0.0000000

                       Distance Matrix (Angstroms)
             C (  1)   C (  2)   Se(  3)   H (  4)   C (  5)   H (  6)
   C (  2)  1.492106
   Se(  3)  5.941893  5.100001
   H (  4)  5.902503  5.146366  1.480197
   C (  5)  2.598436  1.492106  5.941893  5.902503
   H (  6)  1.094683  2.155882  5.533528  5.515031  3.512466
   H (  7)  1.104997  2.166007  6.752859  6.865122  3.011857  1.765741
   H (  8)  1.098666  2.154134  6.564373  6.293745  2.825553  1.774648
   H (  9)  2.227393  1.087164  4.222627  4.508709  2.227393  2.468333
   H ( 10)  3.011857  2.166007  6.752859  6.865122  1.104997  4.008620
   H ( 11)  3.512466  2.155882  5.533528  5.515031  1.094683  4.286842
   H ( 12)  2.825553  2.154134  6.564373  6.293745  1.098666  3.785420
             H (  7)   H (  8)   H (  9)   H ( 10)   H ( 11)
   H (  8)  1.759347
   H (  9)  2.818238  3.076618
   H ( 10)  3.021150  3.312766  2.818238
   H ( 11)  4.008620  3.785420  2.468333  1.765741
   H ( 12)  3.312766  2.607986  3.076618  1.759347  1.774648
 
 A cutoff of  1.0D-14 yielded    812 shell pairs
 There are      5672 function pairs
 
 -------------------------------------------------------
 OpenMP Integral Computing Module                       
 Release: version 1.0, May 2013, Q-Chem Inc. Pittsburgh 
 -------------------------------------------------------
 Integral Job Info:
 Integral job number is                      11
 Integral operator is                         1
 short-range coefficients                     0
 long-range coefficients              100000000
 Omega coefficients                           0
 if combine SR and LR in K                    0
 Integral screening is                        0
 Integral computing path is                   2
 max size of driver memory is            800000
 size of driver memory is                593474
 size of scratch memory is             15267112
 max col of scratch BK array               1296
 max len of scratch array in speh3          155
 max len of scratch index in speh4           18
 max int batch size is                      520
 min int batch size is                       52
 fixed nKL is                                52
 max L of basis functions is                  2
 order of int derivative is                   0
 number of shells is                         44
 number of basis is                         120
 number of cartesian basis is               120
 number of contracted shell pairs           812
 number of primitive shell pairs           2983
 maxK2 (contraction) of shell pair           36
 max number of K2 of shell pair               1
 max number of CS2 of shell pair             76
 max number of PS2 of shell pair            228
 mem total for path MDJ                  514202
 -------------------------------------------------------
 Smallest overlap matrix eigenvalue = 6.79E-04

 Scale SEOQF with 1.000000e-01/1.000000e-01/1.000000e+00

 Standard Electronic Orientation quadrupole field applied
 Nucleus-field energy     =     0.0000000154 hartrees
 Guess from superposition of atomic densities
 Warning:  Energy on first SCF cycle will be non-variational
 SAD guess density has 59.968191 electrons

 -----------------------------------------------------------------------
  General SCF calculation program by
  Eric Jon Sundstrom, Paul Horn, Yuezhi Mao, Dmitri Zuev, Alec White,
  David Stuck, Shaama M.S., Shane Yost, Joonho Lee, David Small,
  Daniel Levine, Susi Lehtola, Hugh Burton, Evgeny Epifanovsky
 -----------------------------------------------------------------------
 Exchange:     0.2000 Hartree-Fock + 0.0800 Slater + 0.7200 B88
 Correlation:  0.1900 VWN1RPA + 0.8100 LYP
 Using SG-1 standard quadrature grid
 using 12 threads for integral computing
 -------------------------------------------------------
 OpenMP Integral computing Module                
 Release: version 1.0, May 2013, Q-Chem Inc. Pittsburgh 
 -------------------------------------------------------
 -------------------------------------------------------
 OpenMP BLAS3 based DFT computing Module                
 Release: version 1.0, May 2013, Q-Chem Inc. Pittsburgh 
 -------------------------------------------------------
 A unrestricted SCF calculation will be
 performed using DIIS
 SCF converges when DIIS error is below 1.0e-06
 Alpha HF Exchange    Energy = -10.33248196366226
 Beta HF Exchange     Energy = -10.33248196366226
 DFT Correlation      Energy =  -3.07032775637899
 DFT Exchange         Energy = -81.97272231365105
 One-Electron (alpha) Energy = -1916.06600241080287
 One-Electron (beta)  Energy = -1916.06600241080287
 Total Coulomb        Energy = 1246.05970068697434
 ---------------------------------------
  Cycle       Energy         DIIS error
 ---------------------------------------
    1   -2522.9593350071      1.38e-01  
 Alpha HF Exchange    Energy = -10.51106948914934
 Beta HF Exchange     Energy = -10.32704261217267
 DFT Correlation      Energy =  -3.10600479622572
 DFT Exchange         Energy = -82.90254676327410
 One-Electron (alpha) Energy = -1938.38048611060299
 One-Electron (beta)  Energy = -1905.99095926547034
 Total Coulomb        Energy = 1262.16774232374883
    2   -2520.2293835883      8.88e-03  
 Alpha HF Exchange    Energy = -10.40883754790587
 Beta HF Exchange     Energy = -10.23780824649286
 DFT Correlation      Energy =  -3.06703058520315
 DFT Exchange         Energy = -82.11907351142882
 One-Electron (alpha) Energy = -1929.89001782269474
 One-Electron (beta)  Energy = -1898.23541379046310
 Total Coulomb        Energy = 1244.91136539126387
    3   -2520.2258329880      4.28e-03  
 Alpha HF Exchange    Energy = -10.48826485227496
 Beta HF Exchange     Energy = -10.30787420534027
 DFT Correlation      Energy =  -3.09595334420145
 DFT Exchange         Energy = -82.72350352367857
 One-Electron (alpha) Energy = -1936.43716653278716
 One-Electron (beta)  Energy = -1904.04791000035243
 Total Coulomb        Energy = 1257.96992501584009
    4   -2520.3097643179      2.45e-03  
 Alpha HF Exchange    Energy = -10.46213919814169
 Beta HF Exchange     Energy = -10.28460281408513
 DFT Correlation      Energy =  -3.08604809981118
 DFT Exchange         Energy = -82.52262253578854
 One-Electron (alpha) Energy = -1934.47846342826369
 One-Electron (beta)  Energy = -1902.22127758796000
 Total Coulomb        Energy = 1253.88561927840760
    5   -2520.3485512608      1.48e-04  
 Alpha HF Exchange    Energy = -10.46071086923000
 Beta HF Exchange     Energy = -10.28329706670420
 DFT Correlation      Energy =  -3.08577806567792
 DFT Exchange         Energy = -82.51227555147361
 One-Electron (alpha) Energy = -1934.29245179344184
 One-Electron (beta)  Energy = -1902.05561734692537
 Total Coulomb        Energy = 1253.52047884294166
    6   -2520.3486687256      5.83e-05  
 Alpha HF Exchange    Energy = -10.46072246367055
 Beta HF Exchange     Energy = -10.28337109270653
 DFT Correlation      Energy =  -3.08563270562871
 DFT Exchange         Energy = -82.51231112444884
 One-Electron (alpha) Energy = -1934.30862001565515
 One-Electron (beta)  Energy = -1902.06545689826339
 Total Coulomb        Energy = 1253.54644393531953
    7   -2520.3486872402      9.72e-06  
 Alpha HF Exchange    Energy = -10.46081737862273
 Beta HF Exchange     Energy = -10.28343456697334
 DFT Correlation      Energy =  -3.08564973663277
 DFT Exchange         Energy = -82.51292621021275
 One-Electron (alpha) Energy = -1934.31971213933934
 One-Electron (beta)  Energy = -1902.07029858106171
 Total Coulomb        Energy = 1253.56316691999177
    8   -2520.3486885680      3.26e-06  
 Alpha HF Exchange    Energy = -10.46081058610171
 Beta HF Exchange     Energy = -10.28344084394099
 DFT Correlation      Energy =  -3.08564147336254
 DFT Exchange         Energy = -82.51291435876033
 One-Electron (alpha) Energy = -1934.31865178166572
 One-Electron (beta)  Energy = -1902.06830474950311
 Total Coulomb        Energy = 1253.56009194376793
    9   -2520.3486887247      1.84e-06  
 Alpha HF Exchange    Energy = -10.46081428197252
 Beta HF Exchange     Energy = -10.28344080905588
 DFT Correlation      Energy =  -3.08564060025400
 DFT Exchange         Energy = -82.51292783914292
 One-Electron (alpha) Energy = -1934.31900084085419
 One-Electron (beta)  Energy = -1902.06845880315427
 Total Coulomb        Energy = 1253.56061129649083
   10   -2520.3486887531      4.79e-07  Convergence criterion met
 ---------------------------------------
 SCF time:   CPU 26.53s  wall 2.00s 
<S^2> =          2.005975965
 Alpha HF Exchange    Energy = -10.46081428197252
 Beta HF Exchange     Energy = -10.28344080905588
 DFT Correlation      Energy =  -3.08564060025400
 DFT Exchange         Energy = -82.51292783914292
 One-Electron (alpha) Energy = -1934.31900084085419
 One-Electron (beta)  Energy = -1902.06845880315427
 Total Coulomb        Energy = 1253.56061129649083
 Nuclear repulsion Energy = 168.82098312488270
 SCF   energy in the final basis set =    -2520.3486887531
 Total energy in the final basis set =    -2520.3486887531
 
 --------------------------------------------------------------
 
                    Orbital Energies (a.u.)
 --------------------------------------------------------------
 
 Alpha MOs
 -- Occupied --
******* -58.118 -52.178 -52.175 -52.172 -10.182 -10.174 -10.174
 -7.852  -5.800  -5.794  -5.782  -2.133  -2.132  -2.122  -2.118
 -2.116  -0.774  -0.712  -0.684  -0.564  -0.444  -0.422  -0.402
 -0.395  -0.379  -0.348  -0.341  -0.300  -0.257  -0.175
 -- Virtual --
  0.015   0.106   0.121   0.147   0.154   0.176   0.183   0.189
  0.193   0.242   0.254   0.257   0.297   0.301   0.491   0.501
  0.516   0.523   0.526   0.527   0.558   0.568   0.590   0.625
  0.651   0.725   0.735   0.749   0.814   0.856   0.859   0.883
  0.894   0.929   0.946   0.955   0.969   1.249   1.299   1.354
  1.361   1.508   1.537   1.686   1.802   1.819   1.865   1.895
  1.981   2.049   2.053   2.058   2.065   2.078   2.108   2.122
  2.140   2.284   2.294   2.380   2.389   2.486   2.544   2.579
  2.592   2.680   2.731   2.769   2.842   2.870   2.913   2.969
  3.156   3.206   3.354   3.427   3.430   3.456   3.534   4.188
  4.203   4.204   4.223   4.245   4.349   4.491   4.564   5.390
 89.561
 
 Beta MOs
 -- Occupied --
******* -58.117 -52.174 -52.173 -52.171 -10.175 -10.175 -10.168
 -7.849  -5.792  -5.791  -5.780  -2.127  -2.127  -2.117  -2.117
 -2.114  -0.756  -0.682  -0.677  -0.542  -0.440  -0.405  -0.396
 -0.384  -0.373  -0.344  -0.336  -0.244
 -- Virtual --
 -0.176  -0.025   0.023   0.108   0.127   0.150   0.160   0.186
  0.188   0.193   0.200   0.247   0.267   0.281   0.304   0.307
  0.503   0.518   0.531   0.534   0.569   0.572   0.577   0.594
  0.595   0.636   0.679   0.734   0.747   0.750   0.831   0.861
  0.864   0.887   0.902   0.934   0.950   0.964   0.975   1.263
  1.308   1.362   1.383   1.524   1.537   1.693   1.825   1.830
  1.892   1.917   2.006   2.054   2.059   2.059   2.062   2.083
  2.113   2.125   2.147   2.287   2.312   2.390   2.393   2.507
  2.562   2.580   2.602   2.685   2.735   2.774   2.849   2.877
  2.921   2.974   3.160   3.212   3.361   3.429   3.433   3.461
  3.540   4.210   4.217   4.217   4.236   4.248   4.355   4.490
  4.576   5.405  89.566
 --------------------------------------------------------------
 
          Ground-State Mulliken Net Atomic Charges

     Atom                 Charge (a.u.)    Spin (a.u.)
  --------------------------------------------------------
      1 C                    -0.333782      -0.079968
      2 C                    -0.075845       1.018636
      3 Se                   -0.075695       1.027845
      4 H                     0.076038      -0.027491
      5 C                    -0.333782      -0.079968
      6 H                     0.108693       0.007039
      7 H                     0.108283       0.063156
      8 H                     0.105830       0.023449
      9 H                     0.097455      -0.046342
     10 H                     0.108283       0.063156
     11 H                     0.108693       0.007039
     12 H                     0.105830       0.023449
  --------------------------------------------------------
  Sum of atomic charges =    -0.000000
  Sum of spin   charges =     2.000000

 -----------------------------------------------------------------
                    Cartesian Multipole Moments
 -----------------------------------------------------------------
    Charge (ESU x 10^10)
                -0.0000
    Dipole Moment (Debye)
         X      -0.1924      Y      -0.0000      Z       0.6016
       Tot       0.6316
    Quadrupole Moments (Debye-Ang)
        XX     -42.0034     XY      -0.0000     YY     -38.3366
        XZ       1.8455     YZ      -0.0000     ZZ     -38.1168
    Octopole Moments (Debye-Ang^2)
       XXX     -93.3392    XXY      -0.0000    XYY     -17.3354
       YYY      -0.0000    XXZ       6.7155    XYZ      -0.0000
       YYZ       0.2708    XZZ     -15.1146    YZZ       0.0000
       ZZZ       2.6975
    Hexadecapole Moments (Debye-Ang^3)
      XXXX   -2203.1370   XXXY      -0.0000   XXYY    -364.9068
      XYYY      -0.0000   YYYY    -226.3898   XXXZ      34.9648
      XXYZ      -0.0000   XYYZ       7.0906   YYYZ      -0.0000
      XXZZ    -323.3869   XYZZ      -0.0000   YYZZ     -50.4057
      XZZZ      19.9875   YZZZ      -0.0000   ZZZZ     -68.1028
 -----------------------------------------------------------------
 Calculating analytic gradient of the SCF energy
 Gradient of SCF Energy
            1           2           3           4           5           6
    1  -0.0000184  -0.0000090   0.0000414   0.0000297  -0.0000184  -0.0000010
    2   0.0000013   0.0000000  -0.0000000   0.0000000  -0.0000013   0.0000006
    3  -0.0000152   0.0001771   0.0000247   0.0000271  -0.0000152   0.0000031
            7           8           9          10          11          12
    1   0.0000060  -0.0000041  -0.0000273   0.0000060  -0.0000010  -0.0000041
    2   0.0000011  -0.0000038   0.0000000  -0.0000011  -0.0000006   0.0000038
    3  -0.0000087  -0.0000069  -0.0001737  -0.0000087   0.0000031  -0.0000069
 Max gradient component =       1.771E-04
 RMS gradient           =       4.341E-05
 Gradient time:  CPU 8.96 s  wall 0.75 s
 Geometry Optimization Parameters
   NAtoms,    NIC,     NZ,  NCons,   NDum,   NFix, NCnnct, MaxDiis
       12      74       0       1       0       0       0       0


** CONSTRAINED OPTIMIZATION IN DELOCALIZED INTERNAL COORDINATES **
   Searching for a Minimum

   Optimization Cycle:   1

                       Coordinates (Angstroms)
     ATOM                X               Y               Z
      1  C        -2.3289880000    1.2992180000    0.1041020000
      2  C        -1.6350060000    0.0000000000   -0.1342310000
      3  Se        3.4649610000    0.0000000000   -0.1156300000
      4  H         3.2913720000    0.0000000000    1.3543530000
      5  C        -2.3289880000   -1.2992180000    0.1041020000
      6  H        -1.6321340000    2.1434210000    0.0972110000
      7  H        -3.0938160000    1.5105750000   -0.6649140000
      8  H        -2.8590690000    1.3039930000    1.0664210000
      9  H        -0.7151070000    0.0000000000   -0.7136380000
     10  H        -3.0938160000   -1.5105750000   -0.6649140000
     11  H        -1.6321340000   -2.1434210000    0.0972110000
     12  H        -2.8590690000   -1.3039930000    1.0664210000
   Point Group: c1    Number of degrees of freedom:    30


   Energy is  -2520.348688753

              Constraints and their Current Values
                                        Value     Constraint
   Distance(Angs):        2   3             5.100001     5.000000

 Attempting to Generate Delocalized Internal Coordinates

   Using Lagrange Multiplier Algorithm


 22 Hessian modes will be used to form the next step
  Hessian Eigenvalues:
    -0.998379    0.028065    0.045000    0.045000    0.045000    0.045591
     0.092108    0.092837    0.099436    0.160000    0.160000    0.160000
     0.160000    0.160000    0.176837    0.215673    0.270886    0.331355
     0.332198    0.338301    0.342770    1.001623

 Minimum Search - Taking P-RFO Step
 Searching for Lamda that Maximizes Along the Constraint modes Only
 Value Taken    Lamda =   0.01759551
 Searching for Lamda that Minimizes Along All other modes
 Value Taken    Lamda =  -0.01750017
 Step Taken.  Stepsize is  0.185720

                             Maximum     Tolerance    Cnvgd?
         Gradient            0.188974       0.000300      NO
         Displacement        0.185715       0.001200      NO
         Energy change     *********       0.000001      NO


 New Cartesian Coordinates Obtained by Inverse Iteration

 Displacement from previous Coordinates is:  0.315655
 ----------------------------------------------------------------
             Standard Nuclear Orientation (Angstroms)
    I     Atom           X                Y                Z
 ----------------------------------------------------------------
    1      C      -2.3073270831     1.2992414805     0.1016603702
    2      C      -1.6217982822     0.0000000000    -0.1598410298
    3      Se      3.3795164925     0.0000000000    -0.0958169782
    4      H       3.2159852985     0.0000000000     1.3737410730
    5      C      -2.3073270831    -1.2992414805     0.1016603702
    6      H      -1.6110342420     2.1433944597     0.0714171717
    7      H      -3.0975139773     1.5106736128    -0.6412516226
    8      H      -2.8048306617     1.3040400696     1.0812219148
    9      H      -0.7540855808     0.0000000000    -0.7476847333
   10      H      -3.0975139773    -1.5106736128    -0.6412516226
   11      H      -1.6110342420    -2.1433944597     0.0714171717
   12      H      -2.8048306617    -1.3040400696     1.0812219148
 ----------------------------------------------------------------
 Nuclear Repulsion Energy =   170.4347727186 hartrees
 There are       31 alpha and       29 beta electrons

                       Distance Matrix (Angstroms)
             C (  1)   C (  2)   Se(  3)   H (  4)   C (  5)   H (  6)
   C (  2)  1.492100
   Se(  3)  5.836713  5.001725
   H (  4)  5.814912  5.075039  1.478629
   C (  5)  2.598483  1.492100  5.836713  5.814912
   H (  6)  1.094684  2.155861  5.433940  5.439697  3.512475
   H (  7)  1.104996  2.166017  6.673197  6.797250  3.011966  1.765745
   H (  8)  1.098669  2.154141  6.429004  6.167359  2.825619  1.774647
   H (  9)  2.195900  1.048087  4.184686  4.501323  2.195900  2.449373
   H ( 10)  3.011966  2.166017  6.673197  6.797250  1.104996  4.008707
   H ( 11)  3.512475  2.155861  5.433940  5.439697  1.094684  4.286789
   H ( 12)  2.825619  2.154141  6.429004  6.167359  1.098669  3.785454
             H (  7)   H (  8)   H (  9)   H ( 10)   H ( 11)
   H (  8)  1.759340
   H (  9)  2.790183  3.041542
   H ( 10)  3.021347  3.312883  2.790183
   H ( 11)  4.008707  3.785454  2.449373  1.765745
   H ( 12)  3.312883  2.608080  3.041542  1.759340  1.774647
 
 Applying Cartesian multipole field
    Component          Value
    ---------          -----
     (2,0,0)        1.00000E-11
     (0,2,0)        2.00000E-11
     (0,0,2)       -3.00000E-10
 Nucleus-field energy     =     0.0000000146 hartrees
 Requested basis set is 6-31G(d,p)
 There are 44 shells and 120 basis functions
 A cutoff of  1.0D-14 yielded    817 shell pairs
 There are      5710 function pairs
 Smallest overlap matrix eigenvalue = 6.79E-04
 Guess from superposition of atomic densities
 Warning:  Energy on first SCF cycle will be non-variational
 SAD guess density has 59.968191 electrons

 -----------------------------------------------------------------------
  General SCF calculation program by
  Eric Jon Sundstrom, Paul Horn, Yuezhi Mao, Dmitri Zuev, Alec White,
  David Stuck, Shaama M.S., Shane Yost, Joonho Lee, David Small,
  Daniel Levine, Susi Lehtola, Hugh Burton, Evgeny Epifanovsky
 -----------------------------------------------------------------------
 Exchange:     0.2000 Hartree-Fock + 0.0800 Slater + 0.7200 B88
 Correlation:  0.1900 VWN1RPA + 0.8100 LYP
 Using SG-1 standard quadrature grid
 using 12 threads for integral computing
 -------------------------------------------------------
 OpenMP Integral computing Module                
 Release: version 1.0, May 2013, Q-Chem Inc. Pittsburgh 
 -------------------------------------------------------
 -------------------------------------------------------
 OpenMP BLAS3 based DFT computing Module                
 Release: version 1.0, May 2013, Q-Chem Inc. Pittsburgh 
 -------------------------------------------------------
 A unrestricted SCF calculation will be
 performed using DIIS
 SCF converges when DIIS error is below 1.0e-06
 Alpha HF Exchange    Energy = -10.33491973214418
 Beta HF Exchange     Energy = -10.33491973214418
 DFT Correlation      Energy =  -3.07086796121762
 DFT Exchange         Energy = -81.97810379932659
 One-Electron (alpha) Energy = -1917.65612891844285
 One-Electron (beta)  Energy = -1917.65612891844285
 Total Coulomb        Energy = 1247.61877909201621
 ---------------------------------------
  Cycle       Energy         DIIS error
 ---------------------------------------
    1   -2522.9775172366      1.38e-01  
 Alpha HF Exchange    Energy = -10.51312448774740
 Beta HF Exchange     Energy = -10.32874013015301
 DFT Correlation      Energy =  -3.10677297258226
 DFT Exchange         Energy = -82.91627852000512
 One-Electron (alpha) Energy = -1940.06971504667786
 One-Electron (beta)  Energy = -1907.55291794403433
 Total Coulomb        Energy = 1263.82513010785806
    2   -2520.2276462602      8.89e-03  
 Alpha HF Exchange    Energy = -10.41028579337331
 Beta HF Exchange     Energy = -10.23941410808510
 DFT Correlation      Energy =  -3.06778027837393
 DFT Exchange         Energy = -82.12999861436691
 One-Electron (alpha) Energy = -1931.55021075377522
 One-Electron (beta)  Energy = -1899.77744102918064
 Total Coulomb        Energy = 1246.51513261492937
    3   -2520.2252252291      4.27e-03  
 Alpha HF Exchange    Energy = -10.48976866090883
 Beta HF Exchange     Energy = -10.30934809764121
 DFT Correlation      Energy =  -3.09659389334812
 DFT Exchange         Energy = -82.73403165170035
 One-Electron (alpha) Energy = -1938.10192954087620
 One-Electron (beta)  Energy = -1905.59307783609347
 Total Coulomb        Energy = 1259.58070372737780
    4   -2520.3092732201      2.43e-03  
 Alpha HF Exchange    Energy = -10.46373442829909
 Beta HF Exchange     Energy = -10.28618417281094
 DFT Correlation      Energy =  -3.08677872823995
 DFT Exchange         Energy = -82.53400252964438
 One-Electron (alpha) Energy = -1936.14413363982817
 One-Electron (beta)  Energy = -1903.76799888379901
 Total Coulomb        Energy = 1255.50054581137010
    5   -2520.3475138381      1.42e-04  
 Alpha HF Exchange    Energy = -10.46225658212587
 Beta HF Exchange     Energy = -10.28489579811725
 DFT Correlation      Energy =  -3.08648781296380
 DFT Exchange         Energy = -82.52349013786051
 One-Electron (alpha) Energy = -1935.95645003857362
 One-Electron (beta)  Energy = -1903.60181141242197
 Total Coulomb        Energy = 1255.13299651569378
    6   -2520.3476225332      5.77e-05  
 Alpha HF Exchange    Energy = -10.46230307851171
 Beta HF Exchange     Energy = -10.28498774886223
 DFT Correlation      Energy =  -3.08635587204112
 DFT Exchange         Energy = -82.52374120770507
 One-Electron (alpha) Energy = -1935.97608352087855
 One-Electron (beta)  Energy = -1903.61490342804518
 Total Coulomb        Energy = 1255.16596218287896
    7   -2520.3476399400      9.52e-06  
 Alpha HF Exchange    Energy = -10.46238683768164
 Beta HF Exchange     Energy = -10.28504969570638
 DFT Correlation      Energy =  -3.08637195605986
 DFT Exchange         Energy = -82.52430735788299
 One-Electron (alpha) Energy = -1935.98605567017921
 One-Electron (beta)  Energy = -1903.61910432813193
 Total Coulomb        Energy = 1255.18086192693227
    8   -2520.3476411856      2.91e-06  
 Alpha HF Exchange    Energy = -10.46238376796736
 Beta HF Exchange     Energy = -10.28505802280528
 DFT Correlation      Energy =  -3.08636434605816
 DFT Exchange         Energy = -82.52431787316924
 One-Electron (alpha) Energy = -1935.98537283017663
 One-Electron (beta)  Energy = -1903.61752889059085
 Total Coulomb        Energy = 1255.17861166424927
    9   -2520.3476413334      1.11e-06  
 Alpha HF Exchange    Energy = -10.46238398400294
 Beta HF Exchange     Energy = -10.28505722812430
 DFT Correlation      Energy =  -3.08636349772606
 DFT Exchange         Energy = -82.52431556904001
 One-Electron (alpha) Energy = -1935.98546097000030
 One-Electron (beta)  Energy = -1903.61755896196178
 Total Coulomb        Energy = 1255.17872613284999
   10   -2520.3476413449      5.24e-07  Convergence criterion met
 ---------------------------------------
 SCF time:   CPU 25.66s  wall 2.00s 
<S^2> =          2.005844688
 Alpha HF Exchange    Energy = -10.46238398400294
 Beta HF Exchange     Energy = -10.28505722812430
 DFT Correlation      Energy =  -3.08636349772606
 DFT Exchange         Energy = -82.52431556904001
 One-Electron (alpha) Energy = -1935.98546097000030
 One-Electron (beta)  Energy = -1903.61755896196178
 Total Coulomb        Energy = 1255.17872613284999
 Nuclear repulsion Energy = 170.43477273313908
 SCF   energy in the final basis set =    -2520.3476413449
 Total energy in the final basis set =    -2520.3476413449
 
 --------------------------------------------------------------
 
                    Orbital Energies (a.u.)
 --------------------------------------------------------------
 
 Alpha MOs
 -- Occupied --
******* -58.118 -52.178 -52.175 -52.172 -10.178 -10.174 -10.174
 -7.852  -5.800  -5.794  -5.782  -2.133  -2.132  -2.122  -2.118
 -2.116  -0.774  -0.712  -0.684  -0.568  -0.446  -0.421  -0.401
 -0.395  -0.379  -0.348  -0.344  -0.300  -0.257  -0.175
 -- Virtual --
  0.015   0.107   0.125   0.147   0.155   0.177   0.184   0.192
  0.193   0.242   0.254   0.258   0.298   0.304   0.491   0.501
  0.516   0.523   0.526   0.527   0.559   0.570   0.591   0.624
  0.653   0.726   0.731   0.750   0.815   0.857   0.859   0.883
  0.901   0.929   0.946   0.970   0.972   1.248   1.299   1.355
  1.360   1.508   1.539   1.699   1.800   1.816   1.864   1.896
  2.000   2.050   2.054   2.058   2.065   2.079   2.109   2.122
  2.148   2.284   2.302   2.384   2.391   2.505   2.544   2.580
  2.611   2.690   2.731   2.774   2.845   2.877   2.926   2.989
  3.158   3.209   3.381   3.427   3.444   3.459   3.578   4.188
  4.203   4.204   4.223   4.245   4.349   4.492   4.565   5.390
 89.561
 
 Beta MOs
 -- Occupied --
******* -58.117 -52.174 -52.173 -52.171 -10.174 -10.174 -10.164
 -7.849  -5.792  -5.791  -5.780  -2.127  -2.127  -2.117  -2.117
 -2.114  -0.757  -0.682  -0.677  -0.547  -0.440  -0.404  -0.396
 -0.384  -0.373  -0.344  -0.338  -0.244
 -- Virtual --
 -0.176  -0.025   0.024   0.109   0.130   0.150   0.161   0.186
  0.188   0.193   0.203   0.247   0.269   0.281   0.305   0.310
  0.503   0.519   0.531   0.534   0.569   0.572   0.578   0.594
  0.596   0.635   0.680   0.735   0.743   0.750   0.832   0.863
  0.864   0.887   0.907   0.935   0.950   0.976   0.982   1.262
  1.308   1.362   1.383   1.525   1.538   1.705   1.823   1.826
  1.892   1.921   2.020   2.055   2.059   2.059   2.062   2.084
  2.113   2.125   2.156   2.287   2.322   2.393   2.399   2.523
  2.562   2.581   2.623   2.695   2.735   2.780   2.852   2.885
  2.933   2.993   3.162   3.215   3.387   3.430   3.447   3.463
  3.584   4.209   4.217   4.218   4.236   4.248   4.354   4.491
  4.577   5.405  89.567
 --------------------------------------------------------------
 
          Ground-State Mulliken Net Atomic Charges

     Atom                 Charge (a.u.)    Spin (a.u.)
  --------------------------------------------------------
      1 C                    -0.334903      -0.079808
      2 C                    -0.073622       1.017155
      3 Se                   -0.075881       1.027941
      4 H                     0.076154      -0.027425
      5 C                    -0.334903      -0.079808
      6 H                     0.108088       0.006954
      7 H                     0.108023       0.063052
      8 H                     0.105523       0.023515
      9 H                     0.099887      -0.045095
     10 H                     0.108023       0.063052
     11 H                     0.108088       0.006954
     12 H                     0.105523       0.023515
  --------------------------------------------------------
  Sum of atomic charges =     0.000000
  Sum of spin   charges =     2.000000

 -----------------------------------------------------------------
                    Cartesian Multipole Moments
 -----------------------------------------------------------------
    Charge (ESU x 10^10)
                -0.0000
    Dipole Moment (Debye)
         X      -0.1716      Y      -0.0000      Z       0.5966
       Tot       0.6208
    Quadrupole Moments (Debye-Ang)
        XX     -42.0501     XY      -0.0000     YY     -38.3417
        XZ       1.8273     YZ      -0.0000     ZZ     -38.0099
    Octopole Moments (Debye-Ang^2)
       XXX     -88.4930    XXY      -0.0000    XYY     -16.1040
       YYY      -0.0000    XXZ       6.2370    XYZ      -0.0000
       YYZ       0.0003    XZZ     -13.9421    YZZ      -0.0000
       ZZZ       2.1693
    Hexadecapole Moments (Debye-Ang^3)
      XXXX   -2117.6463   XXXY      -0.0000   XXYY    -352.8646
      XYYY      -0.0000   YYYY    -226.6069   XXXZ      29.6625
      XXYZ      -0.0000   XYYZ       5.5735   YYYZ      -0.0000
      XXZZ    -311.6237   XYZZ      -0.0000   YYZZ     -50.4437
      XZZZ      15.1936   YZZZ      -0.0000   ZZZZ     -67.9395
 -----------------------------------------------------------------
 Calculating analytic gradient of the SCF energy
 Gradient of SCF Energy
            1           2           3           4           5           6
    1   0.0003904   0.0237716  -0.0000776   0.0001304   0.0003904  -0.0000718
    2   0.0002266   0.0000000   0.0000000   0.0000000  -0.0002266  -0.0000144
    3  -0.0004796  -0.0153439   0.0005682  -0.0004918  -0.0004796   0.0000401
            7           8           9          10          11          12
    1   0.0000376   0.0000582  -0.0246532   0.0000376  -0.0000718   0.0000582
    2  -0.0000417  -0.0001382   0.0000000   0.0000417   0.0000144   0.0001382
    3  -0.0000318   0.0000555   0.0160991  -0.0000318   0.0000401   0.0000555
 Max gradient component =       2.465E-02
 RMS gradient           =       6.809E-03
 Gradient time:  CPU 8.94 s  wall 0.75 s
 Geometry Optimization Parameters
   NAtoms,    NIC,     NZ,  NCons,   NDum,   NFix, NCnnct, MaxDiis
       12      74       0       1       0       0       0       0

 Cartesian Hessian Update
 Hessian Updated using BFGS Update


** CONSTRAINED OPTIMIZATION IN DELOCALIZED INTERNAL COORDINATES **
   Searching for a Minimum

   Optimization Cycle:   2

                       Coordinates (Angstroms)
     ATOM                X               Y               Z
      1  C        -2.3073270831    1.2992414805    0.1016603702
      2  C        -1.6217982822    0.0000000000   -0.1598410298
      3  Se        3.3795164925    0.0000000000   -0.0958169782
      4  H         3.2159852985    0.0000000000    1.3737410730
      5  C        -2.3073270831   -1.2992414805    0.1016603702
      6  H        -1.6110342420    2.1433944597    0.0714171717
      7  H        -3.0975139773    1.5106736128   -0.6412516226
      8  H        -2.8048306617    1.3040400696    1.0812219148
      9  H        -0.7540855808    0.0000000000   -0.7476847333
     10  H        -3.0975139773   -1.5106736128   -0.6412516226
     11  H        -1.6110342420   -2.1433944597    0.0714171717
     12  H        -2.8048306617   -1.3040400696    1.0812219148
   Point Group: c1    Number of degrees of freedom:    30


   Energy is  -2520.347641345

              Constraints and their Current Values
                                        Value     Constraint
   Distance(Angs):        2   3             5.001725     5.000000
 Hessian Updated using BFGS Update

   Using Lagrange Multiplier Algorithm


 17 Hessian modes will be used to form the next step
  Hessian Eigenvalues:
    -0.974318    0.029034    0.044999    0.045591    0.092109    0.092837
     0.103567    0.160000    0.160025    0.176918    0.215736    0.331355
     0.332182    0.338301    0.342769    0.524654    1.049372

 Minimum Search - Taking P-RFO Step
 Searching for Lamda that Maximizes Along the Constraint modes Only
 Value Taken    Lamda =   0.00007710
 Searching for Lamda that Minimizes Along All other modes
 Value Taken    Lamda =  -0.00120463
 Step Taken.  Stepsize is  0.060592

                             Maximum     Tolerance    Cnvgd?
         Gradient            0.013963       0.000300      NO
         Displacement        0.036867       0.001200      NO
         Energy change      0.001047       0.000001      NO


 New Cartesian Coordinates Obtained by Inverse Iteration

 Displacement from previous Coordinates is:  0.040483
 ----------------------------------------------------------------
             Standard Nuclear Orientation (Angstroms)
    I     Atom           X                Y                Z
 ----------------------------------------------------------------
    1      C      -2.3085097854     1.2988641147     0.1029869117
    2      C      -1.6219464876     0.0000000000    -0.1586691305
    3      Se      3.3776750041     0.0000000000    -0.0970592927
    4      H       3.2108377404     0.0000000000     1.3727520269
    5      C      -2.3085097854    -1.2988641147     0.1029869117
    6      H      -1.6123201035     2.1431840655     0.0734851318
    7      H      -3.0981423841     1.5104471577    -0.6404867784
    8      H      -2.8070426442     1.3036624669     1.0820070421
    9      H      -0.7363304224     0.0000000000    -0.7565142182
   10      H      -3.0981423841    -1.5104471577    -0.6404867784
   11      H      -1.6123201035    -2.1431840655     0.0734851318
   12      H      -2.8070426442    -1.3036624669     1.0820070421
 ----------------------------------------------------------------
 Nuclear Repulsion Energy =   170.3763168639 hartrees
 There are       31 alpha and       29 beta electrons

                       Distance Matrix (Angstroms)
             C (  1)   C (  2)   Se(  3)   H (  4)   C (  5)   H (  6)
   C (  2)  1.492274
   Se(  3)  5.836074  5.000001
   H (  4)  5.810555  5.069621  1.479250
   C (  5)  2.597728  1.492274  5.836074  5.810555
   H (  6)  1.094727  2.155743  5.433450  5.435456  3.511872
   H (  7)  1.105007  2.166276  6.671804  6.792482  3.011395  1.765724
   H (  8)  1.098653  2.154824  6.429655  6.164329  2.824918  1.774620
   H (  9)  2.213038  1.068520  4.166524  4.484854  2.213038  2.459572
   H ( 10)  3.011395  2.166276  6.671804  6.792482  1.105007  4.008297
   H ( 11)  3.511872  2.155743  5.433450  5.435456  1.094727  4.286368
   H ( 12)  2.824918  2.154824  6.429655  6.164329  1.098653  3.784868
             H (  7)   H (  8)   H (  9)   H ( 10)   H ( 11)
   H (  8)  1.759115
   H (  9)  2.805899  3.060645
   H ( 10)  3.020894  3.312240  2.805899
   H ( 11)  4.008297  3.784868  2.459572  1.765724
   H ( 12)  3.312240  2.607325  3.060645  1.759115  1.774620
 
 Applying Cartesian multipole field
    Component          Value
    ---------          -----
     (2,0,0)        1.00000E-11
     (0,2,0)        2.00000E-11
     (0,0,2)       -3.00000E-10
 Nucleus-field energy     =     0.0000000145 hartrees
 Requested basis set is 6-31G(d,p)
 There are 44 shells and 120 basis functions
 A cutoff of  1.0D-14 yielded    817 shell pairs
 There are      5710 function pairs
 Smallest overlap matrix eigenvalue = 6.79E-04
 Guess from superposition of atomic densities
 Warning:  Energy on first SCF cycle will be non-variational
 SAD guess density has 59.968191 electrons

 -----------------------------------------------------------------------
  General SCF calculation program by
  Eric Jon Sundstrom, Paul Horn, Yuezhi Mao, Dmitri Zuev, Alec White,
  David Stuck, Shaama M.S., Shane Yost, Joonho Lee, David Small,
  Daniel Levine, Susi Lehtola, Hugh Burton, Evgeny Epifanovsky
 -----------------------------------------------------------------------
 Exchange:     0.2000 Hartree-Fock + 0.0800 Slater + 0.7200 B88
 Correlation:  0.1900 VWN1RPA + 0.8100 LYP
 Using SG-1 standard quadrature grid
 using 12 threads for integral computing
 -------------------------------------------------------
 OpenMP Integral computing Module                
 Release: version 1.0, May 2013, Q-Chem Inc. Pittsburgh 
 -------------------------------------------------------
 -------------------------------------------------------
 OpenMP BLAS3 based DFT computing Module                
 Release: version 1.0, May 2013, Q-Chem Inc. Pittsburgh 
 -------------------------------------------------------
 A unrestricted SCF calculation will be
 performed using DIIS
 SCF converges when DIIS error is below 1.0e-06
 Alpha HF Exchange    Energy = -10.33359916180348
 Beta HF Exchange     Energy = -10.33359916180348
 DFT Correlation      Energy =  -3.07059970671297
 DFT Exchange         Energy = -81.97518198603672
 One-Electron (alpha) Energy = -1917.61026354771798
 One-Electron (beta)  Energy = -1917.61026354771798
 Total Coulomb        Energy = 1247.58805622781028
 ---------------------------------------
  Cycle       Energy         DIIS error
 ---------------------------------------
    1   -2522.9691340056      1.38e-01  
 Alpha HF Exchange    Energy = -10.51200692549879
 Beta HF Exchange     Energy = -10.32782599279493
 DFT Correlation      Energy =  -3.10637294899416
 DFT Exchange         Energy = -82.90881622651021
 One-Electron (alpha) Energy = -1940.00475631560062
 One-Electron (beta)  Energy = -1907.49464434633660
 Total Coulomb        Energy = 1263.74924674450835
    2   -2520.2288591328      8.88e-03  
 Alpha HF Exchange    Energy = -10.40950713416449
 Beta HF Exchange     Energy = -10.23856740691874
 DFT Correlation      Energy =  -3.06740889366794
 DFT Exchange         Energy = -82.12416252906829
 One-Electron (alpha) Energy = -1931.50027951277684
 One-Electron (beta)  Energy = -1899.72805515436585
 Total Coulomb        Energy = 1246.46582424261919
    3   -2520.2258395100      4.27e-03  
 Alpha HF Exchange    Energy = -10.48894550461233
 Beta HF Exchange     Energy = -10.30855629233931
 DFT Correlation      Energy =  -3.09626656966787
 DFT Exchange         Energy = -82.72829117891571
 One-Electron (alpha) Energy = -1938.04924965666510
 One-Electron (beta)  Energy = -1905.54228757520968
 Total Coulomb        Energy = 1259.52748530621216
    4   -2520.3097945928      2.44e-03  
 Alpha HF Exchange    Energy = -10.46287182630834
 Beta HF Exchange     Energy = -10.28534173147022
 DFT Correlation      Energy =  -3.08640823284630
 DFT Exchange         Energy = -82.52786776760435
 One-Electron (alpha) Energy = -1936.09166395425086
 One-Electron (beta)  Energy = -1903.71674045974487
 Total Coulomb        Energy = 1255.44624904581428
    5   -2520.3483280480      1.46e-04  
 Alpha HF Exchange    Energy = -10.46141649171473
 Beta HF Exchange     Energy = -10.28404226759640
 DFT Correlation      Energy =  -3.08612807189265
 DFT Exchange         Energy = -82.51742139968827
 One-Electron (alpha) Energy = -1935.90439820278380
 One-Electron (beta)  Energy = -1903.55043769922054
 Total Coulomb        Energy = 1255.07908590608417
    6   -2520.3484413484      5.81e-05  
 Alpha HF Exchange    Energy = -10.46144519569385
 Beta HF Exchange     Energy = -10.28412513600205
 DFT Correlation      Energy =  -3.08598912318160
 DFT Exchange         Energy = -82.51756251344229
 One-Electron (alpha) Energy = -1935.92227466213080
 One-Electron (beta)  Energy = -1903.56187535466847
 Total Coulomb        Energy = 1255.10849579496244
    7   -2520.3484593118      9.62e-06  
 Alpha HF Exchange    Energy = -10.46153447608446
 Beta HF Exchange     Energy = -10.28418775448422
 DFT Correlation      Energy =  -3.08600564111545
 DFT Exchange         Energy = -82.51815253398726
 One-Electron (alpha) Energy = -1935.93280988992319
 One-Electron (beta)  Energy = -1903.56639672774145
 Total Coulomb        Energy = 1255.12430954624642
    8   -2520.3484605987      3.06e-06  
 Alpha HF Exchange    Energy = -10.46152962902709
 Beta HF Exchange     Energy = -10.28419525846918
 DFT Correlation      Energy =  -3.08599765657099
 DFT Exchange         Energy = -82.51815284876950
 One-Electron (alpha) Energy = -1935.93194471598281
 One-Electron (beta)  Energy = -1903.56461537161454
 Total Coulomb        Energy = 1255.12165785165053
    9   -2520.3484607504      1.49e-06  
 Alpha HF Exchange    Energy = -10.46153173259938
 Beta HF Exchange     Energy = -10.28419476582399
 DFT Correlation      Energy =  -3.08599688561420
 DFT Exchange         Energy = -82.51815880920361
 One-Electron (alpha) Energy = -1935.93217215902268
 One-Electron (beta)  Energy = -1903.56471916530518
 Total Coulomb        Energy = 1255.12199586971701
   10   -2520.3484607695      5.16e-07  Convergence criterion met
 ---------------------------------------
 SCF time:   CPU 25.74s  wall 3.00s 
<S^2> =          2.005913375
 Alpha HF Exchange    Energy = -10.46153173259938
 Beta HF Exchange     Energy = -10.28419476582399
 DFT Correlation      Energy =  -3.08599688561420
 DFT Exchange         Energy = -82.51815880920361
 One-Electron (alpha) Energy = -1935.93217215902268
 One-Electron (beta)  Energy = -1903.56471916530518
 Total Coulomb        Energy = 1255.12199586971701
 Nuclear repulsion Energy = 170.37631687838817
 SCF   energy in the final basis set =    -2520.3484607695
 Total energy in the final basis set =    -2520.3484607695
 
 --------------------------------------------------------------
 
                    Orbital Energies (a.u.)
 --------------------------------------------------------------
 
 Alpha MOs
 -- Occupied --
******* -58.118 -52.178 -52.175 -52.171 -10.180 -10.174 -10.174
 -7.852  -5.800  -5.794  -5.782  -2.133  -2.132  -2.122  -2.118
 -2.116  -0.774  -0.712  -0.684  -0.566  -0.445  -0.422  -0.402
 -0.395  -0.379  -0.348  -0.342  -0.300  -0.257  -0.175
 -- Virtual --
  0.015   0.106   0.123   0.147   0.154   0.177   0.184   0.191
  0.193   0.242   0.254   0.258   0.297   0.303   0.491   0.501
  0.516   0.523   0.526   0.527   0.558   0.569   0.591   0.624
  0.654   0.725   0.734   0.749   0.815   0.857   0.859   0.883
  0.898   0.929   0.946   0.962   0.970   1.248   1.299   1.355
  1.360   1.508   1.538   1.692   1.801   1.817   1.864   1.896
  1.990   2.050   2.054   2.058   2.065   2.078   2.109   2.122
  2.144   2.285   2.298   2.382   2.389   2.496   2.544   2.580
  2.600   2.685   2.731   2.772   2.843   2.874   2.919   2.978
  3.157   3.208   3.369   3.427   3.436   3.457   3.552   4.188
  4.203   4.204   4.223   4.245   4.349   4.491   4.564   5.390
 89.561
 
 Beta MOs
 -- Occupied --
******* -58.117 -52.174 -52.173 -52.171 -10.175 -10.175 -10.167
 -7.849  -5.792  -5.791  -5.780  -2.127  -2.127  -2.117  -2.117
 -2.114  -0.756  -0.682  -0.677  -0.544  -0.440  -0.404  -0.396
 -0.384  -0.373  -0.344  -0.337  -0.244
 -- Virtual --
 -0.176  -0.025   0.024   0.108   0.128   0.150   0.161   0.186
  0.188   0.193   0.202   0.247   0.268   0.282   0.305   0.309
  0.503   0.519   0.531   0.534   0.569   0.572   0.578   0.594
  0.595   0.635   0.681   0.734   0.746   0.750   0.832   0.862
  0.864   0.887   0.905   0.935   0.950   0.972   0.976   1.262
  1.308   1.362   1.383   1.525   1.538   1.698   1.824   1.828
  1.892   1.919   2.012   2.055   2.059   2.059   2.062   2.084
  2.113   2.125   2.151   2.288   2.317   2.391   2.396   2.515
  2.561   2.580   2.612   2.690   2.735   2.777   2.850   2.881
  2.926   2.982   3.161   3.213   3.375   3.430   3.439   3.462
  3.558   4.210   4.217   4.218   4.236   4.248   4.355   4.491
  4.576   5.405  89.567
 --------------------------------------------------------------
 
          Ground-State Mulliken Net Atomic Charges

     Atom                 Charge (a.u.)    Spin (a.u.)
  --------------------------------------------------------
      1 C                    -0.334336      -0.079905
      2 C                    -0.074945       1.017931
      3 Se                   -0.075854       1.027965
      4 H                     0.076122      -0.027453
      5 C                    -0.334336      -0.079905
      6 H                     0.108348       0.006988
      7 H                     0.108118       0.063066
      8 H                     0.105639       0.023510
      9 H                     0.099139      -0.045762
     10 H                     0.108118       0.063066
     11 H                     0.108348       0.006988
     12 H                     0.105639       0.023510
  --------------------------------------------------------
  Sum of atomic charges =    -0.000000
  Sum of spin   charges =     2.000000

 -----------------------------------------------------------------
                    Cartesian Multipole Moments
 -----------------------------------------------------------------
    Charge (ESU x 10^10)
                 0.0000
    Dipole Moment (Debye)
         X      -0.1825      Y       0.0000      Z       0.6019
       Tot       0.6289
    Quadrupole Moments (Debye-Ang)
        XX     -42.0336     XY       0.0000     YY     -38.3443
        XZ       1.7957     YZ       0.0000     ZZ     -38.0338
    Octopole Moments (Debye-Ang^2)
       XXX     -88.4832    XXY       0.0000    XYY     -16.0935
       YYY      -0.0000    XXZ       6.2105    XYZ       0.0000
       YYZ       0.0261    XZZ     -13.8937    YZZ      -0.0000
       ZZZ       2.2191
    Hexadecapole Moments (Debye-Ang^3)
      XXXX   -2116.1978   XXXY       0.0000   XXYY    -352.5854
      XYYY      -0.0000   YYYY    -226.4533   XXXZ      29.6125
      XXYZ      -0.0000   XYYZ       5.6739   YYYZ      -0.0000
      XXZZ    -311.5414   XYZZ      -0.0000   YYZZ     -50.4539
      XZZZ      15.5223   YZZZ      -0.0000   ZZZZ     -68.1276
 -----------------------------------------------------------------
 Calculating analytic gradient of the SCF energy
 Gradient of SCF Energy
            1           2           3           4           5           6
    1  -0.0000007   0.0110275  -0.0000591   0.0001086  -0.0000007   0.0000012
    2   0.0000262   0.0000000  -0.0000000  -0.0000000  -0.0000262  -0.0000236
    3  -0.0001096  -0.0069669   0.0003553  -0.0002740  -0.0001096   0.0000134
            7           8           9          10          11          12
    1   0.0000077  -0.0000141  -0.0110654   0.0000077   0.0000012  -0.0000141
    2  -0.0000102   0.0000097   0.0000000   0.0000102   0.0000236  -0.0000097
    3  -0.0000025   0.0000084   0.0070663  -0.0000025   0.0000134   0.0000084
 Max gradient component =       1.107E-02
 RMS gradient           =       3.086E-03
 Gradient time:  CPU 9.29 s  wall 0.78 s
 Geometry Optimization Parameters
   NAtoms,    NIC,     NZ,  NCons,   NDum,   NFix, NCnnct, MaxDiis
       12      74       0       1       0       0       0       0

 Cartesian Hessian Update
 Hessian Updated using BFGS Update


** CONSTRAINED OPTIMIZATION IN DELOCALIZED INTERNAL COORDINATES **
   Searching for a Minimum

   Optimization Cycle:   3

                       Coordinates (Angstroms)
     ATOM                X               Y               Z
      1  C        -2.3085097854    1.2988641147    0.1029869117
      2  C        -1.6219464876    0.0000000000   -0.1586691305
      3  Se        3.3776750041    0.0000000000   -0.0970592927
      4  H         3.2108377404    0.0000000000    1.3727520269
      5  C        -2.3085097854   -1.2988641147    0.1029869117
      6  H        -1.6123201035    2.1431840655    0.0734851318
      7  H        -3.0981423841    1.5104471577   -0.6404867784
      8  H        -2.8070426442    1.3036624669    1.0820070421
      9  H        -0.7363304224    0.0000000000   -0.7565142182
     10  H        -3.0981423841   -1.5104471577   -0.6404867784
     11  H        -1.6123201035   -2.1431840655    0.0734851318
     12  H        -2.8070426442   -1.3036624669    1.0820070421
   Point Group: c1    Number of degrees of freedom:    30


   Energy is  -2520.348460769

              Constraints and their Current Values
                                        Value     Constraint
   Distance(Angs):        2   3             5.000001     5.000000
 Hessian Updated using BFGS Update

   Using Lagrange Multiplier Algorithm


 18 Hessian modes will be used to form the next step
  Hessian Eigenvalues:
    -0.959794    0.028302    0.044998    0.045578    0.092110    0.092838
     0.100778    0.159998    0.160000    0.160083    0.176784    0.215720
     0.312677    0.331355    0.332869    0.338301    0.342777    1.063946

 Minimum Search - Taking P-RFO Step
 Searching for Lamda that Maximizes Along the Constraint modes Only
 Value Taken    Lamda =   0.00000121
 Searching for Lamda that Minimizes Along All other modes
 Value Taken    Lamda =  -0.00041228
 Step Taken.  Stepsize is  0.048437

                             Maximum     Tolerance    Cnvgd?
         Gradient            0.006305       0.000300      NO
         Displacement        0.029598       0.001200      NO
         Energy change     -0.000819       0.000001      NO


 New Cartesian Coordinates Obtained by Inverse Iteration

 Displacement from previous Coordinates is:  0.031063
 ----------------------------------------------------------------
             Standard Nuclear Orientation (Angstroms)
    I     Atom           X                Y                Z
 ----------------------------------------------------------------
    1      C      -2.3093278571     1.2990502784     0.1038821591
    2      C      -1.6231182994     0.0000000000    -0.1570076494
    3      Se      3.3765417082     0.0000000000    -0.0986090514
    4      H       3.2062268138     0.0000000000     1.3717075304
    5      C      -2.3093278571    -1.2990502784     0.1038821591
    6      H      -1.6131752366     2.1434540873     0.0755066989
    7      H      -3.0981062565     1.5109742071    -0.6404152789
    8      H      -2.8087540238     1.3030741428     1.0824204153
    9      H      -0.7227174748     0.0000000000    -0.7623848186
   10      H      -3.0981062565    -1.5109742071    -0.6404152789
   11      H      -1.6131752366    -2.1434540873     0.0755066989
   12      H      -2.8087540238    -1.3030741428     1.0824204153
 ----------------------------------------------------------------
 Nuclear Repulsion Energy =   170.3219128718 hartrees
 There are       31 alpha and       29 beta electrons

                       Distance Matrix (Angstroms)
             C (  1)   C (  2)   Se(  3)   H (  4)   C (  5)   H (  6)
   C (  2)  1.492139
   Se(  3)  5.835893  5.000001
   H (  4)  5.806570  5.065525  1.480148
   C (  5)  2.598101  1.492139  5.835893  5.806570
   H (  6)  1.094738  2.156051  5.433414  5.431498  3.512303
   H (  7)  1.105017  2.166175  6.670657  6.787952  3.012040  1.765671
   H (  8)  1.098626  2.154046  6.430452  6.161305  2.824538  1.774689
   H (  9)  2.226046  1.084990  4.152653  4.471124  2.226046  2.467665
   H ( 10)  3.012040  2.166175  6.670657  6.787952  1.105017  4.009041
   H ( 11)  3.512303  2.156051  5.433414  5.431498  1.094738  4.286908
   H ( 12)  2.824538  2.154046  6.430452  6.161305  1.098626  3.784421
             H (  7)   H (  8)   H (  9)   H ( 10)   H ( 11)
   H (  8)  1.759292
   H (  9)  2.817870  3.074550
   H ( 10)  3.021948  3.312213  2.817870
   H ( 11)  4.009041  3.784421  2.467665  1.765671
   H ( 12)  3.312213  2.606148  3.074550  1.759292  1.774689
 
 Applying Cartesian multipole field
    Component          Value
    ---------          -----
     (2,0,0)        1.00000E-11
     (0,2,0)        2.00000E-11
     (0,0,2)       -3.00000E-10
 Nucleus-field energy     =     0.0000000145 hartrees
 Requested basis set is 6-31G(d,p)
 There are 44 shells and 120 basis functions
 A cutoff of  1.0D-14 yielded    817 shell pairs
 There are      5710 function pairs
 Smallest overlap matrix eigenvalue = 6.79E-04
 Guess from superposition of atomic densities
 Warning:  Energy on first SCF cycle will be non-variational
 SAD guess density has 59.968191 electrons

 -----------------------------------------------------------------------
  General SCF calculation program by
  Eric Jon Sundstrom, Paul Horn, Yuezhi Mao, Dmitri Zuev, Alec White,
  David Stuck, Shaama M.S., Shane Yost, Joonho Lee, David Small,
  Daniel Levine, Susi Lehtola, Hugh Burton, Evgeny Epifanovsky
 -----------------------------------------------------------------------
 Exchange:     0.2000 Hartree-Fock + 0.0800 Slater + 0.7200 B88
 Correlation:  0.1900 VWN1RPA + 0.8100 LYP
 Using SG-1 standard quadrature grid
 using 12 threads for integral computing
 -------------------------------------------------------
 OpenMP Integral computing Module                
 Release: version 1.0, May 2013, Q-Chem Inc. Pittsburgh 
 -------------------------------------------------------
 -------------------------------------------------------
 OpenMP BLAS3 based DFT computing Module                
 Release: version 1.0, May 2013, Q-Chem Inc. Pittsburgh 
 -------------------------------------------------------
 A unrestricted SCF calculation will be
 performed using DIIS
 SCF converges when DIIS error is below 1.0e-06
 Alpha HF Exchange    Energy = -10.33260503109209
 Beta HF Exchange     Energy = -10.33260503109209
 DFT Correlation      Energy =  -3.07039218585230
 DFT Exchange         Energy = -81.97296804295975
 One-Electron (alpha) Energy = -1917.56515247958646
 One-Electron (beta)  Energy = -1917.56515247958646
 Total Coulomb        Energy = 1247.55428906254474
 ---------------------------------------
  Cycle       Energy         DIIS error
 ---------------------------------------
    1   -2522.9626733014      1.38e-01  
 Alpha HF Exchange    Energy = -10.51115702426019
 Beta HF Exchange     Energy = -10.32711983128284
 DFT Correlation      Energy =  -3.10606969045040
 DFT Exchange         Energy = -82.90314383925023
 One-Electron (alpha) Energy = -1939.94500725747525
 One-Electron (beta)  Energy = -1907.44092257283955
 Total Coulomb        Energy = 1263.68218164422956
    2   -2520.2293256851      8.88e-03  
 Alpha HF Exchange    Energy = -10.40889172751590
 Beta HF Exchange     Energy = -10.23790178575493
 DFT Correlation      Energy =  -3.06711547410139
 DFT Exchange         Energy = -82.11959150617537
 One-Electron (alpha) Energy = -1931.44992165756935
 One-Electron (beta)  Energy = -1899.67928104877910
 Total Coulomb        Energy = 1246.41496089230304
    3   -2520.2258294213      4.28e-03  
 Alpha HF Exchange    Energy = -10.48832453861912
 Beta HF Exchange     Energy = -10.30794122575174
 DFT Correlation      Energy =  -3.09601859678546
 DFT Exchange         Energy = -82.72394142747228
 One-Electron (alpha) Energy = -1937.99908178558553
 One-Electron (beta)  Energy = -1905.49417321519468
 Total Coulomb        Energy = 1259.47779041910189
    4   -2520.3097774841      2.45e-03  
 Alpha HF Exchange    Energy = -10.46220599543804
 Beta HF Exchange     Energy = -10.28468588809914
 DFT Correlation      Energy =  -3.08612163656589
 DFT Exchange         Energy = -82.52314705839856
 One-Electron (alpha) Energy = -1936.04062000603108
 One-Electron (beta)  Energy = -1903.66741346226763
 Total Coulomb        Energy = 1255.39373377023048
    5   -2520.3485473903      1.48e-04  
 Alpha HF Exchange    Energy = -10.46077472282661
 Beta HF Exchange     Energy = -10.28337963116602
 DFT Correlation      Energy =  -3.08585130287851
 DFT Exchange         Energy = -82.51278585397652
 One-Electron (alpha) Energy = -1935.85420177905917
 One-Electron (beta)  Energy = -1903.50142227356082
 Total Coulomb        Energy = 1255.02783758540045
    6   -2520.3486650918      5.84e-05  
 Alpha HF Exchange    Energy = -10.46078740715669
 Beta HF Exchange     Energy = -10.28345445620237
 DFT Correlation      Energy =  -3.08570635334237
 DFT Exchange         Energy = -82.51282887935055
 One-Electron (alpha) Energy = -1935.87048860898403
 One-Electron (beta)  Energy = -1903.51135814407940
 Total Coulomb        Energy = 1255.05402735552821
    7   -2520.3486836073      9.72e-06  
 Alpha HF Exchange    Energy = -10.46088174256785
 Beta HF Exchange     Energy = -10.28351784574322
 DFT Correlation      Energy =  -3.08572327983697
 DFT Exchange         Energy = -82.51344128324783
 One-Electron (alpha) Energy = -1935.88154396351410
 One-Electron (beta)  Energy = -1903.51618102729822
 Total Coulomb        Energy = 1255.07069132272113
    8   -2520.3486849332      3.24e-06  
 Alpha HF Exchange    Energy = -10.46087515470280
 Beta HF Exchange     Energy = -10.28352435021966
 DFT Correlation      Energy =  -3.08571505746424
 DFT Exchange         Energy = -82.51343110157862
 One-Electron (alpha) Energy = -1935.88049552348707
 One-Electron (beta)  Energy = -1903.51420128725681
 Total Coulomb        Energy = 1255.06764449885009
    9   -2520.3486850896      1.81e-06  
 Alpha HF Exchange    Energy = -10.46087869815774
 Beta HF Exchange     Energy = -10.28352425868690
 DFT Correlation      Energy =  -3.08571419177348
 DFT Exchange         Energy = -82.51344379638924
 One-Electron (alpha) Energy = -1935.88083568591037
 One-Electron (beta)  Energy = -1903.51435420918165
 Total Coulomb        Energy = 1255.06815283663991
   10   -2520.3486851172      4.82e-07  Convergence criterion met
 ---------------------------------------
 SCF time:   CPU 26.05s  wall 2.00s 
<S^2> =          2.005971500
 Alpha HF Exchange    Energy = -10.46087869815774
 Beta HF Exchange     Energy = -10.28352425868690
 DFT Correlation      Energy =  -3.08571419177348
 DFT Exchange         Energy = -82.51344379638924
 One-Electron (alpha) Energy = -1935.88083568591037
 One-Electron (beta)  Energy = -1903.51435420918165
 Total Coulomb        Energy = 1255.06815283663991
 Nuclear repulsion Energy = 170.32191288624992
 SCF   energy in the final basis set =    -2520.3486851172
 Total energy in the final basis set =    -2520.3486851172
 
 --------------------------------------------------------------
 
                    Orbital Energies (a.u.)
 --------------------------------------------------------------
 
 Alpha MOs
 -- Occupied --
******* -58.118 -52.178 -52.175 -52.171 -10.182 -10.174 -10.174
 -7.852  -5.800  -5.794  -5.782  -2.133  -2.132  -2.122  -2.118
 -2.116  -0.773  -0.712  -0.684  -0.564  -0.444  -0.422  -0.402
 -0.395  -0.379  -0.348  -0.341  -0.300  -0.256  -0.175
 -- Virtual --
  0.015   0.106   0.122   0.147   0.154   0.176   0.183   0.190
  0.193   0.242   0.254   0.258   0.298   0.302   0.491   0.501
  0.516   0.523   0.526   0.527   0.558   0.569   0.590   0.624
  0.654   0.725   0.735   0.749   0.815   0.856   0.859   0.883
  0.894   0.929   0.946   0.956   0.969   1.249   1.299   1.355
  1.361   1.508   1.537   1.687   1.802   1.819   1.865   1.895
  1.982   2.049   2.053   2.058   2.065   2.078   2.108   2.122
  2.140   2.285   2.295   2.380   2.389   2.487   2.544   2.579
  2.592   2.681   2.731   2.769   2.842   2.871   2.914   2.970
  3.156   3.207   3.356   3.427   3.431   3.456   3.537   4.189
  4.203   4.204   4.223   4.245   4.349   4.491   4.564   5.390
 89.561
 
 Beta MOs
 -- Occupied --
******* -58.117 -52.174 -52.173 -52.171 -10.175 -10.175 -10.168
 -7.849  -5.792  -5.791  -5.780  -2.127  -2.127  -2.117  -2.117
 -2.114  -0.756  -0.682  -0.677  -0.542  -0.440  -0.405  -0.396
 -0.384  -0.373  -0.344  -0.336  -0.244
 -- Virtual --
 -0.176  -0.025   0.023   0.108   0.127   0.150   0.161   0.186
  0.188   0.193   0.200   0.247   0.268   0.282   0.305   0.308
  0.503   0.519   0.531   0.534   0.569   0.572   0.577   0.594
  0.595   0.635   0.682   0.734   0.747   0.750   0.831   0.861
  0.864   0.887   0.902   0.934   0.950   0.966   0.976   1.263
  1.308   1.362   1.383   1.525   1.537   1.694   1.825   1.830
  1.892   1.917   2.006   2.054   2.059   2.059   2.062   2.084
  2.113   2.125   2.148   2.287   2.313   2.390   2.394   2.508
  2.562   2.580   2.603   2.685   2.735   2.775   2.849   2.878
  2.921   2.975   3.160   3.212   3.363   3.429   3.434   3.461
  3.542   4.210   4.217   4.218   4.236   4.248   4.355   4.491
  4.576   5.405  89.567
 --------------------------------------------------------------
 
          Ground-State Mulliken Net Atomic Charges

     Atom                 Charge (a.u.)    Spin (a.u.)
  --------------------------------------------------------
      1 C                    -0.333917      -0.079992
      2 C                    -0.075615       1.018485
      3 Se                   -0.075800       1.027999
      4 H                     0.076065      -0.027493
      5 C                    -0.333917      -0.079992
      6 H                     0.108655       0.007036
      7 H                     0.108203       0.063119
      8 H                     0.105711       0.023506
      9 H                     0.098048      -0.046329
     10 H                     0.108203       0.063119
     11 H                     0.108655       0.007036
     12 H                     0.105711       0.023506
  --------------------------------------------------------
  Sum of atomic charges =     0.000000
  Sum of spin   charges =     2.000000

 -----------------------------------------------------------------
                    Cartesian Multipole Moments
 -----------------------------------------------------------------
    Charge (ESU x 10^10)
                -0.0000
    Dipole Moment (Debye)
         X      -0.1922      Y       0.0000      Z       0.6063
       Tot       0.6361
    Quadrupole Moments (Debye-Ang)
        XX     -42.0254     XY       0.0000     YY     -38.3408
        XZ       1.7696     YZ       0.0000     ZZ     -38.0544
    Octopole Moments (Debye-Ang^2)
       XXX     -88.4774    XXY       0.0000    XYY     -16.0930
       YYY      -0.0000    XXZ       6.1666    XYZ       0.0000
       YYZ       0.0484    XZZ     -13.8632    YZZ      -0.0000
       ZZZ       2.2793
    Hexadecapole Moments (Debye-Ang^3)
      XXXX   -2115.5047   XXXY       0.0000   XXYY    -352.4411
      XYYY      -0.0000   YYYY    -226.3822   XXXZ      29.6349
      XXYZ      -0.0000   XYYZ       5.8049   YYYZ      -0.0000
      XXZZ    -311.5264   XYZZ      -0.0000   YYZZ     -50.4815
      XZZZ      15.8812   YZZZ      -0.0000   ZZZZ     -68.2807
 -----------------------------------------------------------------
 Calculating analytic gradient of the SCF energy
 Gradient of SCF Energy
            1           2           3           4           5           6
    1  -0.0000648   0.0012646  -0.0000270   0.0000734  -0.0000648  -0.0000011
    2  -0.0000076   0.0000000  -0.0000000  -0.0000000   0.0000076   0.0000338
    3   0.0000297  -0.0006391   0.0000453   0.0000387   0.0000297  -0.0000034
            7           8           9          10          11          12
    1   0.0000130   0.0000165  -0.0012383   0.0000130  -0.0000011   0.0000165
    2  -0.0000041  -0.0000097   0.0000000   0.0000041  -0.0000338   0.0000097
    3  -0.0000150  -0.0000218   0.0005764  -0.0000150  -0.0000034  -0.0000218
 Max gradient component =       1.265E-03
 RMS gradient           =       3.291E-04
 Gradient time:  CPU 9.28 s  wall 0.79 s
 Geometry Optimization Parameters
   NAtoms,    NIC,     NZ,  NCons,   NDum,   NFix, NCnnct, MaxDiis
       12      74       0       1       0       0       0       0

 Cartesian Hessian Update
 Hessian Updated using BFGS Update


** CONSTRAINED OPTIMIZATION IN DELOCALIZED INTERNAL COORDINATES **
   Searching for a Minimum

   Optimization Cycle:   4

                       Coordinates (Angstroms)
     ATOM                X               Y               Z
      1  C        -2.3093278571    1.2990502784    0.1038821591
      2  C        -1.6231182994    0.0000000000   -0.1570076494
      3  Se        3.3765417082    0.0000000000   -0.0986090514
      4  H         3.2062268138    0.0000000000    1.3717075304
      5  C        -2.3093278571   -1.2990502784    0.1038821591
      6  H        -1.6131752366    2.1434540873    0.0755066989
      7  H        -3.0981062565    1.5109742071   -0.6404152789
      8  H        -2.8087540238    1.3030741428    1.0824204153
      9  H        -0.7227174748    0.0000000000   -0.7623848186
     10  H        -3.0981062565   -1.5109742071   -0.6404152789
     11  H        -1.6131752366   -2.1434540873    0.0755066989
     12  H        -2.8087540238   -1.3030741428    1.0824204153
   Point Group: c1    Number of degrees of freedom:    30


   Energy is  -2520.348685117

              Constraints and their Current Values
                                        Value     Constraint
   Distance(Angs):        2   3             5.000001     5.000000
 Hessian Updated using BFGS Update

   Using Lagrange Multiplier Algorithm


 18 Hessian modes will be used to form the next step
  Hessian Eigenvalues:
    -0.962792    0.027726    0.044998    0.045564    0.092102    0.092839
     0.099469    0.159986    0.160001    0.160182    0.176781    0.215104
     0.291841    0.331355    0.332769    0.338325    0.342814    1.055883

 Minimum Search - Taking P-RFO Step
 Searching for Lamda that Maximizes Along the Constraint modes Only
 Value Taken    Lamda =   0.00000014
 Searching for Lamda that Minimizes Along All other modes
 Value Taken    Lamda =  -0.00000587
 Step Taken.  Stepsize is  0.008466

                             Maximum     Tolerance    Cnvgd?
         Gradient            0.000659       0.000300      NO
         Displacement        0.004771       0.001200      NO
         Energy change     -0.000224       0.000001      NO


 New Cartesian Coordinates Obtained by Inverse Iteration

 Displacement from previous Coordinates is:  0.005937
 ----------------------------------------------------------------
             Standard Nuclear Orientation (Angstroms)
    I     Atom           X                Y                Z
 ----------------------------------------------------------------
    1      C      -2.3093862336     1.2991896438     0.1040053029
    2      C      -1.6233992355     0.0000000000    -0.1563935882
    3      Se      3.3762738036     0.0000000000    -0.0992139762
    4      H       3.2048846239     0.0000000000     1.3709957747
    5      C      -2.3093862336    -1.2991896438     0.1040053029
    6      H      -1.6128328482     2.1432185421     0.0760779715
    7      H      -3.0976719426     1.5114448539    -0.6407230600
    8      H      -2.8094376409     1.3034187955     1.0822720290
    9      H      -0.7208958614     0.0000000000    -0.7621586969
   10      H      -3.0976719426    -1.5114448539    -0.6407230600
   11      H      -1.6128328482    -2.1432185421     0.0760779715
   12      H      -2.8094376409    -1.3034187955     1.0822720290
 ----------------------------------------------------------------
 Nuclear Repulsion Energy =   170.3185769272 hartrees
 There are       31 alpha and       29 beta electrons

                       Distance Matrix (Angstroms)
             C (  1)   C (  2)   Se(  3)   H (  4)   C (  5)   H (  6)
   C (  2)  1.492072
   Se(  3)  5.835745  5.000000
   H (  4)  5.805200  5.064113  1.480166
   C (  5)  2.598379  1.492072  5.835745  5.805200
   H (  6)  1.094692  2.155815  5.432798  5.429604  3.512284
   H (  7)  1.105019  2.166223  6.670058  6.786287  3.012587  1.765698
   H (  8)  1.098670  2.154038  6.431006  6.160709  2.825001  1.774698
   H (  9)  2.227428  1.086952  4.150457  4.467897  2.227428  2.468112
   H ( 10)  3.012587  2.166223  6.670058  6.786287  1.105019  4.009378
   H ( 11)  3.512284  2.155815  5.432798  5.429604  1.094692  4.286437
   H ( 12)  2.825001  2.154038  6.431006  6.160709  1.098670  3.784653
             H (  7)   H (  8)   H (  9)   H ( 10)   H ( 11)
   H (  8)  1.759280
   H (  9)  2.819269  3.076172
   H ( 10)  3.022890  3.312891  2.819269
   H ( 11)  4.009378  3.784653  2.468112  1.765698
   H ( 12)  3.312891  2.606838  3.076172  1.759280  1.774698
 
 Applying Cartesian multipole field
    Component          Value
    ---------          -----
     (2,0,0)        1.00000E-11
     (0,2,0)        2.00000E-11
     (0,0,2)       -3.00000E-10
 Nucleus-field energy     =     0.0000000145 hartrees
 Requested basis set is 6-31G(d,p)
 There are 44 shells and 120 basis functions
 A cutoff of  1.0D-14 yielded    817 shell pairs
 There are      5710 function pairs
 Smallest overlap matrix eigenvalue = 6.79E-04
 Guess from superposition of atomic densities
 Warning:  Energy on first SCF cycle will be non-variational
 SAD guess density has 59.968191 electrons

 -----------------------------------------------------------------------
  General SCF calculation program by
  Eric Jon Sundstrom, Paul Horn, Yuezhi Mao, Dmitri Zuev, Alec White,
  David Stuck, Shaama M.S., Shane Yost, Joonho Lee, David Small,
  Daniel Levine, Susi Lehtola, Hugh Burton, Evgeny Epifanovsky
 -----------------------------------------------------------------------
 Exchange:     0.2000 Hartree-Fock + 0.0800 Slater + 0.7200 B88
 Correlation:  0.1900 VWN1RPA + 0.8100 LYP
 Using SG-1 standard quadrature grid
 using 12 threads for integral computing
 -------------------------------------------------------
 OpenMP Integral computing Module                
 Release: version 1.0, May 2013, Q-Chem Inc. Pittsburgh 
 -------------------------------------------------------
 -------------------------------------------------------
 OpenMP BLAS3 based DFT computing Module                
 Release: version 1.0, May 2013, Q-Chem Inc. Pittsburgh 
 -------------------------------------------------------
 A unrestricted SCF calculation will be
 performed using DIIS
 SCF converges when DIIS error is below 1.0e-06
 Alpha HF Exchange    Energy = -10.33250145915651
 Beta HF Exchange     Energy = -10.33250145915651
 DFT Correlation      Energy =  -3.07036988761919
 DFT Exchange         Energy = -81.97273738957153
 One-Electron (alpha) Energy = -1917.56279148531212
 One-Electron (beta)  Energy = -1917.56279148531212
 Total Coulomb        Energy = 1247.55307491259646
 ---------------------------------------
  Cycle       Energy         DIIS error
 ---------------------------------------
    1   -2522.9620413119      1.38e-01  
 Alpha HF Exchange    Energy = -10.51106520540505
 Beta HF Exchange     Energy = -10.32704335642831
 DFT Correlation      Energy =  -3.10603811907359
 DFT Exchange         Energy = -82.90253419023080
 One-Electron (alpha) Energy = -1939.94093361363502
 One-Electron (beta)  Energy = -1907.43753604454628
 Total Coulomb        Energy = 1263.67722218716858
    2   -2520.2293514005      8.88e-03  
 Alpha HF Exchange    Energy = -10.40882474286970
 Beta HF Exchange     Energy = -10.23782893475168
 DFT Correlation      Energy =  -3.06708413149694
 DFT Exchange         Energy = -82.11909421675269
 One-Electron (alpha) Energy = -1931.44704075241884
 One-Electron (beta)  Energy = -1899.67662713174946
 Total Coulomb        Energy = 1246.41212184731899
    3   -2520.2258011211      4.28e-03  
 Alpha HF Exchange    Energy = -10.48825789700412
 Beta HF Exchange     Energy = -10.30787391422825
 DFT Correlation      Energy =  -3.09599309324730
 DFT Exchange         Energy = -82.72347362705700
 One-Electron (alpha) Energy = -1937.99598088326798
 One-Electron (beta)  Energy = -1905.49137704577424
 Total Coulomb        Energy = 1259.47462708617968
    4   -2520.3097524327      2.45e-03  
 Alpha HF Exchange    Energy = -10.46213386093034
 Beta HF Exchange     Energy = -10.28461478259075
 DFT Correlation      Energy =  -3.08609139658713
 DFT Exchange         Energy = -82.52263772964720
 One-Electron (alpha) Energy = -1936.03752908705042
 One-Electron (beta)  Energy = -1903.66459204225634
 Total Coulomb        Energy = 1255.39047203390123
    5   -2520.3485499235      1.49e-04  
 Alpha HF Exchange    Energy = -10.46070591712281
 Beta HF Exchange     Energy = -10.28330771807445
 DFT Correlation      Energy =  -3.08582239943983
 DFT Exchange         Energy = -82.51228867764550
 One-Electron (alpha) Energy = -1935.85124932653025
 One-Electron (beta)  Energy = -1903.49867269281117
 Total Coulomb        Energy = 1255.02480154405748
    6   -2520.3486682459      5.84e-05  
 Alpha HF Exchange    Energy = -10.46071641973129
 Beta HF Exchange     Energy = -10.28338148869759
 DFT Correlation      Energy =  -3.08567666523971
 DFT Exchange         Energy = -82.51231854745079
[...]
         Displacement       0.002733      0.001200      NO
         Energy change     -0.000003      0.000001      NO


 New Cartesian Coordinates Obtained by Inverse Iteration

 Displacement from previous Coordinates is:  0.004670
 ----------------------------------------------------------------
             Standard Nuclear Orientation (Angstroms)
    I     Atom           X                Y                Z
 ----------------------------------------------------------------
    1      C      -2.3093686989     1.2992860570     0.1040585531
    2      C      -1.6234388249     0.0000000000    -0.1558979956
    3      Se      3.3762466758     0.0000000000    -0.0998185935
    4      H       3.2039903376     0.0000000000     1.3702997928
    5      C      -2.3093686989    -1.2992860570     0.1040585531
    6      H      -1.6125894836     2.1431370885     0.0766023920
    7      H      -3.0971550884     1.5117362464    -0.6411422134
    8      H      -2.8100590279     1.3036392922     1.0820108314
    9      H      -0.7202475907     0.0000000000    -0.7611483301
   10      H      -3.0971550884    -1.5117362464    -0.6411422134
   11      H      -1.6125894836    -2.1431370885     0.0766023920
   12      H      -2.8100590279    -1.3036392922     1.0820108314
 ----------------------------------------------------------------
 Nuclear Repulsion Energy =   170.3182119582 hartrees
 There are       31 alpha and       29 beta electrons

                       Distance Matrix (Angstroms)
             C (  1)   C (  2)   Se(  3)   H (  4)   C (  5)   H (  6)
   C (  2)  1.492053
   Se(  3)  5.835746  5.000000
   H (  4)  5.804192  5.062939  1.480176
   C (  5)  2.598572  1.492053  5.835746  5.804192
   H (  6)  1.094687  2.155739  5.432554  5.428271  3.512340
   H (  7)  1.105019  2.166252  6.669581  6.784960  3.012935  1.765718
   H (  8)  1.098681  2.154057  6.431685  6.160469  2.825297  1.774693
   H (  9)  2.227562  1.087236  4.149533  4.465727  2.227562  2.468023
   H ( 10)  3.012935  2.166252  6.669581  6.784960  1.105019  4.009637
   H ( 11)  3.512340  2.155739  5.432554  5.428271  1.094687  4.286274
   H ( 12)  2.825297  2.154057  6.431685  6.160469  1.098681  3.784844
             H (  7)   H (  8)   H (  9)   H ( 10)   H ( 11)
   H (  8)  1.759257
   H (  9)  2.819475  3.076365
   H ( 10)  3.023472  3.313310  2.819475
   H ( 11)  4.009637  3.784844  2.468023  1.765718
   H ( 12)  3.313310  2.607279  3.076365  1.759257  1.774693
 
 Applying Cartesian multipole field
    Component          Value
    ---------          -----
     (2,0,0)        1.00000E-11
     (0,2,0)        2.00000E-11
     (0,0,2)       -3.00000E-10
 Nucleus-field energy     =     0.0000000145 hartrees
 Requested basis set is 6-31G(d,p)
 There are 44 shells and 120 basis functions
 A cutoff of  1.0D-14 yielded    817 shell pairs
 There are      5710 function pairs
 Smallest overlap matrix eigenvalue = 6.79E-04
 Guess from superposition of atomic densities
 Warning:  Energy on first SCF cycle will be non-variational
 SAD guess density has 59.968191 electrons

 -----------------------------------------------------------------------
  General SCF calculation program by
  Eric Jon Sundstrom, Paul Horn, Yuezhi Mao, Dmitri Zuev, Alec White,
  David Stuck, Shaama M.S., Shane Yost, Joonho Lee, David Small,
  Daniel Levine, Susi Lehtola, Hugh Burton, Evgeny Epifanovsky
 -----------------------------------------------------------------------
 Exchange:     0.2000 Hartree-Fock + 0.0800 Slater + 0.7200 B88
 Correlation:  0.1900 VWN1RPA + 0.8100 LYP
 Using SG-1 standard quadrature grid
 using 12 threads for integral computing
 -------------------------------------------------------
 OpenMP Integral computing Module                
 Release: version 1.0, May 2013, Q-Chem Inc. Pittsburgh 
 -------------------------------------------------------
 -------------------------------------------------------
 OpenMP BLAS3 based DFT computing Module                
 Release: version 1.0, May 2013, Q-Chem Inc. Pittsburgh 
 -------------------------------------------------------
 A unrestricted SCF calculation will be
 performed using DIIS
 SCF converges when DIIS error is below 1.0e-06
 Alpha HF Exchange    Energy = -10.33248641811582
 Beta HF Exchange     Energy = -10.33248641811582
 DFT Correlation      Energy =  -3.07036625969233
 DFT Exchange         Energy = -81.97270416679910
 One-Electron (alpha) Energy = -1917.56256750736929
 One-Electron (beta)  Energy = -1917.56256750736929
 Total Coulomb        Energy = 1247.55301160798444
 ---------------------------------------
  Cycle       Energy         DIIS error
 ---------------------------------------
    1   -2522.9619546967      1.38e-01  
 Alpha HF Exchange    Energy = -10.51105164263515
 Beta HF Exchange     Energy = -10.32703167385913
 DFT Correlation      Energy =  -3.10603344915487
 DFT Exchange         Energy = -82.90244389072092
 One-Electron (alpha) Energy = -1939.94030785555515
 One-Electron (beta)  Energy = -1907.43707335363615
 Total Coulomb        Energy = 1263.67637297664191
    2   -2520.2293569162      8.88e-03  
 Alpha HF Exchange    Energy = -10.40881529023461
 Beta HF Exchange     Energy = -10.23781836741077
 DFT Correlation      Energy =  -3.06707983392339
 DFT Exchange         Energy = -82.11902420831289
 One-Electron (alpha) Energy = -1931.44671836578141
 One-Electron (beta)  Energy = -1899.67642793313757
 Total Coulomb        Energy = 1246.41187093162034
    3   -2520.2258010944      4.28e-03  
 Alpha HF Exchange    Energy = -10.48824820082254
 Beta HF Exchange     Energy = -10.30786373452459
 DFT Correlation      Energy =  -3.09598945293936
 DFT Exchange         Energy = -82.72340526848845
 One-Electron (alpha) Energy = -1937.99552733586916
 One-Electron (beta)  Energy = -1905.49105504896966
 Total Coulomb        Energy = 1259.47412729443658
    4   -2520.3097497744      2.45e-03  
 Alpha HF Exchange    Energy = -10.46212308946118
 Beta HF Exchange     Energy = -10.28460405653068
 DFT Correlation      Energy =  -3.08608704412424
 DFT Exchange         Energy = -82.52256212014242
 One-Electron (alpha) Energy = -1936.03707572415146
 One-Electron (beta)  Energy = -1903.66427557499401
 Total Coulomb        Energy = 1255.38996529467840
    5   -2520.3485503420      1.49e-04  
 Alpha HF Exchange    Energy = -10.46069581975055
 Beta HF Exchange     Energy = -10.28329692846260
 DFT Correlation      Energy =  -3.08581827457579
 DFT Exchange         Energy = -82.51221580081483
 One-Electron (alpha) Energy = -1935.85083331535679
 One-Electron (beta)  Energy = -1903.49838230150181
 Total Coulomb        Energy = 1255.02436171506906
    6   -2520.3486687527      5.84e-05  
 Alpha HF Exchange    Energy = -10.46070595612263
 Beta HF Exchange     Energy = -10.28337054858692
 DFT Correlation      Energy =  -3.08567242169619
 DFT Exchange         Energy = -82.51224357098579
 One-Electron (alpha) Energy = -1935.86686080108734
 One-Electron (beta)  Energy = -1903.50808231411611
 Total Coulomb        Energy = 1255.05003628541590
    7   -2520.3486873544      9.74e-06  
 Alpha HF Exchange    Energy = -10.46080105382361
 Beta HF Exchange     Energy = -10.28343408967199
 DFT Correlation      Energy =  -3.08568940950691
 DFT Exchange         Energy = -82.51285945823059
 One-Electron (alpha) Energy = -1935.87799480933700
 One-Electron (beta)  Energy = -1903.51295641185652
 Total Coulomb        Energy = 1255.06683457359077
    8   -2520.3486886861      3.27e-06  
 Alpha HF Exchange    Energy = -10.46079418202361
 Beta HF Exchange     Energy = -10.28344043340295
 DFT Correlation      Energy =  -3.08568116509355
 DFT Exchange         Energy = -82.51284759847900
 One-Electron (alpha) Energy = -1935.87691499759467
 One-Electron (beta)  Energy = -1903.51094710069833
 Total Coulomb        Energy = 1255.06372466127141
    9   -2520.3486888433      1.86e-06  
 Alpha HF Exchange    Energy = -10.46079792793943
 Beta HF Exchange     Energy = -10.28344041150838
 DFT Correlation      Energy =  -3.08568027203701
 DFT Exchange         Energy = -82.51286126847344
 One-Electron (alpha) Energy = -1935.87727130851795
 One-Electron (beta)  Energy = -1903.51110674531469
 Total Coulomb        Energy = 1255.06425708878896
   10   -2520.3486888723      4.77e-07  Convergence criterion met
 ---------------------------------------
 SCF time:   CPU 25.67s  wall 3.00s 
<S^2> =          2.005979863
 Alpha HF Exchange    Energy = -10.46079792793943
 Beta HF Exchange     Energy = -10.28344041150838
 DFT Correlation      Energy =  -3.08568027203701
 DFT Exchange         Energy = -82.51286126847344
 One-Electron (alpha) Energy = -1935.87727130851795
 One-Electron (beta)  Energy = -1903.51110674531469
 Total Coulomb        Energy = 1255.06425708878896
 Nuclear repulsion Energy = 170.31821197273257
 SCF   energy in the final basis set =    -2520.3486888723
 Total energy in the final basis set =    -2520.3486888723
 
 --------------------------------------------------------------
 
                    Orbital Energies (a.u.)
 --------------------------------------------------------------
 
 Alpha MOs
 -- Occupied --
******* -58.118 -52.178 -52.175 -52.171 -10.182 -10.174 -10.174
 -7.852  -5.800  -5.794  -5.782  -2.133  -2.132  -2.122  -2.118
 -2.116  -0.773  -0.712  -0.684  -0.564  -0.444  -0.422  -0.402
 -0.395  -0.379  -0.348  -0.341  -0.300  -0.256  -0.175
 -- Virtual --
  0.015   0.105   0.121   0.147   0.154   0.176   0.183   0.190
  0.193   0.242   0.254   0.258   0.298   0.302   0.491   0.501
  0.516   0.523   0.526   0.527   0.558   0.568   0.591   0.624
  0.655   0.725   0.736   0.749   0.814   0.856   0.859   0.883
  0.894   0.929   0.946   0.956   0.969   1.249   1.299   1.355
  1.361   1.508   1.537   1.687   1.802   1.819   1.865   1.895
  1.981   2.049   2.053   2.058   2.065   2.078   2.108   2.122
  2.140   2.285   2.294   2.380   2.389   2.486   2.544   2.579
  2.591   2.680   2.731   2.769   2.842   2.871   2.914   2.969
  3.156   3.206   3.354   3.427   3.430   3.456   3.535   4.188
  4.203   4.204   4.223   4.245   4.349   4.491   4.564   5.390
 89.561
 
 Beta MOs
 -- Occupied --
******* -58.117 -52.174 -52.173 -52.171 -10.175 -10.175 -10.168
 -7.849  -5.792  -5.791  -5.780  -2.127  -2.127  -2.117  -2.117
 -2.114  -0.756  -0.682  -0.677  -0.542  -0.439  -0.405  -0.396
 -0.384  -0.373  -0.344  -0.336  -0.244
 -- Virtual --
 -0.176  -0.025   0.023   0.108   0.127   0.150   0.161   0.186
  0.188   0.193   0.200   0.247   0.268   0.282   0.305   0.308
  0.503   0.519   0.531   0.534   0.569   0.572   0.577   0.594
  0.595   0.635   0.683   0.734   0.747   0.750   0.831   0.861
  0.864   0.887   0.902   0.934   0.950   0.965   0.976   1.263
  1.307   1.362   1.383   1.525   1.537   1.693   1.825   1.830
  1.892   1.917   2.006   2.054   2.059   2.059   2.062   2.084
  2.113   2.125   2.147   2.287   2.313   2.390   2.393   2.507
  2.562   2.580   2.602   2.685   2.735   2.774   2.849   2.878
  2.921   2.974   3.160   3.212   3.361   3.429   3.433   3.461
  3.540   4.210   4.217   4.218   4.236   4.248   4.355   4.491
  4.576   5.405  89.567
 --------------------------------------------------------------
 
          Ground-State Mulliken Net Atomic Charges

     Atom                 Charge (a.u.)    Spin (a.u.)
  --------------------------------------------------------
      1 C                    -0.333864      -0.080021
      2 C                    -0.075705       1.018526
      3 Se                   -0.075800       1.027998
      4 H                     0.076068      -0.027495
      5 C                    -0.333864      -0.080021
      6 H                     0.108718       0.007046
      7 H                     0.108219       0.063143
      8 H                     0.105702       0.023525
      9 H                     0.097888      -0.046416
     10 H                     0.108219       0.063143
     11 H                     0.108718       0.007046
     12 H                     0.105702       0.023525
  --------------------------------------------------------
  Sum of atomic charges =     0.000000
  Sum of spin   charges =     2.000000

 -----------------------------------------------------------------
                    Cartesian Multipole Moments
 -----------------------------------------------------------------
    Charge (ESU x 10^10)
                 0.0000
    Dipole Moment (Debye)
         X      -0.1937      Y      -0.0000      Z       0.6070
       Tot       0.6371
    Quadrupole Moments (Debye-Ang)
        XX     -42.0270     XY      -0.0000     YY     -38.3400
        XZ       1.7625     YZ      -0.0000     ZZ     -38.0617
    Octopole Moments (Debye-Ang^2)
       XXX     -88.4838    XXY      -0.0000    XYY     -16.0908
       YYY      -0.0000    XXZ       6.1470    XYZ       0.0000
       YYZ       0.0651    XZZ     -13.8640    YZZ      -0.0000
       ZZZ       2.3184
    Hexadecapole Moments (Debye-Ang^3)
      XXXX   -2115.2142   XXXY      -0.0000   XXYY    -352.3930
      XYYY      -0.0000   YYYY    -226.4418   XXXZ      29.7272
      XXYZ      -0.0000   XYYZ       5.8927   YYYZ      -0.0000
      XXZZ    -311.5140   XYZZ      -0.0000   YYZZ     -50.4900
      XZZZ      16.1375   YZZZ      -0.0000   ZZZZ     -68.2985
 -----------------------------------------------------------------
 Calculating analytic gradient of the SCF energy
 Gradient of SCF Energy
            1           2           3           4           5           6
    1  -0.0000092  -0.0000523  -0.0000229   0.0000691  -0.0000092  -0.0000013
    2   0.0000015   0.0000000   0.0000000   0.0000000  -0.0000015  -0.0000006
    3  -0.0000112   0.0002100   0.0000382   0.0000443  -0.0000112  -0.0000015
            7           8           9          10          11          12
    1   0.0000016  -0.0000017   0.0000274   0.0000016  -0.0000013  -0.0000017
    2  -0.0000006  -0.0000014   0.0000000   0.0000006   0.0000006   0.0000014
    3  -0.0000046  -0.0000031  -0.0002515  -0.0000046  -0.0000015  -0.0000031
 Max gradient component =       2.515E-04
 RMS gradient           =       5.775E-05
 Gradient time:  CPU 9.06 s  wall 0.76 s
 Geometry Optimization Parameters
   NAtoms,    NIC,     NZ,  NCons,   NDum,   NFix, NCnnct, MaxDiis
       12      74       0       1       0       0       0       0

 Cartesian Hessian Update
 Hessian Updated using BFGS Update


** CONSTRAINED OPTIMIZATION IN DELOCALIZED INTERNAL COORDINATES **
   Searching for a Minimum

   Optimization Cycle:   6

                       Coordinates (Angstroms)
     ATOM                X               Y               Z
      1  C        -2.3093686989    1.2992860570    0.1040585531
      2  C        -1.6234388249    0.0000000000   -0.1558979956
      3  Se        3.3762466758    0.0000000000   -0.0998185935
      4  H         3.2039903376    0.0000000000    1.3702997928
      5  C        -2.3093686989   -1.2992860570    0.1040585531
      6  H        -1.6125894836    2.1431370885    0.0766023920
      7  H        -3.0971550884    1.5117362464   -0.6411422134
      8  H        -2.8100590279    1.3036392922    1.0820108314
      9  H        -0.7202475907    0.0000000000   -0.7611483301
     10  H        -3.0971550884   -1.5117362464   -0.6411422134
     11  H        -1.6125894836   -2.1431370885    0.0766023920
     12  H        -2.8100590279   -1.3036392922    1.0820108314
   Point Group: c1    Number of degrees of freedom:    30


   Energy is  -2520.348688872

              Constraints and their Current Values
                                        Value     Constraint
   Distance(Angs):        2   3             5.000000     5.000000
 Hessian Updated using BFGS Update

 16 Hessian modes will be used to form the next step
  Hessian Eigenvalues:
     0.003267    0.044998    0.045238    0.091333    0.092353    0.092855
     0.159865    0.160007    0.160109    0.176742    0.219757    0.331354
     0.332373    0.338234    0.342804    0.526932

 Minimum Search - Taking Simple RFO Step
 Searching for Lamda that Minimizes Along All modes
 Value Taken    Lamda =  -0.00000335
 Step Taken.  Stepsize is  0.031487

                             Maximum     Tolerance    Cnvgd?
         Gradient           0.000130      0.000300     YES
         Displacement       0.017108      0.001200      NO
         Energy change     -0.000001      0.000001     YES


                       Distance Matrix (Angstroms)
             C (  1)   C (  2)   Se(  3)   H (  4)   C (  5)   H (  6)
   C (  2)  1.492053
   Se(  3)  5.835746  5.000000
   H (  4)  5.804192  5.062939  1.480176
   C (  5)  2.598572  1.492053  5.835746  5.804192
   H (  6)  1.094687  2.155739  5.432554  5.428271  3.512340
   H (  7)  1.105019  2.166252  6.669581  6.784960  3.012935  1.765718
   H (  8)  1.098681  2.154057  6.431685  6.160469  2.825297  1.774693
   H (  9)  2.227562  1.087236  4.149533  4.465727  2.227562  2.468023
   H ( 10)  3.012935  2.166252  6.669581  6.784960  1.105019  4.009637
   H ( 11)  3.512340  2.155739  5.432554  5.428271  1.094687  4.286274
   H ( 12)  2.825297  2.154057  6.431685  6.160469  1.098681  3.784844
             H (  7)   H (  8)   H (  9)   H ( 10)   H ( 11)
   H (  8)  1.759257
   H (  9)  2.819475  3.076365
   H ( 10)  3.023472  3.313310  2.819475
   H ( 11)  4.009637  3.784844  2.468023  1.765718
   H ( 12)  3.313310  2.607279  3.076365  1.759257  1.774693
 
 Final energy is   -2520.34868887227     


 ******************************
 **  OPTIMIZATION CONVERGED  **
 ******************************

                       Coordinates (Angstroms)
     ATOM                X               Y               Z
      1  C        -2.3093686989    1.2992860570    0.1040585531
      2  C        -1.6234388249    0.0000000000   -0.1558979956
      3  Se        3.3762466758    0.0000000000   -0.0998185935
      4  H         3.2039903376    0.0000000000    1.3702997928
      5  C        -2.3093686989   -1.2992860570    0.1040585531
      6  H        -1.6125894836    2.1431370885    0.0766023920
      7  H        -3.0971550884    1.5117362464   -0.6411422134
      8  H        -2.8100590279    1.3036392922    1.0820108314
      9  H        -0.7202475907    0.0000000000   -0.7611483301
     10  H        -3.0971550884   -1.5117362464   -0.6411422134
     11  H        -1.6125894836   -2.1431370885    0.0766023920
     12  H        -2.8100590279   -1.3036392922    1.0820108314

Z-matrix Print:
$molecule
0 3
Se
H  1 1.480176
H  1 4.149533 2 92.487618
C  3 1.087236 1 137.002410 2 -0.000000 0
C  4 1.492053 3 118.613041 1 -97.276321 0
H  5 1.094687 4 111.979885 3 27.518260 0
H  5 1.098681 4 111.594610 3 148.751882 0
H  5 1.105019 4 112.189353 3 -92.535221 0
C  4 1.492053 3 118.613041 1 97.276321 0
H  9 1.094687 4 111.979885 3 -27.518260 0
H  9 1.098681 4 111.594610 3 -148.751882 0
H  9 1.105019 4 112.189353 3 92.535221 0
$end

PES scan, value:    5.0000 energy: -2520.3486888723
------- Summary of potential scan: ------ 
    5.0000     -2520.3486888723
----------------------------------------- 
Archival summary:
1\1\hpc0248\JobtypUnspecified\ProcedureUnspecified\6-31G**\e138(3)\knomura\WedMar1315:29:082019WedMar1315:29:082019\0\\#,JobtypUnspecified,ProcedureUnspecified,6-31G**,\\0,3\Se\H,1,1.48018\H,1,4.14953,2,92.4876\C,3,1.08724,1,137.002,2,-0,0\C,4,1.49205,3,118.613,1,-97.2763,0\H,5,1.09469,4,111.98,3,27.5183,0\H,5,1.09868,4,111.595,3,148.752,0\H,5,1.10502,4,112.189,3,-92.5352,0\C,4,1.49205,3,118.613,1,97.2763,0\H,9,1.09469,4,111.98,3,-27.5183,0\H,9,1.09868,4,111.595,3,-148.752,0\H,9,1.10502,4,112.189,3,92.5352,0\\\@

 Total job time:  20.37s(wall), 235.91s(cpu) 
 Wed Mar 13 15:29:08 2019

        *************************************************************
        *                                                           *
        *  Thank you very much for using Q-Chem.  Have a nice day.  *
        *                                                           *
        *************************************************************


