
Running Job 1 of 1 selenium/01/C-Se.xyz.data/inputs/bond_singlet_2.2.in
qchem selenium/01/C-Se.xyz.data/inputs/bond_singlet_2.2.in_18968.0 /staging/scratch/2868765/qchem18968/ 1
/usr/usc/qchem/5.1.1/exe/qcprog.exe_s selenium/01/C-Se.xyz.data/inputs/bond_singlet_2.2.in_18968.0 /staging/scratch/2868765/qchem18968/
Check license passed

                  Welcome to Q-Chem
     A Quantum Leap Into The Future Of Chemistry


 Q-Chem 5.1, Q-Chem, Inc., Pleasanton, CA (2018)

 Yihan Shao,  Zhengting Gan,  E. Epifanovsky,  A. T. B. Gilbert,  M. Wormit,  
 J. Kussmann,  A. W. Lange,  A. Behn,  Jia Deng,  Xintian Feng,  D. Ghosh,  
 M. Goldey,  P. R. Horn,  L. D. Jacobson,  I. Kaliman,  T. Kus,  A. Landau,  
 Jie Liu,  E. I. Proynov,  R. M. Richard,  R. P. Steele,  E. J. Sundstrom,  
 H. L. Woodcock III,  P. M. Zimmerman,  D. Zuev,  B. Albrecht,  E. Alguire,  
 S. A. Baeppler,  D. Barton,  Z. Benda,  Y. A. Bernard,  E. J. Berquist,  
 K. B. Bravaya,  H. Burton,  D. Casanova,  Chun-Min Chang,  Yunqing Chen,  
 A. Chien,  K. D. Closser,  M. P. Coons,  S. Coriani,  S. Dasgupta,  
 A. L. Dempwolff,  M. Diedenhofen,  Hainam Do,  R. G. Edgar,  Po-Tung Fang,  
 S. Faraji,  S. Fatehi,  Qingguo Feng,  K. D. Fenk,  J. Fosso-Tande,  
 Qinghui Ge,  A. Ghysels,  G. Gidofalvi,  J. Gomes,  J. Gonthier,  A. Gunina,  
 D. Hait,  M. W. D. Hanson-Heine,  P. H. P. Harbach,  A. W. Hauser,  
 J. E. Herr,  E. G. Hohenstein,  Z. C. Holden,  Kerwin Hui,  B. C. Huynh,  
 T.-C. Jagau,  Hyunjun Ji,  B. Kaduk,  K. Khistyaev,  Jaehoon Kim,  
 P. Klunzinger,  K. Koh,  D. Kosenkov,  L. Koulias,  T. Kowalczyk,  
 C. M. Krauter,  A. Kunitsa,  Ka Un Lao,  A. Laurent,  K. V. Lawler,  
 Joonho Lee,  D. Lefrancois,  S. Lehtola,  D. S. Levine,  Yi-Pei Li,  
 You-Sheng Lin,  Fenglai Liu,  E. Livshits,  A. Luenser,  P. Manohar,  
 E. Mansoor,  S. F. Manzer,  Shan-Ping Mao,  Yuezhi Mao,  N. Mardirossian,  
 A. V. Marenich,  T. Markovich,  L. A. Martinez-Martinez,  S. A. Maurer,  
 N. J. Mayhall,  S. C. McKenzie,  J.-M. Mewes,  A. F. Morrison,  
 J. W. Mullinax,  K. Nanda,  T. S. Nguyen-Beck,  R. Olivares-Amaya,  
 J. A. Parkhill,  T. M. Perrine,  F. Plasser,  P. Pokhilko,  S. Prager,  
 A. Prociuk,  E. Ramos,  D. R. Rehn,  F. Rob,  M. Schneider,  N. Sergueev,  
 S. M. Sharada,  S. Sharma,  D. W. Small,  T. Stauch,  T. Stein,  
 Yu-Chuan Su,  A. J. W. Thom,  A. Tkatchenko,  T. Tsuchimochi,  N. M. Tubman,  
 L. Vogt,  M. L. Vidal,  O. Vydrov,  M. A. Watson,  J. Wenzel,  
 M. de Wergifosse,  T. A. Wesolowski,  A. White,  J. Witte,  A. Yamada,  
 Jun Yang,  K. Yao,  S. Yeganeh,  S. R. Yost,  Zhi-Qiang You,  A. Zech,  
 Igor Ying Zhang,  Xing Zhang,  Yan Zhao,  Ying Zhu,  B. R. Brooks,  
 G. K. L. Chan,  C. J. Cramer,  M. S. Gordon,  W. J. Hehre,  A. Klamt,  
 M. W. Schmidt,  C. D. Sherrill,  D. G. Truhlar,  A. Aspuru-Guzik,  R. Baer,  
 A. T. Bell,  N. A. Besley,  Jeng-Da Chai,  A. E. DePrince, III,  
 R. A. DiStasio Jr.,  A. Dreuw,  B. D. Dunietz,  T. R. Furlani,  
 Chao-Ping Hsu,  Yousung Jung,  Jing Kong,  D. S. Lambrecht,  WanZhen Liang,  
 C. Ochsenfeld,  V. A. Rassolov,  L. V. Slipchenko,  J. E. Subotnik,  
 T. Van Voorhis,  J. M. Herbert,  A. I. Krylov,  P. M. W. Gill,  M. Head-Gordon

 Contributors to earlier versions of Q-Chem not listed above: 
 R. D. Adamson,  B. Austin,  J. Baker,  G. J. O. Beran,  K. Brandhorst,  
 S. T. Brown,  E. F. C. Byrd,  A. K. Chakraborty,  C.-L. Cheng,  
 Siu Hung Chien,  D. M. Chipman,  D. L. Crittenden,  H. Dachsel,  
 R. J. Doerksen,  A. D. Dutoi,  L. Fusti-Molnar,  W. A. Goddard III,  
 A. Golubeva-Zadorozhnaya,  S. R. Gwaltney,  G. Hawkins,  A. Heyden,  
 S. Hirata,  G. Kedziora,  F. J. Keil,  C. Kelley,  Jihan Kim,  R. A. King,  
 R. Z. Khaliullin,  P. P. Korambath,  W. Kurlancheek,  A. M. Lee,  M. S. Lee,  
 S. V. Levchenko,  Ching Yeh Lin,  D. Liotard,  R. C. Lochan,  I. Lotan,  
 P. E. Maslen,  N. Nair,  D. P. O'Neill,  D. Neuhauser,  E. Neuscamman,  
 C. M. Oana,  R. Olson,  B. Peters,  R. Peverati,  P. A. Pieniazek,  
 Y. M. Rhee,  J. Ritchie,  M. A. Rohrdanz,  E. Rosta,  N. J. Russ,  
 H. F. Schaefer III,  N. E. Schultz,  N. Shenvi,  A. C. Simmonett,  A. Sodt,  
 D. Stuck,  K. S. Thanthiriwatte,  V. Vanovschi,  Tao Wang,  A. Warshel,  
 C. F. Williams,  Q. Wu,  X. Xu,  W. Zhang

 Please cite Q-Chem as follows:
 Y. Shao et al., Mol. Phys. 113, 184-215 (2015)
 DOI: 10.1080/00268976.2014.952696

 Q-Chem 5.1.1 for Intel X86 EM64T Linux

 Parts of Q-Chem use Armadillo 8.300.2 (Tropical Shenanigans).
 http://arma.sourceforge.net/

 Q-Chem begins on Wed Mar 13 14:25:10 2019  

Host: 
0

     Scratch files written to /staging/scratch/2868765/qchem18968//
 Aug318 |scratch|qcdevops|jenkins|workspace|build_RNUM 6013   
Processing $rem in /usr/usc/qchem/5.1.1/config/preferences.
 MEM_TOTAL  2000 
Input Ideriv = 2
Curr. Ideriv = -1
Max.  Ideriv = 2

Checking the input file for inconsistencies... 	...done.

--------------------------------------------------------------
User input:
--------------------------------------------------------------

$comment
potential surface scanner
$end

$rem
JOBTYPE  PES_SCAN
UNRESTRICTED TRUE
SYM_IGNORE  TRUE
GEOM_OPT_MAX_CYCLES 400
SCF_MAX_CYCLES 400
METHOD   B3LYP
BASIS   6-31G**
PDB_PRINT 2
SCF_CONVERGENCE 6
THRESH 14
SCF_PRINT 1
$end
$molecule
0 1
C -1.741080 1.275884 0.152331
C -1.106486 0.000000 -0.384069
Se 0.963269 0.000000 -0.028943
H 0.808724 0.000000 1.439436
C -1.741080 -1.275884 0.152331
H -1.265450 2.169200 -0.257983
H -2.806326 1.299066 -0.114520
H -1.674032 1.324743 1.244240
H -1.113532 0.000000 -1.478060
H -2.806326 -1.299066 -0.114520
H -1.265450 -2.169200 -0.257983
H -1.674032 -1.324743 1.244240
$end
$scan
stre 2 3 2.200000 2.201000 0.100000
$end
--------------------------------------------------------------
 ----------------------------------------------------------------
             Standard Nuclear Orientation (Angstroms)
    I     Atom           X                Y                Z
 ----------------------------------------------------------------
    1      C      -1.7410800000     1.2758840000     0.1523310000
    2      C      -1.1064860000     0.0000000000    -0.3840690000
    3      Se      0.9632690000     0.0000000000    -0.0289430000
    4      H       0.8087240000     0.0000000000     1.4394360000
    5      C      -1.7410800000    -1.2758840000     0.1523310000
    6      H      -1.2654500000     2.1692000000    -0.2579830000
    7      H      -2.8063260000     1.2990660000    -0.1145200000
    8      H      -1.6740320000     1.3247430000     1.2442400000
    9      H      -1.1135320000     0.0000000000    -1.4780600000
   10      H      -2.8063260000    -1.2990660000    -0.1145200000
   11      H      -1.2654500000    -2.1692000000    -0.2579830000
   12      H      -1.6740320000    -1.3247430000     1.2442400000
 ----------------------------------------------------------------
 Nuclear Repulsion Energy =   254.0713944436 hartrees
 There are       30 alpha and       30 beta electrons
 Requested basis set is 6-31G(d,p)
 There are 44 shells and 120 basis functions

 Total QAlloc Memory Limit   2000 MB
 Mega-Array Size       188 MB
 MEM_STATIC part       192 MB
A total of 1 constraints
  
            1
    1   1.0100000
    2   2.0100000
    3   3.0100000
    4   2.2000000
    5   2.2010000
    6   0.1000000
    7   0.0000000
    8   0.0000000
    9   0.0000000
   10   0.0000000

                       Distance Matrix (Angstroms)
             C (  1)   C (  2)   Se(  3)   H (  4)   C (  5)   H (  6)
   C (  2)  1.522601
   Se(  3)  2.995704  2.100000
   H (  4)  3.128261  2.644466  1.476489
   C (  5)  2.551768  1.522601  2.995704  3.128261
   H (  6)  1.092060  2.178668  3.118505  3.448022  3.501883
   H (  7)  1.098406  2.156313  3.988075  4.143783  2.799344  1.775391
   H (  8)  1.095056  2.174498  3.214233  2.820837  2.821351  1.771079
   H (  9)  2.163301  1.094014  2.532399  3.493830  2.163301  2.493410
   H ( 10)  2.799344  2.156313  3.988075  4.143783  1.098406  3.797861
   H ( 11)  3.501883  2.178668  3.118505  3.448022  1.092060  4.338400
   H ( 12)  2.821351  2.174498  3.214233  2.820837  1.095056  3.825082
             H (  7)   H (  8)   H (  9)   H ( 10)   H ( 11)
   H (  8)  1.768892
   H (  9)  2.532265  3.078964
   H ( 10)  2.598132  3.164284  2.532265
   H ( 11)  3.797861  3.825082  2.493410  1.775391
   H ( 12)  3.164284  2.649486  3.078964  1.768892  1.771079
 
 A cutoff of  1.0D-14 yielded    954 shell pairs
 There are      7177 function pairs
 
 -------------------------------------------------------
 OpenMP Integral Computing Module                       
 Release: version 1.0, May 2013, Q-Chem Inc. Pittsburgh 
 -------------------------------------------------------
 Integral Job Info:
 Integral job number is                      11
 Integral operator is                         1
 short-range coefficients                     0
 long-range coefficients              100000000
 Omega coefficients                           0
 if combine SR and LR in K                    0
 Integral screening is                        0
 Integral computing path is                   2
 max size of driver memory is            800000
 size of driver memory is                593474
 size of scratch memory is             15267112
 max col of scratch BK array               1296
 max len of scratch array in speh3          155
 max len of scratch index in speh4           18
 max int batch size is                      520
 min int batch size is                       52
 fixed nKL is                                52
 max L of basis functions is                  2
 order of int derivative is                   0
 number of shells is                         44
 number of basis is                         120
 number of cartesian basis is               120
 number of contracted shell pairs           954
 number of primitive shell pairs           3600
 maxK2 (contraction) of shell pair           36
 max number of K2 of shell pair               1
 max number of CS2 of shell pair             86
 max number of PS2 of shell pair            276
 mem total for path MDJ                  519708
 -------------------------------------------------------
 Smallest overlap matrix eigenvalue = 6.75E-04

 Scale SEOQF with 1.000000e-01/1.000000e-01/1.000000e+00

 Standard Electronic Orientation quadrupole field applied
 Nucleus-field energy     =    -0.0000000031 hartrees
 Guess from superposition of atomic densities
 Warning:  Energy on first SCF cycle will be non-variational
 SAD guess density has 59.968191 electrons

 -----------------------------------------------------------------------
  General SCF calculation program by
  Eric Jon Sundstrom, Paul Horn, Yuezhi Mao, Dmitri Zuev, Alec White,
  David Stuck, Shaama M.S., Shane Yost, Joonho Lee, David Small,
  Daniel Levine, Susi Lehtola, Hugh Burton, Evgeny Epifanovsky
 -----------------------------------------------------------------------
 Exchange:     0.2000 Hartree-Fock + 0.0800 Slater + 0.7200 B88
 Correlation:  0.1900 VWN1RPA + 0.8100 LYP
 Using SG-1 standard quadrature grid
 using 12 threads for integral computing
 -------------------------------------------------------
 OpenMP Integral computing Module                
 Release: version 1.0, May 2013, Q-Chem Inc. Pittsburgh 
 -------------------------------------------------------
 -------------------------------------------------------
 OpenMP BLAS3 based DFT computing Module                
 Release: version 1.0, May 2013, Q-Chem Inc. Pittsburgh 
 -------------------------------------------------------
 A unrestricted SCF calculation will be
 performed using DIIS
 SCF converges when DIIS error is below 1.0e-06
 Alpha HF Exchange    Energy = -10.35953941495789
 Beta HF Exchange     Energy = -10.35953941495789
 DFT Correlation      Energy =  -3.08902100527694
 DFT Exchange         Energy = -82.02023985017307
 One-Electron (alpha) Energy = -2001.24967742897843
 One-Electron (beta)  Energy = -2001.24967742897843
 Total Coulomb        Energy = 1330.93328430397264
 ---------------------------------------
  Cycle       Energy         DIIS error
 ---------------------------------------
    1   -2523.3230157989      1.39e-01  
 Alpha HF Exchange    Energy = -10.42007865278481
 Beta HF Exchange     Energy = -10.42007865278481
 DFT Correlation      Energy =  -3.13129788494808
 DFT Exchange         Energy = -82.92107827640268
 One-Electron (alpha) Energy = -2008.52492072560722
 One-Electron (beta)  Energy = -2008.52492072560699
 Total Coulomb        Energy = 1349.54648090204500
    2   -2520.3244995756      8.89e-03  
 Alpha HF Exchange    Energy = -10.32153127505792
 Beta HF Exchange     Energy = -10.32153127505790
 DFT Correlation      Energy =  -3.09478490243254
 DFT Exchange         Energy = -82.11835795685280
 One-Electron (alpha) Energy = -1998.77334428994573
 One-Electron (beta)  Energy = -1998.77334428994391
 Total Coulomb        Energy = 1329.01067908262371
    3   -2520.3208204662      4.39e-03  
 Alpha HF Exchange    Energy = -10.39854905908459
 Beta HF Exchange     Energy = -10.39854905908457
 DFT Correlation      Energy =  -3.12338818042276
 DFT Exchange         Energy = -82.74155280668001
 One-Electron (alpha) Energy = -2006.21781219796958
 One-Electron (beta)  Energy = -2006.21781219796844
 Total Coulomb        Energy = 1344.62312420066610
    4   -2520.4031448601      2.55e-03  
 Alpha HF Exchange    Energy = -10.37291051067228
 Beta HF Exchange     Energy = -10.37291051067228
 DFT Correlation      Energy =  -3.11351146800960
 DFT Exchange         Energy = -82.53206949436753
 One-Electron (alpha) Energy = -2004.11022260298660
 One-Electron (beta)  Energy = -2004.11022260298637
 Total Coulomb        Energy = 1340.09944376121257
    5   -2520.4410089880      5.50e-04  
 Alpha HF Exchange    Energy = -10.37175523084759
 Beta HF Exchange     Energy = -10.37175523084760
 DFT Correlation      Energy =  -3.11371821165242
 DFT Exchange         Energy = -82.52480698086880
 One-Electron (alpha) Energy = -2003.83935756875849
 One-Electron (beta)  Energy = -2003.83935756875940
 Total Coulomb        Energy = 1339.54592945665195
    6   -2520.4434268946      7.92e-05  
 Alpha HF Exchange    Energy = -10.37131810633488
 Beta HF Exchange     Energy = -10.37131810633487
 DFT Correlation      Energy =  -3.11342202630885
 DFT Exchange         Energy = -82.52096576999645
 One-Electron (alpha) Energy = -2003.78294936865836
 One-Electron (beta)  Energy = -2003.78294936865814
 Total Coulomb        Energy = 1339.42805875430076
    7   -2520.4434695515      1.31e-05  
 Alpha HF Exchange    Energy = -10.37138277517793
 Beta HF Exchange     Energy = -10.37138277517793
 DFT Correlation      Energy =  -3.11343943996883
 DFT Exchange         Energy = -82.52147010608431
 One-Electron (alpha) Energy = -2003.80055498027855
 One-Electron (beta)  Energy = -2003.80055498027923
 Total Coulomb        Energy = 1339.46391948127871
    8   -2520.4434711352      6.34e-06  
 Alpha HF Exchange    Energy = -10.37136690566512
 Beta HF Exchange     Energy = -10.37136690566512
 DFT Correlation      Energy =  -3.11344055620045
 DFT Exchange         Energy = -82.52135370222625
 One-Electron (alpha) Energy = -2003.79677020687677
 One-Electron (beta)  Energy = -2003.79677020687677
 Total Coulomb        Energy = 1339.45620266992046
    9   -2520.4434713731      7.49e-07  Convergence criterion met
 ---------------------------------------
 SCF time:   CPU 30.67s  wall 3.00s 
<S^2> =          0.000000000
 Alpha HF Exchange    Energy = -10.37136690566512
 Beta HF Exchange     Energy = -10.37136690566512
 DFT Correlation      Energy =  -3.11344055620045
 DFT Exchange         Energy = -82.52135370222625
 One-Electron (alpha) Energy = -2003.79677020687677
 One-Electron (beta)  Energy = -2003.79677020687677
 Total Coulomb        Energy = 1339.45620266992046
 Nuclear repulsion Energy = 254.07139444047010
 SCF   energy in the final basis set =    -2520.4434713731
 Total energy in the final basis set =    -2520.4434713731
 
 --------------------------------------------------------------
 
                    Orbital Energies (a.u.)
 --------------------------------------------------------------
 
 Alpha MOs
 -- Occupied --
******* -58.081 -52.138 -52.137 -52.135 -10.233 -10.187 -10.187
 -7.814  -5.759  -5.755  -5.746  -2.093  -2.092  -2.084  -2.081
 -2.080  -0.802  -0.695  -0.679  -0.577  -0.461  -0.440  -0.415
 -0.393  -0.374  -0.356  -0.346  -0.292  -0.221
 -- Virtual --
 -0.006   0.046   0.092   0.128   0.145   0.152   0.171   0.180
  0.185   0.200   0.237   0.238   0.283   0.319   0.328   0.458
  0.458   0.503   0.506   0.563   0.577   0.663   0.675   0.680
  0.699   0.754   0.758   0.773   0.817   0.865   0.868   0.898
  0.901   0.919   0.946   0.953   1.034   1.088   1.309   1.374
  1.376   1.467   1.542   1.659   1.746   1.775   1.844   1.859
  1.881   2.038   2.040   2.041   2.068   2.085   2.091   2.098
  2.110   2.129   2.261   2.303   2.344   2.376   2.517   2.566
  2.604   2.640   2.668   2.704   2.719   2.860   2.866   2.899
  2.899   3.166   3.215   3.318   3.414   3.449   3.456   3.493
  4.234   4.286   4.332   4.352   4.398   4.485   4.503   4.620
  5.483  89.791
 
 Beta MOs
 -- Occupied --
******* -58.081 -52.138 -52.137 -52.135 -10.233 -10.187 -10.187
 -7.814  -5.759  -5.755  -5.746  -2.093  -2.092  -2.084  -2.081
 -2.080  -0.802  -0.695  -0.679  -0.577  -0.461  -0.440  -0.415
 -0.393  -0.374  -0.356  -0.346  -0.292  -0.221
 -- Virtual --
 -0.006   0.046   0.092   0.128   0.145   0.152   0.171   0.180
  0.185   0.200   0.237   0.238   0.283   0.319   0.328   0.458
  0.458   0.503   0.506   0.563   0.577   0.663   0.675   0.680
  0.699   0.754   0.758   0.773   0.817   0.865   0.868   0.898
  0.901   0.919   0.946   0.953   1.034   1.088   1.309   1.374
  1.376   1.467   1.542   1.659   1.746   1.775   1.844   1.859
  1.881   2.038   2.040   2.041   2.068   2.085   2.091   2.098
  2.110   2.129   2.261   2.303   2.344   2.376   2.517   2.566
  2.604   2.640   2.668   2.704   2.719   2.860   2.866   2.899
  2.899   3.166   3.215   3.318   3.414   3.449   3.456   3.493
  4.234   4.286   4.332   4.352   4.398   4.485   4.503   4.620
  5.483  89.791
 --------------------------------------------------------------
 
          Ground-State Mulliken Net Atomic Charges

     Atom                 Charge (a.u.)    Spin (a.u.)
  --------------------------------------------------------
      1 C                    -0.302279       0.000000
      2 C                    -0.141476      -0.000000
      3 Se                   -0.118666       0.000000
      4 H                     0.049964      -0.000000
      5 C                    -0.302279      -0.000000
      6 H                     0.127241       0.000000
      7 H                     0.105585      -0.000000
      8 H                     0.111041      -0.000000
      9 H                     0.127001       0.000000
     10 H                     0.105585      -0.000000
     11 H                     0.127241      -0.000000
     12 H                     0.111041       0.000000
  --------------------------------------------------------
  Sum of atomic charges =     0.000000
  Sum of spin   charges =     0.000000

 -----------------------------------------------------------------
                    Cartesian Multipole Moments
 -----------------------------------------------------------------
    Charge (ESU x 10^10)
                 0.0000
    Dipole Moment (Debye)
         X      -1.9410      Y      -0.0000      Z       0.3006
       Tot       1.9641
    Quadrupole Moments (Debye-Ang)
        XX     -38.9270     XY       0.0000     YY     -40.9646
        XZ       1.1929     YZ       0.0000     ZZ     -36.9888
    Octopole Moments (Debye-Ang^2)
       XXX      40.5470    XXY      -0.0000    XYY      11.2155
       YYY      -0.0000    XXZ      -0.1501    XYZ      -0.0000
       YYZ      -1.1268    XZZ      15.2396    YZZ       0.0000
       ZZZ      -0.6999
    Hexadecapole Moments (Debye-Ang^3)
      XXXX    -478.7106   XXXY       0.0000   XXYY    -123.4928
      XYYY       0.0000   YYYY    -221.2371   XXXZ       9.2405
      XXYZ       0.0000   XYYZ       1.9166   YYYZ       0.0000
      XXZZ     -94.6202   XYZZ      -0.0000   YYZZ     -51.5959
      XZZZ       4.0076   YZZZ       0.0000   ZZZZ     -76.3066
 -----------------------------------------------------------------
 Calculating analytic gradient of the SCF energy
 Gradient of SCF Energy
            1           2           3           4           5           6
    1   0.0000423  -0.0172616   0.0172606   0.0000003   0.0000423   0.0000097
    2  -0.0000119   0.0000000   0.0000000  -0.0000000   0.0000119  -0.0000001
    3   0.0000330  -0.0029862   0.0029468  -0.0000038   0.0000330   0.0000091
            7           8           9          10          11          12
    1  -0.0000026  -0.0000243  -0.0000492  -0.0000026   0.0000097  -0.0000243
    2   0.0000236  -0.0000139   0.0000000  -0.0000236   0.0000001   0.0000139
    3  -0.0000222   0.0000020  -0.0000006  -0.0000222   0.0000091   0.0000020
 Max gradient component =       1.726E-02
 RMS gradient           =       4.128E-03
 Gradient time:  CPU 12.13 s  wall 1.03 s
 Geometry Optimization Parameters
   NAtoms,    NIC,     NZ,  NCons,   NDum,   NFix, NCnnct, MaxDiis
       12      75       0       1       0       0       0       0


** CONSTRAINED OPTIMIZATION IN DELOCALIZED INTERNAL COORDINATES **
   Searching for a Minimum

   Optimization Cycle:   1

                       Coordinates (Angstroms)
     ATOM                X               Y               Z
      1  C        -1.7410800000    1.2758840000    0.1523310000
      2  C        -1.1064860000    0.0000000000   -0.3840690000
      3  Se        0.9632690000    0.0000000000   -0.0289430000
      4  H         0.8087240000    0.0000000000    1.4394360000
      5  C        -1.7410800000   -1.2758840000    0.1523310000
      6  H        -1.2654500000    2.1692000000   -0.2579830000
      7  H        -2.8063260000    1.2990660000   -0.1145200000
      8  H        -1.6740320000    1.3247430000    1.2442400000
      9  H        -1.1135320000    0.0000000000   -1.4780600000
     10  H        -2.8063260000   -1.2990660000   -0.1145200000
     11  H        -1.2654500000   -2.1692000000   -0.2579830000
     12  H        -1.6740320000   -1.3247430000    1.2442400000
   Point Group: c1    Number of degrees of freedom:    30


   Energy is  -2520.443471373

              Constraints and their Current Values
                                        Value     Constraint
   Distance(Angs):        2   3             2.100000     2.200000

 Attempting to Generate Delocalized Internal Coordinates

   Using Lagrange Multiplier Algorithm


 21 Hessian modes will be used to form the next step
  Hessian Eigenvalues:
    -0.942538    0.045000    0.071043    0.076443    0.082125    0.083927
     0.160000    0.160000    0.160000    0.160000    0.160000    0.160000
     0.160000    0.179396    0.205814    0.301174    0.338590    0.342348
     0.343529    0.345757    1.060965

 Minimum Search - Taking P-RFO Step
 Searching for Lamda that Maximizes Along the Constraint modes Only
 Value Taken    Lamda =   0.02315234
 Searching for Lamda that Minimizes Along All other modes
 Value Taken    Lamda =  -0.01272187
 Step Taken.  Stepsize is  0.185418

                             Maximum     Tolerance    Cnvgd?
         Gradient            0.188973       0.000300      NO
         Displacement        0.185414       0.001200      NO
         Energy change     *********       0.000001      NO


 New Cartesian Coordinates Obtained by Inverse Iteration

 Displacement from previous Coordinates is:  0.239152
 ----------------------------------------------------------------
             Standard Nuclear Orientation (Angstroms)
    I     Atom           X                Y                Z
 ----------------------------------------------------------------
    1      C      -1.7572608199     1.2758636051     0.1487337259
    2      C      -1.1216366339     0.0000000000    -0.3865198528
    3      Se      1.0441796554     0.0000000000    -0.0110765022
    4      H       0.8871471365     0.0000000000     1.4570406042
    5      C      -1.7572608199    -1.2758636051     0.1487337259
    6      H      -1.2811191204     2.1692199786    -0.2608945987
    7      H      -2.8220781878     1.2987741948    -0.1197925992
    8      H      -1.6919223741     1.3248533217     1.2407416662
    9      H      -1.1267301535     0.0000000000    -1.4805206376
   10      H      -2.8220781878    -1.2987741948    -0.1197925992
   11      H      -1.2811191204    -2.1692199786    -0.2608945987
   12      H      -1.6919223741    -1.3248533217     1.2407416662
 ----------------------------------------------------------------
 Nuclear Repulsion Energy =   248.6804798258 hartrees
 There are       30 alpha and       30 beta electrons

                       Distance Matrix (Angstroms)
             C (  1)   C (  2)   Se(  3)   H (  4)   C (  5)   H (  6)
   C (  2)  1.522610
   Se(  3)  3.082440  2.198117
   H (  4)  3.214403  2.726523  1.476491
   C (  5)  2.551727  1.522610  3.082440  3.214403
   H (  6)  1.092059  2.178700  3.189818  3.515422  3.501872
   H (  7)  1.098393  2.156260  4.080022  4.234568  2.799054  1.775427
   H (  8)  1.095057  2.174498  3.287634  2.907511  2.821432  1.771052
   H (  9)  2.163300  1.094013  2.621472  3.561596  2.163300  2.493359
   H ( 10)  2.799054  2.156260  4.080022  4.234568  1.098393  3.797558
   H ( 11)  3.501872  2.178700  3.189818  3.515422  1.092059  4.338440
   H ( 12)  2.821432  2.174498  3.287634  2.907511  1.095057  3.825208
             H (  7)   H (  8)   H (  9)   H ( 10)   H ( 11)
   H (  8)  1.768894
   H (  9)  2.532311  3.078952
   H ( 10)  2.597548  3.164131  2.532311
   H ( 11)  3.797558  3.825208  2.493359  1.775427
   H ( 12)  3.164131  2.649707  3.078952  1.768894  1.771052
 
 Applying Cartesian multipole field
    Component          Value
    ---------          -----
     (2,0,0)        1.00000E-11
     (0,2,0)        2.00000E-11
     (0,0,2)       -3.00000E-10
 Nucleus-field energy     =    -0.0000000029 hartrees
 Requested basis set is 6-31G(d,p)
 There are 44 shells and 120 basis functions
 A cutoff of  1.0D-14 yielded    950 shell pairs
 There are      7157 function pairs
 Smallest overlap matrix eigenvalue = 6.75E-04
 Guess from superposition of atomic densities
 Warning:  Energy on first SCF cycle will be non-variational
 SAD guess density has 59.968191 electrons

 -----------------------------------------------------------------------
  General SCF calculation program by
  Eric Jon Sundstrom, Paul Horn, Yuezhi Mao, Dmitri Zuev, Alec White,
  David Stuck, Shaama M.S., Shane Yost, Joonho Lee, David Small,
  Daniel Levine, Susi Lehtola, Hugh Burton, Evgeny Epifanovsky
 -----------------------------------------------------------------------
 Exchange:     0.2000 Hartree-Fock + 0.0800 Slater + 0.7200 B88
 Correlation:  0.1900 VWN1RPA + 0.8100 LYP
 Using SG-1 standard quadrature grid
 using 12 threads for integral computing
 -------------------------------------------------------
 OpenMP Integral computing Module                
 Release: version 1.0, May 2013, Q-Chem Inc. Pittsburgh 
 -------------------------------------------------------
 -------------------------------------------------------
 OpenMP BLAS3 based DFT computing Module                
 Release: version 1.0, May 2013, Q-Chem Inc. Pittsburgh 
 -------------------------------------------------------
 A unrestricted SCF calculation will be
 performed using DIIS
 SCF converges when DIIS error is below 1.0e-06
 Alpha HF Exchange    Energy = -10.35326916131447
 Beta HF Exchange     Energy = -10.35326916131447
 DFT Correlation      Energy =  -3.08674323696421
 DFT Exchange         Energy = -82.00811364776973
 One-Electron (alpha) Energy = -1995.87559144829197
 One-Electron (beta)  Energy = -1995.87559144829197
 Total Coulomb        Energy = 1325.61602776023165
 ---------------------------------------
  Cycle       Energy         DIIS error
 ---------------------------------------
    1   -2523.2560705209      1.38e-01  
 Alpha HF Exchange    Energy = -10.41726575688259
 Beta HF Exchange     Energy = -10.41726575688260
 DFT Correlation      Energy =  -3.12889182875750
 DFT Exchange         Energy = -82.90275074570350
 One-Electron (alpha) Energy = -2003.17810800536313
 One-Electron (beta)  Energy = -2003.17810800536427
 Total Coulomb        Energy = 1344.22148650424515
    2   -2520.3204237719      8.89e-03  
 Alpha HF Exchange    Energy = -10.31936109383678
 Beta HF Exchange     Energy = -10.31936109383677
 DFT Correlation      Energy =  -3.09306387511763
 DFT Exchange         Energy = -82.10658310398915
 One-Electron (alpha) Energy = -1993.35938502738850
 One-Electron (beta)  Energy = -1993.35938502738691
 Total Coulomb        Energy = 1323.55522757329049
    3   -2520.3214318254      4.34e-03  
 Alpha HF Exchange    Energy = -10.39568422148562
 Beta HF Exchange     Energy = -10.39568422148562
 DFT Correlation      Energy =  -3.12060989507788
 DFT Exchange         Energy = -82.72186613875273
 One-Electron (alpha) Energy = -2000.89715392208109
 One-Electron (beta)  Energy = -2000.89715392208109
 Total Coulomb        Energy = 1339.34337392735370
    4   -2520.4042985708      2.46e-03  
 Alpha HF Exchange    Energy = -10.36992844689849
 Beta HF Exchange     Energy = -10.36992844689849
 DFT Correlation      Energy =  -3.11140119980596
 DFT Exchange         Energy = -82.51343188217311
 One-Electron (alpha) Energy = -1998.68026784508038
 One-Electron (beta)  Energy = -1998.68026784508106
 Total Coulomb        Energy = 1334.60708618848093
    5   -2520.4376596546      3.50e-04  
 Alpha HF Exchange    Energy = -10.36910705161101
 Beta HF Exchange     Energy = -10.36910705161100
 DFT Correlation      Energy =  -3.11150783423642
 DFT Exchange         Energy = -82.50835017464718
 One-Electron (alpha) Energy = -1998.44325269666456
 One-Electron (beta)  Energy = -1998.44325269666456
 Total Coulomb        Energy = 1334.12538487635902
    6   -2520.4387128062      1.08e-04  
 Alpha HF Exchange    Energy = -10.36870650285386
 Beta HF Exchange     Energy = -10.36870650285386
 DFT Correlation      Energy =  -3.11119087704458
 DFT Exchange         Energy = -82.50464658757070
 One-Electron (alpha) Energy = -1998.40737477962739
 One-Electron (beta)  Energy = -1998.40737477962693
 Total Coulomb        Energy = 1334.04872554446911
    7   -2520.4387946623      1.27e-05  
 Alpha HF Exchange    Energy = -10.36876713686870
 Beta HF Exchange     Energy = -10.36876713686872
 DFT Correlation      Energy =  -3.11120747740183
 DFT Exchange         Energy = -82.50512685508833
 One-Electron (alpha) Energy = -1998.42407562593621
 One-Electron (beta)  Energy = -1998.42407562593826
 Total Coulomb        Energy = 1334.08274400744563
    8   -2520.4387960278      6.59e-06  
 Alpha HF Exchange    Energy = -10.36875017289004
 Beta HF Exchange     Energy = -10.36875017289004
 DFT Correlation      Energy =  -3.11120804252920
 DFT Exchange         Energy = -82.50499894160079
 One-Electron (alpha) Energy = -1998.42053506660295
 One-Electron (beta)  Energy = -1998.42053506660341
 Total Coulomb        Energy = 1334.07550135954580
    9   -2520.4387962807      7.21e-07  Convergence criterion met
 ---------------------------------------
 SCF time:   CPU 30.26s  wall 8.00s 
<S^2> =         -0.000000000
 Alpha HF Exchange    Energy = -10.36875017289004
 Beta HF Exchange     Energy = -10.36875017289004
 DFT Correlation      Energy =  -3.11120804252920
 DFT Exchange         Energy = -82.50499894160079
 One-Electron (alpha) Energy = -1998.42053506660295
 One-Electron (beta)  Energy = -1998.42053506660341
 Total Coulomb        Energy = 1334.07550135954580
 Nuclear repulsion Energy = 248.68047982285239
 SCF   energy in the final basis set =    -2520.4387962807
 Total energy in the final basis set =    -2520.4387962807
 
 --------------------------------------------------------------
 
                    Orbital Energies (a.u.)
 --------------------------------------------------------------
 
 Alpha MOs
 -- Occupied --
******* -58.080 -52.138 -52.137 -52.134 -10.238 -10.189 -10.189
 -7.813  -5.758  -5.754  -5.745  -2.092  -2.091  -2.083  -2.080
 -2.079  -0.799  -0.696  -0.675  -0.578  -0.461  -0.440  -0.415
 -0.394  -0.371  -0.357  -0.347  -0.286  -0.221
 -- Virtual --
 -0.021   0.043   0.091   0.129   0.144   0.152   0.171   0.180
  0.184   0.201   0.232   0.241   0.282   0.314   0.326   0.457
  0.459   0.502   0.513   0.564   0.572   0.655   0.661   0.673
  0.704   0.750   0.752   0.762   0.802   0.863   0.867   0.897
  0.898   0.914   0.942   0.951   1.024   1.083   1.304   1.362
  1.373   1.440   1.540   1.654   1.733   1.767   1.844   1.858
  1.873   2.032   2.037   2.038   2.066   2.085   2.089   2.094
  2.109   2.126   2.253   2.301   2.340   2.373   2.516   2.565
  2.606   2.633   2.664   2.702   2.718   2.859   2.865   2.894
  2.898   3.164   3.213   3.316   3.413   3.445   3.454   3.491
  4.230   4.285   4.321   4.347   4.390   4.478   4.494   4.604
  5.483  89.775
 
 Beta MOs
 -- Occupied --
******* -58.080 -52.138 -52.137 -52.134 -10.238 -10.189 -10.189
 -7.813  -5.758  -5.754  -5.745  -2.092  -2.091  -2.083  -2.080
 -2.079  -0.799  -0.696  -0.675  -0.578  -0.461  -0.440  -0.415
 -0.394  -0.371  -0.357  -0.347  -0.286  -0.221
 -- Virtual --
 -0.021   0.043   0.091   0.129   0.144   0.152   0.171   0.180
  0.184   0.201   0.232   0.241   0.282   0.314   0.326   0.457
  0.459   0.502   0.513   0.564   0.572   0.655   0.661   0.673
  0.704   0.750   0.752   0.762   0.802   0.863   0.867   0.897
  0.898   0.914   0.942   0.951   1.024   1.083   1.304   1.362
  1.373   1.440   1.540   1.654   1.733   1.767   1.844   1.858
  1.873   2.032   2.037   2.038   2.066   2.085   2.089   2.094
  2.109   2.126   2.253   2.301   2.340   2.373   2.516   2.565
  2.606   2.633   2.664   2.702   2.718   2.859   2.865   2.894
  2.898   3.164   3.213   3.316   3.413   3.445   3.454   3.491
  4.230   4.285   4.321   4.347   4.390   4.478   4.494   4.604
  5.483  89.775
 --------------------------------------------------------------
 
          Ground-State Mulliken Net Atomic Charges

     Atom                 Charge (a.u.)    Spin (a.u.)
  --------------------------------------------------------
      1 C                    -0.305023       0.000000
      2 C                    -0.131770      -0.000000
      3 Se                   -0.138436      -0.000000
      4 H                     0.051236      -0.000000
      5 C                    -0.305023       0.000000
      6 H                     0.128730      -0.000000
      7 H                     0.108115      -0.000000
      8 H                     0.113442      -0.000000
      9 H                     0.128443       0.000000
     10 H                     0.108115      -0.000000
     11 H                     0.128730       0.000000
     12 H                     0.113442       0.000000
  --------------------------------------------------------
  Sum of atomic charges =     0.000000
  Sum of spin   charges =    -0.000000

 -----------------------------------------------------------------
                    Cartesian Multipole Moments
 -----------------------------------------------------------------
    Charge (ESU x 10^10)
                -0.0000
    Dipole Moment (Debye)
         X      -2.1343      Y       0.0000      Z       0.2976
       Tot       2.1549
    Quadrupole Moments (Debye-Ang)
        XX     -38.7478     XY      -0.0000     YY     -40.9563
        XZ       1.2409     YZ      -0.0000     ZZ     -36.9780
    Octopole Moments (Debye-Ang^2)
       XXX      35.6299    XXY       0.0000    XYY       9.5217
       YYY      -0.0000    XXZ      -0.4101    XYZ       0.0000
       YYZ      -1.4148    XZZ      14.0727    YZZ      -0.0000
       ZZZ      -1.3422
    Hexadecapole Moments (Debye-Ang^3)
      XXXX    -501.4993   XXXY      -0.0000   XXYY    -127.4773
      XYYY      -0.0000   YYYY    -220.8886   XXXZ       7.9666
      XXYZ      -0.0000   XYYZ       1.3409   YYYZ      -0.0000
      XXZZ     -98.2845   XYZZ       0.0000   YYZZ     -51.5824
      XZZZ       2.6030   YZZZ      -0.0000   ZZZZ     -76.2516
 -----------------------------------------------------------------
 Calculating analytic gradient of the SCF energy
 Gradient of SCF Energy
            1           2           3           4           5           6
    1  -0.0038963  -0.0213719   0.0307456   0.0006469  -0.0038963   0.0001584
    2   0.0003569   0.0000000   0.0000000   0.0000000  -0.0003569  -0.0000697
    3  -0.0010796  -0.0042532   0.0060057  -0.0000743  -0.0010796   0.0000552
            7           8           9          10          11          12
    1  -0.0000170   0.0002164  -0.0029437  -0.0000170   0.0001584   0.0002164
    2   0.0005846  -0.0001244   0.0000000  -0.0005846   0.0000697   0.0001244
    3   0.0003941   0.0001157  -0.0006491   0.0003941   0.0000552   0.0001157
 Max gradient component =       3.075E-02
 RMS gradient           =       6.455E-03
 Gradient time:  CPU 11.99 s  wall 1.04 s
 Geometry Optimization Parameters
   NAtoms,    NIC,     NZ,  NCons,   NDum,   NFix, NCnnct, MaxDiis
       12      75       0       1       0       0       0       0

 Cartesian Hessian Update
 Hessian Updated using BFGS Update


** CONSTRAINED OPTIMIZATION IN DELOCALIZED INTERNAL COORDINATES **
   Searching for a Minimum

   Optimization Cycle:   2

                       Coordinates (Angstroms)
     ATOM                X               Y               Z
      1  C        -1.7572608199    1.2758636051    0.1487337259
      2  C        -1.1216366339    0.0000000000   -0.3865198528
      3  Se        1.0441796554    0.0000000000   -0.0110765022
      4  H         0.8871471365    0.0000000000    1.4570406042
      5  C        -1.7572608199   -1.2758636051    0.1487337259
      6  H        -1.2811191204    2.1692199786   -0.2608945987
      7  H        -2.8220781878    1.2987741948   -0.1197925992
      8  H        -1.6919223741    1.3248533217    1.2407416662
      9  H        -1.1267301535    0.0000000000   -1.4805206376
     10  H        -2.8220781878   -1.2987741948   -0.1197925992
     11  H        -1.2811191204   -2.1692199786   -0.2608945987
     12  H        -1.6919223741   -1.3248533217    1.2407416662
   Point Group: c1    Number of degrees of freedom:    30


   Energy is  -2520.438796281

              Constraints and their Current Values
                                        Value     Constraint
   Distance(Angs):        2   3             2.198117     2.200000
 Hessian Updated using BFGS Update

   Using Lagrange Multiplier Algorithm


 16 Hessian modes will be used to form the next step
  Hessian Eigenvalues:
    -0.962243    0.045005    0.073462    0.077953    0.082551    0.083927
     0.160000    0.162432    0.179406    0.208335    0.304060    0.338595
     0.342360    0.343710    0.345757    1.040281

 Minimum Search - Taking P-RFO Step
 Searching for Lamda that Maximizes Along the Constraint modes Only
 Value Taken    Lamda =   0.00000319
 Searching for Lamda that Minimizes Along All other modes
 Value Taken    Lamda =  -0.00029962
 Step Taken.  Stepsize is  0.049399

                             Maximum     Tolerance    Cnvgd?
         Gradient            0.006068       0.000300      NO
         Displacement        0.033649       0.001200      NO
         Energy change      0.004675       0.000001      NO


 New Cartesian Coordinates Obtained by Inverse Iteration

 Displacement from previous Coordinates is:  0.054880
 ----------------------------------------------------------------
             Standard Nuclear Orientation (Angstroms)
    I     Atom           X                Y                Z
 ----------------------------------------------------------------
    1      C      -1.7534761329     1.2772462433     0.1502671831
    2      C      -1.1309130546     0.0000000000    -0.3881264755
    3      Se      1.0370073600     0.0000000000    -0.0138043894
    4      H       0.8656343588     0.0000000000     1.4531603851
    5      C      -1.7534761329    -1.2772462433     0.1502671831
    6      H      -1.2747719407     2.1687834533    -0.2603750484
    7      H      -2.8182462536     1.3017260365    -0.1187101072
    8      H      -1.6873915564     1.3263364564     1.2420432985
    9      H      -1.1257578970     0.0000000000    -1.4811801723
   10      H      -2.8182462536    -1.3017260365    -0.1187101072
   11      H      -1.2747719407    -2.1687834533    -0.2603750484
   12      H      -1.6873915564    -1.3263364564     1.2420432985
 ----------------------------------------------------------------
 Nuclear Repulsion Energy =   249.0219147173 hartrees
 There are       30 alpha and       30 beta electrons

                       Distance Matrix (Angstroms)
             C (  1)   C (  2)   Se(  3)   H (  4)   C (  5)   H (  6)
   C (  2)  1.519477
   Se(  3)  3.073284  2.199999
   H (  4)  3.191963  2.715978  1.476941
   C (  5)  2.554492  1.519477  3.073284  3.191963
   H (  6)  1.092073  2.177301  3.179425  3.495878  3.503271
   H (  7)  1.098491  2.148062  4.070439  4.211442  2.803067  1.775998
   H (  8)  1.094875  2.174003  3.280041  2.884732  2.824002  1.771224
   H (  9)  2.164950  1.093066  2.613569  3.546265  2.164950  2.493229
   H ( 10)  2.803067  2.148062  4.070439  4.211442  1.098491  3.800897
   H ( 11)  3.503271  2.177301  3.179425  3.495878  1.092073  4.337567
   H ( 12)  2.824002  2.174003  3.280041  2.884732  1.094875  3.826667
             H (  7)   H (  8)   H (  9)   H ( 10)   H ( 11)
   H (  8)  1.769488
   H (  9)  2.532851  3.080673
   H ( 10)  2.603452  3.168153  2.532851
   H ( 11)  3.800897  3.826667  2.493229  1.775998
   H ( 12)  3.168153  2.652673  3.080673  1.769488  1.771224
 
 Applying Cartesian multipole field
    Component          Value
    ---------          -----
     (2,0,0)        1.00000E-11
     (0,2,0)        2.00000E-11
     (0,0,2)       -3.00000E-10
 Nucleus-field energy     =    -0.0000000029 hartrees
 Requested basis set is 6-31G(d,p)
 There are 44 shells and 120 basis functions
 A cutoff of  1.0D-14 yielded    950 shell pairs
 There are      7157 function pairs
 Smallest overlap matrix eigenvalue = 6.75E-04
 Guess from superposition of atomic densities
 Warning:  Energy on first SCF cycle will be non-variational
 SAD guess density has 59.968191 electrons

 -----------------------------------------------------------------------
  General SCF calculation program by
  Eric Jon Sundstrom, Paul Horn, Yuezhi Mao, Dmitri Zuev, Alec White,
  David Stuck, Shaama M.S., Shane Yost, Joonho Lee, David Small,
  Daniel Levine, Susi Lehtola, Hugh Burton, Evgeny Epifanovsky
 -----------------------------------------------------------------------
 Exchange:     0.2000 Hartree-Fock + 0.0800 Slater + 0.7200 B88
 Correlation:  0.1900 VWN1RPA + 0.8100 LYP
 Using SG-1 standard quadrature grid
 using 12 threads for integral computing
 -------------------------------------------------------
 OpenMP Integral computing Module                
 Release: version 1.0, May 2013, Q-Chem Inc. Pittsburgh 
 -------------------------------------------------------
 -------------------------------------------------------
 OpenMP BLAS3 based DFT computing Module                
 Release: version 1.0, May 2013, Q-Chem Inc. Pittsburgh 
 -------------------------------------------------------
 A unrestricted SCF calculation will be
 performed using DIIS
 SCF converges when DIIS error is below 1.0e-06
 Alpha HF Exchange    Energy = -10.35399123923725
 Beta HF Exchange     Energy = -10.35399123923725
 DFT Correlation      Energy =  -3.08694833185221
 DFT Exchange         Energy = -82.00946301869588
 One-Electron (alpha) Energy = -1996.21417803037980
 One-Electron (beta)  Energy = -1996.21417803037980
 Total Coulomb        Energy = 1325.94800762001432
 ---------------------------------------
  Cycle       Energy         DIIS error
 ---------------------------------------
    1   -2523.2628275554      1.38e-01  
 Alpha HF Exchange    Energy = -10.41762051275789
 Beta HF Exchange     Energy = -10.41762051275787
 DFT Correlation      Energy =  -3.12912451923560
 DFT Exchange         Energy = -82.90538966099103
 One-Electron (alpha) Energy = -2003.55058615493544
 One-Electron (beta)  Energy = -2003.55058615493476
 Total Coulomb        Energy = 1344.62892054991835
    2   -2520.3200922514      8.89e-03  
 Alpha HF Exchange    Energy = -10.31946297850887
 Beta HF Exchange     Energy = -10.31946297850886
 DFT Correlation      Energy =  -3.09324265881325
 DFT Exchange         Energy = -82.10734792132300
 One-Electron (alpha) Energy = -1993.67149032011139
 One-Electron (beta)  Energy = -1993.67149032010980
 Total Coulomb        Energy = 1323.83934396283348
    3   -2520.3212385002      4.35e-03  
 Alpha HF Exchange    Energy = -10.39598890715100
 Beta HF Exchange     Energy = -10.39598890715101
 DFT Correlation      Energy =  -3.12079709393680
 DFT Exchange         Energy = -82.72405256163117
 One-Electron (alpha) Energy = -2001.26714251623503
 One-Electron (beta)  Energy = -2001.26714251623571
 Total Coulomb        Energy = 1339.74453029075266
    4   -2520.4046674972      2.45e-03  
 Alpha HF Exchange    Energy = -10.37015454991311
 Beta HF Exchange     Energy = -10.37015454991310
 DFT Correlation      Energy =  -3.11161784935303
 DFT Exchange         Energy = -82.51514823100797
 One-Electron (alpha) Energy = -1999.02231761258304
 One-Electron (beta)  Energy = -1999.02231761258258
 Total Coulomb        Energy = 1334.95200257430133
    5   -2520.4377931167      3.38e-04  
 Alpha HF Exchange    Energy = -10.36935203849325
 Beta HF Exchange     Energy = -10.36935203849326
 DFT Correlation      Energy =  -3.11171293008232
 DFT Exchange         Energy = -82.51017735733561
 One-Electron (alpha) Energy = -1998.78877262446554
 One-Electron (beta)  Energy = -1998.78877262446713
 Total Coulomb        Energy = 1334.47745095291111
    6   -2520.4387739461      1.11e-04  
 Alpha HF Exchange    Energy = -10.36896419477864
 Beta HF Exchange     Energy = -10.36896419477863
 DFT Correlation      Energy =  -3.11139663489086
 DFT Exchange         Energy = -82.50656140557221
 One-Electron (alpha) Energy = -1998.75640812097981
 One-Electron (beta)  Energy = -1998.75640812097913
 Total Coulomb        Energy = 1334.40792752477046
    7   -2520.4388604329      1.21e-05  
 Alpha HF Exchange    Energy = -10.36902112955227
 Beta HF Exchange     Energy = -10.36902112955230
 DFT Correlation      Energy =  -3.11141325632396
 DFT Exchange         Energy = -82.50701349996325
 One-Electron (alpha) Energy = -1998.77245460694030
 One-Electron (beta)  Energy = -1998.77245460694348
 Total Coulomb        Energy = 1334.44060181152145
    8   -2520.4388617034      6.25e-06  
 Alpha HF Exchange    Energy = -10.36900469921552
 Beta HF Exchange     Energy = -10.36900469921551
 DFT Correlation      Energy =  -3.11141366133104
 DFT Exchange         Energy = -82.50688960472530
 One-Electron (alpha) Energy = -1998.76889907898158
 One-Electron (beta)  Energy = -1998.76889907897998
 Total Coulomb        Energy = 1334.43333417575241
    9   -2520.4388619324      7.36e-07  Convergence criterion met
 ---------------------------------------
 SCF time:   CPU 28.41s  wall 2.00s 
<S^2> =         -0.000000000
 Alpha HF Exchange    Energy = -10.36900469921552
 Beta HF Exchange     Energy = -10.36900469921551
 DFT Correlation      Energy =  -3.11141366133104
 DFT Exchange         Energy = -82.50688960472530
 One-Electron (alpha) Energy = -1998.76889907898158
 One-Electron (beta)  Energy = -1998.76889907897998
 Total Coulomb        Energy = 1334.43333417575241
 Nuclear repulsion Energy = 249.02191471434207
 SCF   energy in the final basis set =    -2520.4388619324
 Total energy in the final basis set =    -2520.4388619324
 
 --------------------------------------------------------------
 
                    Orbital Energies (a.u.)
 --------------------------------------------------------------
 
 Alpha MOs
 -- Occupied --
******* -58.079 -52.137 -52.136 -52.133 -10.238 -10.189 -10.189
 -7.812  -5.757  -5.754  -5.744  -2.091  -2.090  -2.082  -2.080
 -2.078  -0.800  -0.697  -0.674  -0.579  -0.462  -0.441  -0.416
 -0.395  -0.371  -0.359  -0.348  -0.285  -0.220
 -- Virtual --
 -0.021   0.043   0.091   0.128   0.144   0.152   0.171   0.179
  0.184   0.201   0.233   0.242   0.283   0.316   0.327   0.456
  0.458   0.501   0.512   0.562   0.573   0.655   0.662   0.675
  0.705   0.749   0.752   0.762   0.803   0.863   0.866   0.896
  0.897   0.914   0.943   0.951   1.026   1.084   1.302   1.364
  1.372   1.440   1.539   1.655   1.734   1.769   1.851   1.857
  1.873   2.034   2.036   2.038   2.066   2.085   2.089   2.094
  2.108   2.127   2.253   2.298   2.341   2.375   2.515   2.567
  2.606   2.635   2.666   2.701   2.717   2.858   2.866   2.896
  2.900   3.164   3.213   3.319   3.412   3.447   3.454   3.490
  4.230   4.286   4.322   4.346   4.392   4.479   4.495   4.605
  5.484  89.777
 
 Beta MOs
 -- Occupied --
******* -58.079 -52.137 -52.136 -52.133 -10.238 -10.189 -10.189
 -7.812  -5.757  -5.754  -5.744  -2.091  -2.090  -2.082  -2.080
 -2.078  -0.800  -0.697  -0.674  -0.579  -0.462  -0.441  -0.416
 -0.395  -0.371  -0.359  -0.348  -0.285  -0.220
 -- Virtual --
 -0.021   0.043   0.091   0.128   0.144   0.152   0.171   0.179
  0.184   0.201   0.233   0.242   0.283   0.316   0.327   0.456
  0.458   0.501   0.512   0.562   0.573   0.655   0.662   0.675
  0.705   0.749   0.752   0.762   0.803   0.863   0.866   0.896
  0.897   0.914   0.943   0.951   1.026   1.084   1.302   1.364
  1.372   1.440   1.539   1.655   1.734   1.769   1.851   1.857
  1.873   2.034   2.036   2.038   2.066   2.085   2.089   2.094
  2.108   2.127   2.253   2.298   2.341   2.375   2.515   2.567
  2.606   2.635   2.666   2.701   2.717   2.858   2.866   2.896
  2.900   3.164   3.213   3.319   3.412   3.447   3.454   3.490
  4.230   4.286   4.322   4.346   4.392   4.479   4.495   4.605
  5.484  89.777
 --------------------------------------------------------------
 
          Ground-State Mulliken Net Atomic Charges

     Atom                 Charge (a.u.)    Spin (a.u.)
  --------------------------------------------------------
      1 C                    -0.304549      -0.000000
      2 C                    -0.131345      -0.000000
      3 Se                   -0.141345      -0.000000
      4 H                     0.050636      -0.000000
      5 C                    -0.304549       0.000000
      6 H                     0.129565       0.000000
      7 H                     0.107866      -0.000000
      8 H                     0.113712       0.000000
      9 H                     0.128865       0.000000
     10 H                     0.107866      -0.000000
     11 H                     0.129565      -0.000000
     12 H                     0.113712      -0.000000
  --------------------------------------------------------
  Sum of atomic charges =    -0.000000
  Sum of spin   charges =    -0.000000

 -----------------------------------------------------------------
                    Cartesian Multipole Moments
 -----------------------------------------------------------------
    Charge (ESU x 10^10)
                -0.0000
    Dipole Moment (Debye)
         X      -2.1665      Y       0.0000      Z       0.2875
       Tot       2.1855
    Quadrupole Moments (Debye-Ang)
        XX     -38.7943     XY      -0.0000     YY     -40.9171
        XZ       1.2011     YZ       0.0000     ZZ     -36.9666
    Octopole Moments (Debye-Ang^2)
       XXX      36.0256    XXY       0.0000    XYY       9.6379
       YYY       0.0000    XXZ      -0.4276    XYZ       0.0000
       YYZ      -1.3610    XZZ      14.1307    YZZ       0.0000
       ZZZ      -1.2666
    Hexadecapole Moments (Debye-Ang^3)
      XXXX    -499.6747   XXXY      -0.0000   XXYY    -127.1815
      XYYY      -0.0000   YYYY    -220.9261   XXXZ       8.0572
      XXYZ      -0.0000   XYYZ       1.3888   YYYZ       0.0000
      XXZZ     -97.9369   XYZZ      -0.0000   YYZZ     -51.5861
      XZZZ       2.7013   YZZZ       0.0000   ZZZZ     -76.2782
 -----------------------------------------------------------------
 Calculating analytic gradient of the SCF energy
 Gradient of SCF Energy
            1           2           3           4           5           6
    1  -0.0019880  -0.0260129   0.0302908   0.0001252  -0.0019880   0.0001886
    2   0.0001875  -0.0000000   0.0000000   0.0000000  -0.0001875   0.0000935
    3  -0.0005778  -0.0044675   0.0053540   0.0000408  -0.0005778   0.0001214
            7           8           9          10          11          12
    1   0.0002551   0.0001655  -0.0016455   0.0002551   0.0001886   0.0001655
    2  -0.0000765   0.0000585   0.0000000   0.0000765  -0.0000935  -0.0000585
    3   0.0000343   0.0000655  -0.0002139   0.0000343   0.0001214   0.0000655
 Max gradient component =       3.029E-02
 RMS gradient           =       6.779E-03
 Gradient time:  CPU 11.87 s  wall 1.01 s
 Geometry Optimization Parameters
   NAtoms,    NIC,     NZ,  NCons,   NDum,   NFix, NCnnct, MaxDiis
       12      75       0       1       0       0       0       0

 Cartesian Hessian Update
 Hessian Updated using BFGS Update


** CONSTRAINED OPTIMIZATION IN DELOCALIZED INTERNAL COORDINATES **
   Searching for a Minimum

   Optimization Cycle:   3

                       Coordinates (Angstroms)
     ATOM                X               Y               Z
      1  C        -1.7534761329    1.2772462433    0.1502671831
      2  C        -1.1309130546    0.0000000000   -0.3881264755
      3  Se        1.0370073600    0.0000000000   -0.0138043894
      4  H         0.8656343588    0.0000000000    1.4531603851
      5  C        -1.7534761329   -1.2772462433    0.1502671831
      6  H        -1.2747719407    2.1687834533   -0.2603750484
      7  H        -2.8182462536    1.3017260365   -0.1187101072
      8  H        -1.6873915564    1.3263364564    1.2420432985
      9  H        -1.1257578970    0.0000000000   -1.4811801723
     10  H        -2.8182462536   -1.3017260365   -0.1187101072
     11  H        -1.2747719407   -2.1687834533   -0.2603750484
     12  H        -1.6873915564   -1.3263364564    1.2420432985
   Point Group: c1    Number of degrees of freedom:    30


   Energy is  -2520.438861932

              Constraints and their Current Values
                                        Value     Constraint
   Distance(Angs):        2   3             2.199999     2.200000
 Hessian Updated using BFGS Update

   Using Lagrange Multiplier Algorithm


 17 Hessian modes will be used to form the next step
  Hessian Eigenvalues:
    -0.960769    0.043239    0.045046    0.075510    0.082027    0.083927
     0.158729    0.160000    0.177722    0.180444    0.200565    0.297343
     0.339529    0.342268    0.343595    0.346337    1.042117

 Minimum Search - Taking P-RFO Step
 Searching for Lamda that Maximizes Along the Constraint modes Only
 Value Taken    Lamda =   0.00000000
 Searching for Lamda that Minimizes Along All other modes
 Value Taken    Lamda =  -0.00010328
 Step Taken.  Stepsize is  0.047412

                             Maximum     Tolerance    Cnvgd?
         Gradient            0.001424       0.000300      NO
         Displacement        0.034479       0.001200      NO
         Energy change     -0.000066       0.000001      NO


 New Cartesian Coordinates Obtained by Inverse Iteration

 Displacement from previous Coordinates is:  0.052744
 ----------------------------------------------------------------
             Standard Nuclear Orientation (Angstroms)
    I     Atom           X                Y                Z
 ----------------------------------------------------------------
    1      C      -1.7507571534     1.2785744388     0.1510111701
    2      C      -1.1393314876     0.0000000000    -0.3910109038
    3      Se      1.0283429615     0.0000000000    -0.0152619794
    4      H       0.8493882526     0.0000000000     1.4507945578
    5      C      -1.7507571534    -1.2785744388     0.1510111701
    6      H      -1.2683121499     2.1675087381    -0.2601099533
    7      H      -2.8165758490     1.3109897454    -0.1158315843
    8      H      -1.6835058903     1.3251922119     1.2425975829
    9      H      -1.1218986412     0.0000000000    -1.4833561055
   10      H      -2.8165758490    -1.3109897454    -0.1158315843
   11      H      -1.2683121499    -2.1675087381    -0.2601099533
   12      H      -1.6835058903    -1.3251922119     1.2425975829
 ----------------------------------------------------------------
 Nuclear Repulsion Energy =   249.3966311462 hartrees
 There are       30 alpha and       30 beta electrons

                       Distance Matrix (Angstroms)
             C (  1)   C (  2)   Se(  3)   H (  4)   C (  5)   H (  6)
   C (  2)  1.517360
   Se(  3)  3.063625  2.200000
   H (  4)  3.175680  2.710582  1.476938
   C (  5)  2.557149  1.517360  3.063625  3.175680
   H (  6)  1.091777  2.175285  3.167439  3.479934  3.503893
   H (  7)  1.099193  2.146524  4.063522  4.196702  2.813009  1.775264
   H (  8)  1.094649  2.172772  3.269934  2.866188  2.824125  1.772008
   H (  9)  2.168265  1.092484  2.603620  3.534857  2.168265  2.493163
   H ( 10)  2.813009  2.146524  4.063522  4.196702  1.099193  3.810235
   H ( 11)  3.503893  2.175285  3.167439  3.479934  1.091777  4.335017
   H ( 12)  2.824125  2.172772  3.269934  2.866188  1.094649  3.824850
             H (  7)   H (  8)   H (  9)   H ( 10)   H ( 11)
   H (  8)  1.769005
   H (  9)  2.541800  3.082590
   H ( 10)  2.621979  3.174686  2.541800
   H ( 11)  3.810235  3.824850  2.493163  1.775264
   H ( 12)  3.174686  2.650384  3.082590  1.769005  1.772008
 
 Applying Cartesian multipole field
    Component          Value
    ---------          -----
     (2,0,0)        1.00000E-11
     (0,2,0)        2.00000E-11
     (0,0,2)       -3.00000E-10
 Nucleus-field energy     =    -0.0000000030 hartrees
 Requested basis set is 6-31G(d,p)
 There are 44 shells and 120 basis functions
 A cutoff of  1.0D-14 yielded    950 shell pairs
 There are      7157 function pairs
 Smallest overlap matrix eigenvalue = 6.75E-04
 Guess from superposition of atomic densities
 Warning:  Energy on first SCF cycle will be non-variational
 SAD guess density has 59.968191 electrons

 -----------------------------------------------------------------------
  General SCF calculation program by
  Eric Jon Sundstrom, Paul Horn, Yuezhi Mao, Dmitri Zuev, Alec White,
  David Stuck, Shaama M.S., Shane Yost, Joonho Lee, David Small,
  Daniel Levine, Susi Lehtola, Hugh Burton, Evgeny Epifanovsky
 -----------------------------------------------------------------------
 Exchange:     0.2000 Hartree-Fock + 0.0800 Slater + 0.7200 B88
 Correlation:  0.1900 VWN1RPA + 0.8100 LYP
 Using SG-1 standard quadrature grid
 using 12 threads for integral computing
 -------------------------------------------------------
 OpenMP Integral computing Module                
 Release: version 1.0, May 2013, Q-Chem Inc. Pittsburgh 
 -------------------------------------------------------
 -------------------------------------------------------
 OpenMP BLAS3 based DFT computing Module                
 Release: version 1.0, May 2013, Q-Chem Inc. Pittsburgh 
 -------------------------------------------------------
 A unrestricted SCF calculation will be
 performed using DIIS
 SCF converges when DIIS error is below 1.0e-06
 Alpha HF Exchange    Energy = -10.35452792078566
 Beta HF Exchange     Energy = -10.35452792078566
 DFT Correlation      Energy =  -3.08711495422686
 DFT Exchange         Energy = -82.01047924291720
 One-Electron (alpha) Energy = -1996.58681617429079
 One-Electron (beta)  Energy = -1996.58681617429079
 Total Coulomb        Energy = 1326.31541579362647
 ---------------------------------------
  Cycle       Energy         DIIS error
 ---------------------------------------
    1   -2523.2682354504      1.38e-01  
 Alpha HF Exchange    Energy = -10.41788452777692
 Beta HF Exchange     Energy = -10.41788452777690
 DFT Correlation      Energy =  -3.12931067466446
 DFT Exchange         Energy = -82.90730590471742
 One-Electron (alpha) Energy = -2003.94866440834448
 One-Electron (beta)  Energy = -2003.94866440834289
 Total Coulomb        Energy = 1345.05322354089412
    2   -2520.3198597675      8.89e-03  
 Alpha HF Exchange    Energy = -10.31954376279598
 Beta HF Exchange     Energy = -10.31954376279599
 DFT Correlation      Energy =  -3.09339121228277
 DFT Exchange         Energy = -82.10792854380405
 One-Electron (alpha) Energy = -1994.02223213829461
 One-Electron (beta)  Energy = -1994.02223213829529
 Total Coulomb        Energy = 1324.16721221455896
    3   -2520.3210282004      4.36e-03  
 Alpha HF Exchange    Energy = -10.39622387099768
 Beta HF Exchange     Energy = -10.39622387099767
 DFT Correlation      Energy =  -3.12095662820543
 DFT Exchange         Energy = -82.72570887643410
 One-Electron (alpha) Energy = -2001.66519251404588
 One-Electron (beta)  Energy = -2001.66519251404497
 Total Coulomb        Energy = 1340.16796913229996
    4   -2520.4048979992      2.45e-03  
 Alpha HF Exchange    Energy = -10.37032693981282
 Beta HF Exchange     Energy = -10.37032693981282
 DFT Correlation      Energy =  -3.11179534974357
 DFT Exchange         Energy = -82.51642477607722
 One-Electron (alpha) Energy = -1999.39705305322855
 One-Electron (beta)  Energy = -1999.39705305322786
 Total Coulomb        Energy = 1335.32844756941313
    5   -2520.4379013992      3.29e-04  
 Alpha HF Exchange    Energy = -10.36953723717093
 Beta HF Exchange     Energy = -10.36953723717092
 DFT Correlation      Energy =  -3.11188152619044
 DFT Exchange         Energy = -82.51152578613656
 One-Electron (alpha) Energy = -1999.16633123779434
 One-Electron (beta)  Energy = -1999.16633123779320
 Total Coulomb        Energy = 1334.85968629004537
    6   -2520.4388268289      1.13e-04  
 Alpha HF Exchange    Energy = -10.36915949088640
 Beta HF Exchange     Energy = -10.36915949088639
 DFT Correlation      Energy =  -3.11156614631699
 DFT Exchange         Energy = -82.50798036278535
 One-Electron (alpha) Energy = -1999.13676210117274
 One-Electron (beta)  Energy = -1999.13676210117183
 Total Coulomb        Energy = 1334.79584148887307
    7   -2520.4389170611      1.16e-05  
 Alpha HF Exchange    Energy = -10.36921355108187
 Beta HF Exchange     Energy = -10.36921355108186
 DFT Correlation      Energy =  -3.11158279568836
 DFT Exchange         Energy = -82.50841056920092
 One-Electron (alpha) Energy = -1999.15227250998350
 One-Electron (beta)  Energy = -1999.15227250998259
 Total Coulomb        Energy = 1334.82741607879871
    8   -2520.4389182650      5.96e-06  
 Alpha HF Exchange    Energy = -10.36919766337312
 Beta HF Exchange     Energy = -10.36919766337312
 DFT Correlation      Energy =  -3.11158310095059
 DFT Exchange         Energy = -82.50829083190206
 One-Electron (alpha) Energy = -1999.14873381796542
 One-Electron (beta)  Energy = -1999.14873381796428
 Total Coulomb        Energy = 1334.82018727752870
    9   -2520.4389184747      7.50e-07  Convergence criterion met
 ---------------------------------------
 SCF time:   CPU 28.57s  wall 3.00s 
<S^2> =         -0.000000000
 Alpha HF Exchange    Energy = -10.36919766337312
 Beta HF Exchange     Energy = -10.36919766337312
 DFT Correlation      Energy =  -3.11158310095059
 DFT Exchange         Energy = -82.50829083190206
 One-Electron (alpha) Energy = -1999.14873381796542
 One-Electron (beta)  Energy = -1999.14873381796428
 Total Coulomb        Energy = 1334.82018727752870
 Nuclear repulsion Energy = 249.39663114326086
 SCF   energy in the final basis set =    -2520.4389184747
 Total energy in the final basis set =    -2520.4389184747
 
 --------------------------------------------------------------
 
                    Orbital Energies (a.u.)
 --------------------------------------------------------------
 
 Alpha MOs
 -- Occupied --
******* -58.079 -52.136 -52.135 -52.132 -10.238 -10.189 -10.189
 -7.811  -5.756  -5.753  -5.743  -2.090  -2.090  -2.082  -2.079
 -2.077  -0.801  -0.698  -0.673  -0.579  -0.463  -0.440  -0.417
 -0.395  -0.371  -0.359  -0.348  -0.284  -0.220
 -- Virtual --
 -0.021   0.043   0.092   0.127   0.143   0.152   0.171   0.178
  0.184   0.202   0.234   0.243   0.283   0.317   0.327   0.456
  0.458   0.501   0.511   0.560   0.574   0.655   0.662   0.677
  0.704   0.751   0.751   0.763   0.804   0.863   0.866   0.895
  0.897   0.914   0.943   0.951   1.027   1.084   1.302   1.366
  1.369   1.441   1.538   1.654   1.735   1.770   1.854   1.857
  1.874   2.034   2.036   2.038   2.066   2.086   2.089   2.095
  2.109   2.127   2.253   2.295   2.341   2.376   2.515   2.568
  2.606   2.636   2.668   2.701   2.718   2.857   2.866   2.896
  2.902   3.165   3.213   3.321   3.412   3.449   3.454   3.487
  4.230   4.287   4.322   4.346   4.394   4.480   4.496   4.606
  5.484  89.779
 
 Beta MOs
 -- Occupied --
******* -58.079 -52.136 -52.135 -52.132 -10.238 -10.189 -10.189
 -7.811  -5.756  -5.753  -5.743  -2.090  -2.090  -2.082  -2.079
 -2.077  -0.801  -0.698  -0.673  -0.579  -0.463  -0.440  -0.417
 -0.395  -0.371  -0.359  -0.348  -0.284  -0.220
 -- Virtual --
 -0.021   0.043   0.092   0.127   0.143   0.152   0.171   0.178
  0.184   0.202   0.234   0.243   0.283   0.317   0.327   0.456
  0.458   0.501   0.511   0.560   0.574   0.655   0.662   0.677
  0.704   0.751   0.751   0.763   0.804   0.863   0.866   0.895
  0.897   0.914   0.943   0.951   1.027   1.084   1.302   1.366
  1.369   1.441   1.538   1.654   1.735   1.770   1.854   1.857
  1.874   2.034   2.036   2.038   2.066   2.086   2.089   2.095
  2.109   2.127   2.253   2.295   2.341   2.376   2.515   2.568
  2.606   2.636   2.668   2.701   2.718   2.857   2.866   2.896
  2.902   3.165   3.213   3.321   3.412   3.449   3.454   3.487
  4.230   4.287   4.322   4.346   4.394   4.480   4.496   4.606
  5.484  89.779
 --------------------------------------------------------------
 
          Ground-State Mulliken Net Atomic Charges

     Atom                 Charge (a.u.)    Spin (a.u.)
  --------------------------------------------------------
      1 C                    -0.304240       0.000000
      2 C                    -0.131078       0.000000
      3 Se                   -0.143378      -0.000000
      4 H                     0.050214       0.000000
      5 C                    -0.304240      -0.000000
      6 H                     0.130237       0.000000
      7 H                     0.107597       0.000000
      8 H                     0.113888      -0.000000
      9 H                     0.129279      -0.000000
     10 H                     0.107597       0.000000
     11 H                     0.130237      -0.000000
     12 H                     0.113888       0.000000
  --------------------------------------------------------
  Sum of atomic charges =     0.000000
  Sum of spin   charges =    -0.000000

 -----------------------------------------------------------------
                    Cartesian Multipole Moments
 -----------------------------------------------------------------
    Charge (ESU x 10^10)
                 0.0000
    Dipole Moment (Debye)
         X      -2.1849      Y      -0.0000      Z       0.2811
       Tot       2.2029
    Quadrupole Moments (Debye-Ang)
        XX     -38.8309     XY      -0.0000     YY     -40.8875
        XZ       1.1650     YZ       0.0000     ZZ     -36.9543
    Octopole Moments (Debye-Ang^2)
       XXX      36.5287    XXY      -0.0000    XYY       9.7732
       YYY      -0.0000    XXZ      -0.3922    XYZ      -0.0000
       YYZ      -1.3348    XZZ      14.2459    YZZ      -0.0000
       ZZZ      -1.2118
    Hexadecapole Moments (Debye-Ang^3)
      XXXX    -497.6665   XXXY       0.0000   XXYY    -126.7293
      XYYY       0.0000   YYYY    -221.1404   XXXZ       7.9641
      XXYZ       0.0000   XYYZ       1.4147   YYYZ       0.0000
      XXZZ     -97.6088   XYZZ       0.0000   YYZZ     -51.6334
      XZZZ       2.7151   YZZZ       0.0000   ZZZZ     -76.3245
 -----------------------------------------------------------------
 Calculating analytic gradient of the SCF energy
 Gradient of SCF Energy
            1           2           3           4           5           6
    1  -0.0000655  -0.0291254   0.0294997  -0.0001165  -0.0000655   0.0000508
    2  -0.0000157  -0.0000000   0.0000000   0.0000000   0.0000157  -0.0000147
    3  -0.0000413  -0.0048672   0.0050553   0.0000161  -0.0000413   0.0000593
            7           8           9          10          11          12
    1   0.0000536  -0.0000098  -0.0003160   0.0000536   0.0000508  -0.0000098
    2  -0.0001075   0.0000623   0.0000000   0.0001075   0.0000147  -0.0000623
    3  -0.0001045  -0.0000188   0.0000064  -0.0001045   0.0000593  -0.0000188
 Max gradient component =       2.950E-02
 RMS gradient           =       7.008E-03
 Gradient time:  CPU 11.90 s  wall 1.00 s
 Geometry Optimization Parameters
   NAtoms,    NIC,     NZ,  NCons,   NDum,   NFix, NCnnct, MaxDiis
       12      75       0       1       0       0       0       0

 Cartesian Hessian Update
 Hessian Updated using BFGS Update


** CONSTRAINED OPTIMIZATION IN DELOCALIZED INTERNAL COORDINATES **
   Searching for a Minimum

   Optimization Cycle:   4

                       Coordinates (Angstroms)
     ATOM                X               Y               Z
      1  C        -1.7507571534    1.2785744388    0.1510111701
      2  C        -1.1393314876    0.0000000000   -0.3910109038
      3  Se        1.0283429615    0.0000000000   -0.0152619794
      4  H         0.8493882526    0.0000000000    1.4507945578
      5  C        -1.7507571534   -1.2785744388    0.1510111701
      6  H        -1.2683121499    2.1675087381   -0.2601099533
      7  H        -2.8165758490    1.3109897454   -0.1158315843
      8  H        -1.6835058903    1.3251922119    1.2425975829
      9  H        -1.1218986412    0.0000000000   -1.4833561055
     10  H        -2.8165758490   -1.3109897454   -0.1158315843
     11  H        -1.2683121499   -2.1675087381   -0.2601099533
     12  H        -1.6835058903   -1.3251922119    1.2425975829
   Point Group: c1    Number of degrees of freedom:    30


   Energy is  -2520.438918475

              Constraints and their Current Values
                                        Value     Constraint
   Distance(Angs):        2   3             2.200000     2.200000
 Hessian Updated using BFGS Update

 15 Hessian modes will be used to form the next step
  Hessian Eigenvalues:
     0.036863    0.045333    0.075511    0.082145    0.083968    0.159585
     0.160406    0.178001    0.180409    0.205462    0.301950    0.339283
     0.342322    0.343725    0.346338

 Minimum Search - Taking Simple RFO Step
 Searching for Lamda that Minimizes Along All modes
 Value Taken    Lamda =  -0.00000357
 Step Taken.  Stepsize is  0.008222

                             Maximum     Tolerance    Cnvgd?
         Gradient           0.000453      0.000300      NO
         Displacement       0.006556      0.001200      NO
         Energy change     -0.000057      0.000001      NO


 New Cartesian Coordinates Obtained by Inverse Iteration

 Displacement from previous Coordinates is:  0.008596
 ----------------------------------------------------------------
             Standard Nuclear Orientation (Angstroms)
    I     Atom           X                Y                Z
 ----------------------------------------------------------------
    1      C      -1.7508481781     1.2787561656     0.1508249540
    2      C      -1.1403884603     0.0000000000    -0.3919246508
    3      Se      1.0270913815     0.0000000000    -0.0150547699
    4      H       0.8495391333     0.0000000000     1.4511675715
    5      C      -1.7508481781    -1.2787561656     0.1508249540
    6      H      -1.2679605256     2.1676219737    -0.2599589755
    7      H      -2.8169310696     1.3131006287    -0.1150606706
    8      H      -1.6831565949     1.3240867609     1.2424441958
    9      H      -1.1202503180     0.0000000000    -1.4841871580
   10      H      -2.8169310696    -1.3131006287    -0.1150606706
   11      H      -1.2679605256    -2.1676219737    -0.2599589755
   12      H      -1.6831565949    -1.3240867608     1.2424441958
 ----------------------------------------------------------------
 Nuclear Repulsion Energy =   249.4277398493 hartrees
 There are       30 alpha and       30 beta electrons

                       Distance Matrix (Angstroms)
             C (  1)   C (  2)   Se(  3)   H (  4)   C (  5)   H (  6)
   C (  2)  1.517384
   Se(  3)  3.062627  2.200000
   H (  4)  3.176180  2.712342  1.476934
   C (  5)  2.557512  1.517384  3.062627  3.176180
   H (  6)  1.091790  2.175379  3.166359  3.479992  3.504204
   H (  7)  1.099276  2.147483  4.063341  4.197655  2.815129  1.774968
   H (  8)  1.094655  2.172318  3.268020  2.865540  2.823297  1.772330
   H (  9)  2.169363  1.092448  2.601812  3.535022  2.169363  2.493820
   H ( 10)  2.815129  2.147483  4.063341  4.197655  1.099276  3.812576
   H ( 11)  3.504204  2.175379  3.166359  3.479992  1.091790  4.335244
   H ( 12)  2.823297  2.172318  3.268020  2.865540  1.094655  3.823824
             H (  7)   H (  8)   H (  9)   H ( 10)   H ( 11)
   H (  8)  1.768724
   H (  9)  2.545087  3.082951
   H ( 10)  2.626201  3.175377  2.545087
   H ( 11)  3.812576  3.823824  2.493820  1.774968
   H ( 12)  3.175377  2.648174  3.082951  1.768724  1.772330
 
 Applying Cartesian multipole field
    Component          Value
    ---------          -----
     (2,0,0)        1.00000E-11
     (0,2,0)        2.00000E-11
     (0,0,2)       -3.00000E-10
 Nucleus-field energy     =    -0.0000000030 hartrees
 Requested basis set is 6-31G(d,p)
 There are 44 shells and 120 basis functions
 A cutoff of  1.0D-14 yielded    950 shell pairs
 There are      7157 function pairs
 Smallest overlap matrix eigenvalue = 6.75E-04
 Guess from superposition of atomic densities
 Warning:  Energy on first SCF cycle will be non-variational
 SAD guess density has 59.968191 electrons

 -----------------------------------------------------------------------
  General SCF calculation program by
  Eric Jon Sundstrom, Paul Horn, Yuezhi Mao, Dmitri Zuev, Alec White,
  David Stuck, Shaama M.S., Shane Yost, Joonho Lee, David Small,
  Daniel Levine, Susi Lehtola, Hugh Burton, Evgeny Epifanovsky
 -----------------------------------------------------------------------
 Exchange:     0.2000 Hartree-Fock + 0.0800 Slater + 0.7200 B88
 Correlation:  0.1900 VWN1RPA + 0.8100 LYP
 Using SG-1 standard quadrature grid
 using 12 threads for integral computing
 -------------------------------------------------------
 OpenMP Integral computing Module                
 Release: version 1.0, May 2013, Q-Chem Inc. Pittsburgh 
 -------------------------------------------------------
 -------------------------------------------------------
 OpenMP BLAS3 based DFT computing Module                
 Release: version 1.0, May 2013, Q-Chem Inc. Pittsburgh 
 -------------------------------------------------------
 A unrestricted SCF calculation will be
 performed using DIIS
 SCF converges when DIIS error is below 1.0e-06
 Alpha HF Exchange    Energy = -10.35450871099744
 Beta HF Exchange     Energy = -10.35450871099744
 DFT Correlation      Energy =  -3.08711323055301
 DFT Exchange         Energy = -82.01044427989842
 One-Electron (alpha) Energy = -1996.61800521849227
 One-Electron (beta)  Energy = -1996.61800521849227
 Total Coulomb        Energy = 1326.34667975350408
 ---------------------------------------
  Cycle       Energy         DIIS error
 ---------------------------------------
    1   -2523.2681657696      1.38e-01  
 Alpha HF Exchange    Energy = -10.41787661468152
 Beta HF Exchange     Energy = -10.41787661468152
 DFT Correlation      Energy =  -3.12930727413408
 DFT Exchange         Energy = -82.90723613029343
 One-Electron (alpha) Energy = -2003.98192557312086
 One-Electron (beta)  Energy = -2003.98192557311950
 Total Coulomb        Energy = 1345.08854925403125
    2   -2520.3198586797      8.89e-03  
 Alpha HF Exchange    Energy = -10.31953212515029
 Beta HF Exchange     Energy = -10.31953212515030
 DFT Correlation      Energy =  -3.09339239321192
 DFT Exchange         Energy = -82.10785764852949
 One-Electron (alpha) Energy = -1994.05090078574062
 One-Electron (beta)  Energy = -1994.05090078574131
 Total Coulomb        Energy = 1324.19334852299062
    3   -2520.3210274942      4.36e-03  
 Alpha HF Exchange    Energy = -10.39621862742253
 Beta HF Exchange     Energy = -10.39621862742253
 DFT Correlation      Energy =  -3.12095147587806
 DFT Exchange         Energy = -82.72565303281199
 One-Electron (alpha) Energy = -2001.69956687583613
 One-Electron (beta)  Energy = -2001.69956687583613
 Total Coulomb        Energy = 1340.20550729086949
    4   -2520.4049283781      2.45e-03  
 Alpha HF Exchange    Energy = -10.37031552336282
 Beta HF Exchange     Energy = -10.37031552336283
 DFT Correlation      Energy =  -3.11179620326898
 DFT Exchange         Energy = -82.51634963127879
 One-Electron (alpha) Energy = -1999.42769992559693
 One-Electron (beta)  Energy = -1999.42769992559806
 Total Coulomb        Energy = 1335.35851830195679
    5   -2520.4379185842      3.26e-04  
 Alpha HF Exchange    Energy = -10.36952679080174
 Beta HF Exchange     Energy = -10.36952679080174
 DFT Correlation      Energy =  -3.11187970267017
 DFT Exchange         Energy = -82.51144977127888
 One-Electron (alpha) Energy = -1999.19747290260398
 One-Electron (beta)  Energy = -1999.19747290260420
 Total Coulomb        Energy = 1334.89076087970989
    6   -2520.4388281348      1.13e-04  
 Alpha HF Exchange    Energy = -10.36915109496293
 Beta HF Exchange     Energy = -10.36915109496290
 DFT Correlation      Energy =  -3.11156463381930
 DFT Exchange         Energy = -82.50791854143422
 One-Electron (alpha) Energy = -1999.16851399824463
 One-Electron (beta)  Energy = -1999.16851399824168
 Total Coulomb        Energy = 1334.82815422630983
    7   -2520.4389192891      1.16e-05  
 Alpha HF Exchange    Energy = -10.36920497165286
 Beta HF Exchange     Energy = -10.36920497165286
 DFT Correlation      Energy =  -3.11158131082325
 DFT Exchange         Energy = -82.50834747260564
 One-Electron (alpha) Energy = -1999.18396888923962
 One-Electron (beta)  Energy = -1999.18396888923962
 Total Coulomb        Energy = 1334.85961617471230
    8   -2520.4389204842      5.94e-06  
 Alpha HF Exchange    Energy = -10.36918911900654
 Beta HF Exchange     Energy = -10.36918911900653
 DFT Correlation      Energy =  -3.11158160595976
 DFT Exchange         Energy = -82.50822799156339
 One-Electron (alpha) Energy = -1999.18043450912160
 One-Electron (beta)  Energy = -1999.18043450912114
 Total Coulomb        Energy = 1334.85239631476406
    9   -2520.4389206927      7.51e-07  Convergence criterion met
 ---------------------------------------
 SCF time:   CPU 28.63s  wall 2.00s 
<S^2> =          0.000000000
 Alpha HF Exchange    Energy = -10.36918911900654
 Beta HF Exchange     Energy = -10.36918911900653
 DFT Correlation      Energy =  -3.11158160595976
 DFT Exchange         Energy = -82.50822799156339
 One-Electron (alpha) Energy = -1999.18043450912160
 One-Electron (beta)  Energy = -1999.18043450912114
 Total Coulomb        Energy = 1334.85239631476406
 Nuclear repulsion Energy = 249.42773984628795
 SCF   energy in the final basis set =    -2520.4389206927
 Total energy in the final basis set =    -2520.4389206927
 
 --------------------------------------------------------------
 
                    Orbital Energies (a.u.)
 --------------------------------------------------------------
 
 Alpha MOs
[...]
     0.159902    0.160313    0.168881    0.179542    0.201704    0.298467
     0.339471    0.342305    0.343713    0.346351

 Minimum Search - Taking Simple RFO Step
 Searching for Lamda that Minimizes Along All modes
 Value Taken    Lamda =   0.00000000
 Step Taken.  Stepsize is  0.003419

                             Maximum     Tolerance    Cnvgd?
         Gradient           0.000122      0.000300     YES
         Displacement       0.002826      0.001200      NO
         Energy change     -0.000002      0.000001      NO


 New Cartesian Coordinates Obtained by Inverse Iteration

 Displacement from previous Coordinates is:  0.003761
 ----------------------------------------------------------------
             Standard Nuclear Orientation (Angstroms)
    I     Atom           X                Y                Z
 ----------------------------------------------------------------
    1      C      -1.7510871785     1.2786630023     0.1506843920
    2      C      -1.1404592436     0.0000000000    -0.3922519888
    3      Se      1.0269291957     0.0000000000    -0.0148568051
    4      H       0.8504352446     0.0000000000     1.4514776225
    5      C      -1.7510871785    -1.2786630023     0.1506843920
    6      H      -1.2683137829     2.1676456538    -0.2599778974
    7      H      -2.8172866315     1.3132364842    -0.1147058641
    8      H      -1.6830687407     1.3235118651     1.2423087243
    9      H      -1.1191935296     0.0000000000    -1.4844875383
   10      H      -2.8172866315    -1.3132364842    -0.1147058641
   11      H      -1.2683137829    -2.1676456538    -0.2599778974
   12      H      -1.6830687407    -1.3235118651     1.2423087243
 ----------------------------------------------------------------
 Nuclear Repulsion Energy =   249.4280246347 hartrees
 There are       30 alpha and       30 beta electrons

                       Distance Matrix (Angstroms)
             C (  1)   C (  2)   Se(  3)   H (  4)   C (  5)   H (  6)
   C (  2)  1.517440
   Se(  3)  3.062639  2.200000
   H (  4)  3.177257  2.713485  1.476918
   C (  5)  2.557326  1.517440  3.062639  3.177257
   H (  6)  1.091789  2.175438  3.166530  3.480929  3.504106
   H (  7)  1.099276  2.147876  4.063564  4.198774  2.815165  1.774947
   H (  8)  1.094661  2.172072  3.267451  2.866021  2.822691  1.772413
   H (  9)  2.169805  1.092443  2.601088  3.535439  2.169805  2.494063
   H ( 10)  2.815165  2.147876  4.063564  4.198774  1.099276  3.812737
   H ( 11)  3.504106  2.175438  3.166530  3.480929  1.091789  4.335291
   H ( 12)  2.822691  2.172072  3.267451  2.866021  1.094661  3.823227
             H (  7)   H (  8)   H (  9)   H ( 10)   H ( 11)
   H (  8)  1.768628
   H (  9)  2.546451  3.083027
   H ( 10)  2.626473  3.174962  2.546451
   H ( 11)  3.812737  3.823227  2.494063  1.774947
   H ( 12)  3.174962  2.647024  3.083027  1.768628  1.772413
 
 Applying Cartesian multipole field
    Component          Value
    ---------          -----
     (2,0,0)        1.00000E-11
     (0,2,0)        2.00000E-11
     (0,0,2)       -3.00000E-10
 Nucleus-field energy     =    -0.0000000030 hartrees
 Requested basis set is 6-31G(d,p)
 There are 44 shells and 120 basis functions
 A cutoff of  1.0D-14 yielded    950 shell pairs
 There are      7157 function pairs
 Smallest overlap matrix eigenvalue = 6.75E-04
 Guess from superposition of atomic densities
 Warning:  Energy on first SCF cycle will be non-variational
 SAD guess density has 59.968191 electrons

 -----------------------------------------------------------------------
  General SCF calculation program by
  Eric Jon Sundstrom, Paul Horn, Yuezhi Mao, Dmitri Zuev, Alec White,
  David Stuck, Shaama M.S., Shane Yost, Joonho Lee, David Small,
  Daniel Levine, Susi Lehtola, Hugh Burton, Evgeny Epifanovsky
 -----------------------------------------------------------------------
 Exchange:     0.2000 Hartree-Fock + 0.0800 Slater + 0.7200 B88
 Correlation:  0.1900 VWN1RPA + 0.8100 LYP
 Using SG-1 standard quadrature grid
 using 12 threads for integral computing
 -------------------------------------------------------
 OpenMP Integral computing Module                
 Release: version 1.0, May 2013, Q-Chem Inc. Pittsburgh 
 -------------------------------------------------------
 -------------------------------------------------------
 OpenMP BLAS3 based DFT computing Module                
 Release: version 1.0, May 2013, Q-Chem Inc. Pittsburgh 
 -------------------------------------------------------
 A unrestricted SCF calculation will be
 performed using DIIS
 SCF converges when DIIS error is below 1.0e-06
 Alpha HF Exchange    Energy = -10.35449479179161
 Beta HF Exchange     Energy = -10.35449479179161
 DFT Correlation      Energy =  -3.08711006460307
 DFT Exchange         Energy = -82.01042024831790
 One-Electron (alpha) Energy = -1996.61833019592859
 One-Electron (beta)  Energy = -1996.61833019592859
 Total Coulomb        Energy = 1326.34710548251246
 ---------------------------------------
  Cycle       Energy         DIIS error
 ---------------------------------------
    1   -2523.2680501742      1.38e-01  
 Alpha HF Exchange    Energy = -10.41787103702038
 Beta HF Exchange     Energy = -10.41787103702037
 DFT Correlation      Energy =  -3.12930297602862
 DFT Exchange         Energy = -82.90719049469875
 One-Electron (alpha) Energy = -2003.98231621871309
 One-Electron (beta)  Energy = -2003.98231621871128
 Total Coulomb        Energy = 1345.08898043907675
    2   -2520.3198629115      8.89e-03  
 Alpha HF Exchange    Energy = -10.31952879790643
 Beta HF Exchange     Energy = -10.31952879790643
 DFT Correlation      Energy =  -3.09339060753827
 DFT Exchange         Energy = -82.10783760140245
 One-Electron (alpha) Energy = -1994.05095795905049
 One-Electron (beta)  Energy = -1994.05095795905163
 Total Coulomb        Energy = 1324.19314452227854
    3   -2520.3210325689      4.36e-03  
 Alpha HF Exchange    Energy = -10.39621380816363
 Beta HF Exchange     Energy = -10.39621380816363
 DFT Correlation      Energy =  -3.12094698145674
 DFT Exchange         Energy = -82.72561164484401
 One-Electron (alpha) Energy = -2001.70022395708156
 One-Electron (beta)  Energy = -2001.70022395708224
 Total Coulomb        Energy = 1340.20647531398708
    4   -2520.4049342111      2.45e-03  
 Alpha HF Exchange    Energy = -10.37031065047790
 Beta HF Exchange     Energy = -10.37031065047788
 DFT Correlation      Energy =  -3.11179354580644
 DFT Exchange         Energy = -82.51631518639510
 One-Electron (alpha) Energy = -1999.42781247329776
 One-Electron (beta)  Energy = -1999.42781247329617
 Total Coulomb        Energy = 1335.35840773970904
    5   -2520.4379226084      3.25e-04  
 Alpha HF Exchange    Energy = -10.36952172427135
 Beta HF Exchange     Energy = -10.36952172427132
 DFT Correlation      Energy =  -3.11187633625664
 DFT Exchange         Energy = -82.51141178210671
 One-Electron (alpha) Energy = -1999.19764953033041
 One-Electron (beta)  Energy = -1999.19764953032768
 Total Coulomb        Energy = 1334.89077771422808
    6   -2520.4388282817      1.14e-04  
 Alpha HF Exchange    Energy = -10.36914646670813
 Beta HF Exchange     Energy = -10.36914646670813
 DFT Correlation      Energy =  -3.11156134323278
 DFT Exchange         Energy = -82.50788354263952
 One-Electron (alpha) Energy = -1999.16882457743600
 One-Electron (beta)  Energy = -1999.16882457743600
 Total Coulomb        Energy = 1334.82844268864619
    7   -2520.4389196539      1.16e-05  
 Alpha HF Exchange    Energy = -10.36920037090076
 Beta HF Exchange     Energy = -10.36920037090075
 DFT Correlation      Energy =  -3.11157802886652
 DFT Exchange         Energy = -82.50831272257241
 One-Electron (alpha) Energy = -1999.18427664017531
 One-Electron (beta)  Energy = -1999.18427664017395
 Total Coulomb        Energy = 1334.85989929421430
    8   -2520.4389208477      5.94e-06  
 Alpha HF Exchange    Energy = -10.36918451006914
 Beta HF Exchange     Energy = -10.36918451006913
 DFT Correlation      Energy =  -3.11157832257552
 DFT Exchange         Energy = -82.50819317303436
 One-Electron (alpha) Energy = -1999.18074263869175
 One-Electron (beta)  Energy = -1999.18074263869062
 Total Coulomb        Energy = 1334.85268010505183
    9   -2520.4389210564      7.51e-07  Convergence criterion met
 ---------------------------------------
 SCF time:   CPU 28.58s  wall 2.00s 
<S^2> =         -0.000000000
 Alpha HF Exchange    Energy = -10.36918451006914
 Beta HF Exchange     Energy = -10.36918451006913
 DFT Correlation      Energy =  -3.11157832257552
 DFT Exchange         Energy = -82.50819317303436
 One-Electron (alpha) Energy = -1999.18074263869175
 One-Electron (beta)  Energy = -1999.18074263869062
 Total Coulomb        Energy = 1334.85268010505183
 Nuclear repulsion Energy = 249.42802463166018
 SCF   energy in the final basis set =    -2520.4389210564
 Total energy in the final basis set =    -2520.4389210564
 
 --------------------------------------------------------------
 
                    Orbital Energies (a.u.)
 --------------------------------------------------------------
 
 Alpha MOs
 -- Occupied --
******* -58.079 -52.136 -52.135 -52.132 -10.238 -10.189 -10.189
 -7.811  -5.756  -5.753  -5.743  -2.090  -2.090  -2.082  -2.079
 -2.077  -0.801  -0.698  -0.673  -0.579  -0.463  -0.440  -0.417
 -0.395  -0.371  -0.360  -0.349  -0.284  -0.220
 -- Virtual --
 -0.021   0.043   0.092   0.127   0.143   0.152   0.171   0.178
  0.184   0.202   0.234   0.243   0.283   0.317   0.327   0.456
  0.458   0.501   0.511   0.560   0.574   0.655   0.662   0.677
  0.704   0.751   0.751   0.763   0.804   0.863   0.866   0.895
  0.896   0.914   0.943   0.951   1.027   1.085   1.303   1.366
  1.369   1.441   1.537   1.653   1.736   1.771   1.853   1.856
  1.874   2.033   2.036   2.038   2.066   2.086   2.089   2.096
  2.109   2.127   2.252   2.295   2.341   2.376   2.515   2.568
  2.606   2.635   2.668   2.702   2.718   2.857   2.865   2.895
  2.902   3.165   3.213   3.322   3.412   3.449   3.454   3.487
  4.230   4.287   4.322   4.347   4.394   4.480   4.496   4.606
  5.485  89.779
 
 Beta MOs
 -- Occupied --
******* -58.079 -52.136 -52.135 -52.132 -10.238 -10.189 -10.189
 -7.811  -5.756  -5.753  -5.743  -2.090  -2.090  -2.082  -2.079
 -2.077  -0.801  -0.698  -0.673  -0.579  -0.463  -0.440  -0.417
 -0.395  -0.371  -0.360  -0.349  -0.284  -0.220
 -- Virtual --
 -0.021   0.043   0.092   0.127   0.143   0.152   0.171   0.178
  0.184   0.202   0.234   0.243   0.283   0.317   0.327   0.456
  0.458   0.501   0.511   0.560   0.574   0.655   0.662   0.677
  0.704   0.751   0.751   0.763   0.804   0.863   0.866   0.895
  0.896   0.914   0.943   0.951   1.027   1.085   1.303   1.366
  1.369   1.441   1.537   1.653   1.736   1.771   1.853   1.856
  1.874   2.033   2.036   2.038   2.066   2.086   2.089   2.096
  2.109   2.127   2.252   2.295   2.341   2.376   2.515   2.568
  2.606   2.635   2.668   2.702   2.718   2.857   2.865   2.895
  2.902   3.165   3.213   3.322   3.412   3.449   3.454   3.487
  4.230   4.287   4.322   4.347   4.394   4.480   4.496   4.606
  5.485  89.779
 --------------------------------------------------------------
 
          Ground-State Mulliken Net Atomic Charges

     Atom                 Charge (a.u.)    Spin (a.u.)
  --------------------------------------------------------
      1 C                    -0.304229      -0.000000
      2 C                    -0.130996       0.000000
      3 Se                   -0.143697      -0.000000
      4 H                     0.050180       0.000000
      5 C                    -0.304229       0.000000
      6 H                     0.130269      -0.000000
      7 H                     0.107602      -0.000000
      8 H                     0.113924       0.000000
      9 H                     0.129379      -0.000000
     10 H                     0.107602       0.000000
     11 H                     0.130269       0.000000
     12 H                     0.113924      -0.000000
  --------------------------------------------------------
  Sum of atomic charges =     0.000000
  Sum of spin   charges =    -0.000000

 -----------------------------------------------------------------
                    Cartesian Multipole Moments
 -----------------------------------------------------------------
    Charge (ESU x 10^10)
                 0.0000
    Dipole Moment (Debye)
         X      -2.1863      Y       0.0000      Z       0.2816
       Tot       2.2043
    Quadrupole Moments (Debye-Ang)
        XX     -38.8334     XY      -0.0000     YY     -40.8848
        XZ       1.1629     YZ       0.0000     ZZ     -36.9516
    Octopole Moments (Debye-Ang^2)
       XXX      36.6142    XXY       0.0000    XYY       9.7929
       YYY      -0.0000    XXZ      -0.3666    XYZ      -0.0000
       YYZ      -1.3407    XZZ      14.2816    YZZ      -0.0000
       ZZZ      -1.2111
    Hexadecapole Moments (Debye-Ang^3)
      XXXX    -497.5104   XXXY      -0.0000   XXYY    -126.6535
      XYYY       0.0000   YYYY    -221.1552   XXXZ       7.8713
      XXYZ      -0.0000   XYYZ       1.4039   YYYZ       0.0000
      XXZZ     -97.6072   XYZZ       0.0000   YYZZ     -51.6551
      XZZZ       2.6653   YZZZ      -0.0000   ZZZZ     -76.3460
 -----------------------------------------------------------------
 Calculating analytic gradient of the SCF energy
 Gradient of SCF Energy
            1           2           3           4           5           6
    1   0.0000463  -0.0292735   0.0292779  -0.0000171   0.0000463   0.0000126
    2  -0.0000102  -0.0000000   0.0000000   0.0000000   0.0000102  -0.0000002
    3   0.0000265  -0.0051200   0.0051142   0.0000219   0.0000265   0.0000072
            7           8           9          10          11          12
    1   0.0000017  -0.0000381  -0.0000324   0.0000017   0.0000126  -0.0000381
    2   0.0000230  -0.0000134  -0.0000000  -0.0000230   0.0000002   0.0000134
    3  -0.0000395  -0.0000018  -0.0000010  -0.0000395   0.0000072  -0.0000018
 Max gradient component =       2.928E-02
 RMS gradient           =       7.005E-03
 Gradient time:  CPU 12.05 s  wall 1.04 s
 Geometry Optimization Parameters
   NAtoms,    NIC,     NZ,  NCons,   NDum,   NFix, NCnnct, MaxDiis
       12      75       0       1       0       0       0       0

 Cartesian Hessian Update
 Hessian Updated using BFGS Update


** CONSTRAINED OPTIMIZATION IN DELOCALIZED INTERNAL COORDINATES **
   Searching for a Minimum

   Optimization Cycle:   6

                       Coordinates (Angstroms)
     ATOM                X               Y               Z
      1  C        -1.7510871785    1.2786630023    0.1506843920
      2  C        -1.1404592436    0.0000000000   -0.3922519888
      3  Se        1.0269291957    0.0000000000   -0.0148568051
      4  H         0.8504352446    0.0000000000    1.4514776225
      5  C        -1.7510871785   -1.2786630023    0.1506843920
      6  H        -1.2683137829    2.1676456538   -0.2599778974
      7  H        -2.8172866315    1.3132364842   -0.1147058641
      8  H        -1.6830687407    1.3235118651    1.2423087243
      9  H        -1.1191935296    0.0000000000   -1.4844875383
     10  H        -2.8172866315   -1.3132364842   -0.1147058641
     11  H        -1.2683137829   -2.1676456538   -0.2599778974
     12  H        -1.6830687407   -1.3235118651    1.2423087243
   Point Group: c1    Number of degrees of freedom:    30


   Energy is  -2520.438921056

              Constraints and their Current Values
                                        Value     Constraint
   Distance(Angs):        2   3             2.200000     2.200000
 Hessian Updated using BFGS Update

 16 Hessian modes will be used to form the next step
  Hessian Eigenvalues:
     0.020763    0.047099    0.074671    0.081160    0.083528    0.154182
     0.160035    0.160363    0.179240    0.189599    0.195237    0.299542
     0.339862    0.342352    0.343954    0.346390

 Minimum Search - Taking Simple RFO Step
 Searching for Lamda that Minimizes Along All modes
 Value Taken    Lamda =   0.00000000
 Step Taken.  Stepsize is  0.002802

                             Maximum     Tolerance    Cnvgd?
         Gradient           0.000037      0.000300     YES
         Displacement       0.001938      0.001200      NO
         Energy change     -0.000000      0.000001     YES


                       Distance Matrix (Angstroms)
             C (  1)   C (  2)   Se(  3)   H (  4)   C (  5)   H (  6)
   C (  2)  1.517440
   Se(  3)  3.062639  2.200000
   H (  4)  3.177257  2.713485  1.476918
   C (  5)  2.557326  1.517440  3.062639  3.177257
   H (  6)  1.091789  2.175438  3.166530  3.480929  3.504106
   H (  7)  1.099276  2.147876  4.063564  4.198774  2.815165  1.774947
   H (  8)  1.094661  2.172072  3.267451  2.866021  2.822691  1.772413
   H (  9)  2.169805  1.092443  2.601088  3.535439  2.169805  2.494063
   H ( 10)  2.815165  2.147876  4.063564  4.198774  1.099276  3.812737
   H ( 11)  3.504106  2.175438  3.166530  3.480929  1.091789  4.335291
   H ( 12)  2.822691  2.172072  3.267451  2.866021  1.094661  3.823227
             H (  7)   H (  8)   H (  9)   H ( 10)   H ( 11)
   H (  8)  1.768628
   H (  9)  2.546451  3.083027
   H ( 10)  2.626473  3.174962  2.546451
   H ( 11)  3.812737  3.823227  2.494063  1.774947
   H ( 12)  3.174962  2.647024  3.083027  1.768628  1.772413
 
 Final energy is   -2520.43892105642     


 ******************************
 **  OPTIMIZATION CONVERGED  **
 ******************************

                       Coordinates (Angstroms)
     ATOM                X               Y               Z
      1  C        -1.7510871785    1.2786630023    0.1506843920
      2  C        -1.1404592436    0.0000000000   -0.3922519888
      3  Se        1.0269291957    0.0000000000   -0.0148568051
      4  H         0.8504352446    0.0000000000    1.4514776225
      5  C        -1.7510871785   -1.2786630023    0.1506843920
      6  H        -1.2683137829    2.1676456538   -0.2599778974
      7  H        -2.8172866315    1.3132364842   -0.1147058641
      8  H        -1.6830687407    1.3235118651    1.2423087243
      9  H        -1.1191935296    0.0000000000   -1.4844875383
     10  H        -2.8172866315   -1.3132364842   -0.1147058641
     11  H        -1.2683137829   -2.1676456538   -0.2599778974
     12  H        -1.6830687407   -1.3235118651    1.2423087243

Z-matrix Print:
$molecule
0 1
Se
H  1 1.476918
C  1 2.200000 2 93.014225
H  3 1.092443 1 98.762158 2 -180.000000 0
C  3 1.517440 1 109.576414 2 -63.423987 0
H  5 1.091789 3 111.937746 1 -55.399417 0
H  5 1.094661 3 111.489122 1 66.111644 0
H  5 1.099276 3 109.294264 1 -175.260639 0
C  3 1.517440 1 109.576414 2 63.423987 0
H  9 1.091789 3 111.937746 1 55.399417 0
H  9 1.094661 3 111.489122 1 -66.111644 0
H  9 1.099276 3 109.294264 1 175.260639 0
$end

PES scan, value:    2.2000 energy: -2520.4389210564
------- Summary of potential scan: ------ 
    2.2000     -2520.4389210564
----------------------------------------- 
Archival summary:
1\1\hpc0248\JobtypUnspecified\ProcedureUnspecified\6-31G**\e138\knomura\WedMar1314:25:442019WedMar1314:25:442019\0\\#,JobtypUnspecified,ProcedureUnspecified,6-31G**,\\0,1\Se\H,1,1.47692\C,1,2.2,2,93.0142\H,3,1.09244,1,98.7622,2,-180,0\C,3,1.51744,1,109.576,2,-63.424,0\H,5,1.09179,3,111.938,1,-55.3994,0\H,5,1.09466,3,111.489,1,66.1116,0\H,5,1.09928,3,109.294,1,-175.261,0\C,3,1.51744,1,109.576,2,63.424,0\H,9,1.09179,3,111.938,1,55.3994,0\H,9,1.09466,3,111.489,1,-66.1116,0\H,9,1.09928,3,109.294,1,175.261,0\\\@

 Total job time:  34.27s(wall), 278.09s(cpu) 
 Wed Mar 13 14:25:44 2019

        *************************************************************
        *                                                           *
        *  Thank you very much for using Q-Chem.  Have a nice day.  *
        *                                                           *
        *************************************************************


