
Running Job 1 of 1 selenium/01/C-Se.xyz.data/inputs/bond_triplet_2.8.in
qchem selenium/01/C-Se.xyz.data/inputs/bond_triplet_2.8.in_21362.0 /staging/scratch/2868765/qchem21362/ 1
/usr/usc/qchem/5.1.1/exe/qcprog.exe_s selenium/01/C-Se.xyz.data/inputs/bond_triplet_2.8.in_21362.0 /staging/scratch/2868765/qchem21362/
Check license passed

                  Welcome to Q-Chem
     A Quantum Leap Into The Future Of Chemistry


 Q-Chem 5.1, Q-Chem, Inc., Pleasanton, CA (2018)

 Yihan Shao,  Zhengting Gan,  E. Epifanovsky,  A. T. B. Gilbert,  M. Wormit,  
 J. Kussmann,  A. W. Lange,  A. Behn,  Jia Deng,  Xintian Feng,  D. Ghosh,  
 M. Goldey,  P. R. Horn,  L. D. Jacobson,  I. Kaliman,  T. Kus,  A. Landau,  
 Jie Liu,  E. I. Proynov,  R. M. Richard,  R. P. Steele,  E. J. Sundstrom,  
 H. L. Woodcock III,  P. M. Zimmerman,  D. Zuev,  B. Albrecht,  E. Alguire,  
 S. A. Baeppler,  D. Barton,  Z. Benda,  Y. A. Bernard,  E. J. Berquist,  
 K. B. Bravaya,  H. Burton,  D. Casanova,  Chun-Min Chang,  Yunqing Chen,  
 A. Chien,  K. D. Closser,  M. P. Coons,  S. Coriani,  S. Dasgupta,  
 A. L. Dempwolff,  M. Diedenhofen,  Hainam Do,  R. G. Edgar,  Po-Tung Fang,  
 S. Faraji,  S. Fatehi,  Qingguo Feng,  K. D. Fenk,  J. Fosso-Tande,  
 Qinghui Ge,  A. Ghysels,  G. Gidofalvi,  J. Gomes,  J. Gonthier,  A. Gunina,  
 D. Hait,  M. W. D. Hanson-Heine,  P. H. P. Harbach,  A. W. Hauser,  
 J. E. Herr,  E. G. Hohenstein,  Z. C. Holden,  Kerwin Hui,  B. C. Huynh,  
 T.-C. Jagau,  Hyunjun Ji,  B. Kaduk,  K. Khistyaev,  Jaehoon Kim,  
 P. Klunzinger,  K. Koh,  D. Kosenkov,  L. Koulias,  T. Kowalczyk,  
 C. M. Krauter,  A. Kunitsa,  Ka Un Lao,  A. Laurent,  K. V. Lawler,  
 Joonho Lee,  D. Lefrancois,  S. Lehtola,  D. S. Levine,  Yi-Pei Li,  
 You-Sheng Lin,  Fenglai Liu,  E. Livshits,  A. Luenser,  P. Manohar,  
 E. Mansoor,  S. F. Manzer,  Shan-Ping Mao,  Yuezhi Mao,  N. Mardirossian,  
 A. V. Marenich,  T. Markovich,  L. A. Martinez-Martinez,  S. A. Maurer,  
 N. J. Mayhall,  S. C. McKenzie,  J.-M. Mewes,  A. F. Morrison,  
 J. W. Mullinax,  K. Nanda,  T. S. Nguyen-Beck,  R. Olivares-Amaya,  
 J. A. Parkhill,  T. M. Perrine,  F. Plasser,  P. Pokhilko,  S. Prager,  
 A. Prociuk,  E. Ramos,  D. R. Rehn,  F. Rob,  M. Schneider,  N. Sergueev,  
 S. M. Sharada,  S. Sharma,  D. W. Small,  T. Stauch,  T. Stein,  
 Yu-Chuan Su,  A. J. W. Thom,  A. Tkatchenko,  T. Tsuchimochi,  N. M. Tubman,  
 L. Vogt,  M. L. Vidal,  O. Vydrov,  M. A. Watson,  J. Wenzel,  
 M. de Wergifosse,  T. A. Wesolowski,  A. White,  J. Witte,  A. Yamada,  
 Jun Yang,  K. Yao,  S. Yeganeh,  S. R. Yost,  Zhi-Qiang You,  A. Zech,  
 Igor Ying Zhang,  Xing Zhang,  Yan Zhao,  Ying Zhu,  B. R. Brooks,  
 G. K. L. Chan,  C. J. Cramer,  M. S. Gordon,  W. J. Hehre,  A. Klamt,  
 M. W. Schmidt,  C. D. Sherrill,  D. G. Truhlar,  A. Aspuru-Guzik,  R. Baer,  
 A. T. Bell,  N. A. Besley,  Jeng-Da Chai,  A. E. DePrince, III,  
 R. A. DiStasio Jr.,  A. Dreuw,  B. D. Dunietz,  T. R. Furlani,  
 Chao-Ping Hsu,  Yousung Jung,  Jing Kong,  D. S. Lambrecht,  WanZhen Liang,  
 C. Ochsenfeld,  V. A. Rassolov,  L. V. Slipchenko,  J. E. Subotnik,  
 T. Van Voorhis,  J. M. Herbert,  A. I. Krylov,  P. M. W. Gill,  M. Head-Gordon

 Contributors to earlier versions of Q-Chem not listed above: 
 R. D. Adamson,  B. Austin,  J. Baker,  G. J. O. Beran,  K. Brandhorst,  
 S. T. Brown,  E. F. C. Byrd,  A. K. Chakraborty,  C.-L. Cheng,  
 Siu Hung Chien,  D. M. Chipman,  D. L. Crittenden,  H. Dachsel,  
 R. J. Doerksen,  A. D. Dutoi,  L. Fusti-Molnar,  W. A. Goddard III,  
 A. Golubeva-Zadorozhnaya,  S. R. Gwaltney,  G. Hawkins,  A. Heyden,  
 S. Hirata,  G. Kedziora,  F. J. Keil,  C. Kelley,  Jihan Kim,  R. A. King,  
 R. Z. Khaliullin,  P. P. Korambath,  W. Kurlancheek,  A. M. Lee,  M. S. Lee,  
 S. V. Levchenko,  Ching Yeh Lin,  D. Liotard,  R. C. Lochan,  I. Lotan,  
 P. E. Maslen,  N. Nair,  D. P. O'Neill,  D. Neuhauser,  E. Neuscamman,  
 C. M. Oana,  R. Olson,  B. Peters,  R. Peverati,  P. A. Pieniazek,  
 Y. M. Rhee,  J. Ritchie,  M. A. Rohrdanz,  E. Rosta,  N. J. Russ,  
 H. F. Schaefer III,  N. E. Schultz,  N. Shenvi,  A. C. Simmonett,  A. Sodt,  
 D. Stuck,  K. S. Thanthiriwatte,  V. Vanovschi,  Tao Wang,  A. Warshel,  
 C. F. Williams,  Q. Wu,  X. Xu,  W. Zhang

 Please cite Q-Chem as follows:
 Y. Shao et al., Mol. Phys. 113, 184-215 (2015)
 DOI: 10.1080/00268976.2014.952696

 Q-Chem 5.1.1 for Intel X86 EM64T Linux

 Parts of Q-Chem use Armadillo 8.300.2 (Tropical Shenanigans).
 http://arma.sourceforge.net/

 Q-Chem begins on Wed Mar 13 15:42:29 2019  

Host: 
0

     Scratch files written to /staging/scratch/2868765/qchem21362//
 Aug318 |scratch|qcdevops|jenkins|workspace|build_RNUM 6013   
Processing $rem in /usr/usc/qchem/5.1.1/config/preferences.
 MEM_TOTAL  2000 
Input Ideriv = 2
Curr. Ideriv = -1
Max.  Ideriv = 2

Checking the input file for inconsistencies... 	...done.

--------------------------------------------------------------
User input:
--------------------------------------------------------------

$comment
potential surface scanner
$end

$rem
JOBTYPE  PES_SCAN
UNRESTRICTED TRUE
SYM_IGNORE  TRUE
GEOM_OPT_MAX_CYCLES 400
SCF_MAX_CYCLES 400
METHOD   B3LYP
BASIS   6-31G**
PDB_PRINT 2
SCF_CONVERGENCE 6
THRESH 14
SCF_PRINT 1
$end
$molecule
0 3
C -1.922017 1.303434 0.163303
C -1.245316 0.000000 -0.097488
Se 1.648983 -0.000000 -0.279244
H 1.156143 0.000000 1.105082
C -1.922017 -1.303434 0.163303
H -1.219329 2.141678 0.121437
H -2.719268 1.513856 -0.571182
H -2.404097 1.306444 1.149524
H -0.452173 -0.000000 -0.858012
H -2.719268 -1.513856 -0.571182
H -1.219329 -2.141678 0.121437
H -2.404097 -1.306444 1.149524
$end
$scan
stre 2 3 2.800000 2.801000 0.100000
$end
--------------------------------------------------------------
 ----------------------------------------------------------------
             Standard Nuclear Orientation (Angstroms)
    I     Atom           X                Y                Z
 ----------------------------------------------------------------
    1      C      -1.9220170000     1.3034340000     0.1633030000
    2      C      -1.2453160000     0.0000000000    -0.0974880000
    3      Se      1.6489830000     0.0000000000    -0.2792440000
    4      H       1.1561430000     0.0000000000     1.1050820000
    5      C      -1.9220170000    -1.3034340000     0.1633030000
    6      H      -1.2193290000     2.1416780000     0.1214370000
    7      H      -2.7192680000     1.5138560000    -0.5711820000
    8      H      -2.4040970000     1.3064440000     1.1495240000
    9      H      -0.4521730000     0.0000000000    -0.8580120000
   10      H      -2.7192680000    -1.5138560000    -0.5711820000
   11      H      -1.2193290000    -2.1416780000     0.1214370000
   12      H      -2.4040970000    -1.3064440000     1.1495240000
 ----------------------------------------------------------------
 Nuclear Repulsion Energy =   219.2115019472 hartrees
 There are       31 alpha and       29 beta electrons
 Requested basis set is 6-31G(d,p)
 There are 44 shells and 120 basis functions

 Total QAlloc Memory Limit   2000 MB
 Mega-Array Size       188 MB
 MEM_STATIC part       192 MB
A total of 1 constraints
  
            1
    1   1.0100000
    2   2.0100000
    3   3.0100000
    4   2.8000000
    5   2.8010000
    6   0.1000000
    7   0.0000000
    8   0.0000000
    9   0.0000000
   10   0.0000000

                       Distance Matrix (Angstroms)
             C (  1)   C (  2)   Se(  3)   H (  4)   C (  5)   H (  6)
   C (  2)  1.491602
   Se(  3)  3.827118  2.900000
   H (  4)  3.472889  2.685736  1.469439
   C (  5)  2.606868  1.491602  3.827118  3.472889
   H (  6)  1.094612  2.152995  3.602019  3.346223  3.516293
   H (  7)  1.104244  2.165336  4.632343  4.485580  3.018642  1.767399
   H (  8)  1.097744  2.145835  4.491729  3.792635  2.831342  1.777148
   H (  9)  2.214151  1.098851  2.179410  2.537798  2.214151  2.476819
   H ( 10)  3.018642  2.165336  4.632343  4.485580  1.104244  4.011542
   H ( 11)  3.516293  2.152995  3.602019  3.346223  1.094612  4.283356
   H ( 12)  2.831342  2.145835  4.491729  3.792635  1.097744  3.788164
             H (  7)   H (  8)   H (  9)   H ( 10)   H ( 11)
   H (  8)  1.761585
   H (  9)  2.741122  3.089823
   H ( 10)  3.027712  3.318773  2.741122
   H ( 11)  4.011542  3.788164  2.476819  1.767399
   H ( 12)  3.318773  2.612888  3.089823  1.761585  1.777148
 
 A cutoff of  1.0D-14 yielded    919 shell pairs
 There are      6819 function pairs
 
 -------------------------------------------------------
 OpenMP Integral Computing Module                       
 Release: version 1.0, May 2013, Q-Chem Inc. Pittsburgh 
 -------------------------------------------------------
 Integral Job Info:
 Integral job number is                      11
 Integral operator is                         1
 short-range coefficients                     0
 long-range coefficients              100000000
 Omega coefficients                           0
 if combine SR and LR in K                    0
 Integral screening is                        0
 Integral computing path is                   2
 max size of driver memory is            800000
 size of driver memory is                593474
 size of scratch memory is             15267112
 max col of scratch BK array               1296
 max len of scratch array in speh3          155
 max len of scratch index in speh4           18
 max int batch size is                      520
 min int batch size is                       52
 fixed nKL is                                52
 max L of basis functions is                  2
 order of int derivative is                   0
 number of shells is                         44
 number of basis is                         120
 number of cartesian basis is               120
 number of contracted shell pairs           919
 number of primitive shell pairs           3400
 maxK2 (contraction) of shell pair           36
 max number of K2 of shell pair               1
 max number of CS2 of shell pair             82
 max number of PS2 of shell pair            264
 mem total for path MDJ                  519708
 -------------------------------------------------------
 Smallest overlap matrix eigenvalue = 6.78E-04

 Scale SEOQF with 1.000000e-01/1.000000e-01/1.000000e+00

 Standard Electronic Orientation quadrupole field applied
 Guess from superposition of atomic densities
 Warning:  Energy on first SCF cycle will be non-variational
 SAD guess density has 59.968191 electrons

 -----------------------------------------------------------------------
  General SCF calculation program by
  Eric Jon Sundstrom, Paul Horn, Yuezhi Mao, Dmitri Zuev, Alec White,
  David Stuck, Shaama M.S., Shane Yost, Joonho Lee, David Small,
  Daniel Levine, Susi Lehtola, Hugh Burton, Evgeny Epifanovsky
 -----------------------------------------------------------------------
 Exchange:     0.2000 Hartree-Fock + 0.0800 Slater + 0.7200 B88
 Correlation:  0.1900 VWN1RPA + 0.8100 LYP
 Using SG-1 standard quadrature grid
 using 12 threads for integral computing
 -------------------------------------------------------
 OpenMP Integral computing Module                
 Release: version 1.0, May 2013, Q-Chem Inc. Pittsburgh 
 -------------------------------------------------------
 -------------------------------------------------------
 OpenMP BLAS3 based DFT computing Module                
 Release: version 1.0, May 2013, Q-Chem Inc. Pittsburgh 
 -------------------------------------------------------
 A unrestricted SCF calculation will be
 performed using DIIS
 SCF converges when DIIS error is below 1.0e-06
 Alpha HF Exchange    Energy = -10.34201424727228
 Beta HF Exchange     Energy = -10.34201424727228
 DFT Correlation      Energy =  -3.07964114237461
 DFT Exchange         Energy = -81.98905572213616
 One-Electron (alpha) Energy = -1966.42606334259926
 One-Electron (beta)  Energy = -1966.42606334259926
 Total Coulomb        Energy = 1296.27334734680790
 ---------------------------------------
  Cycle       Energy         DIIS error
 ---------------------------------------
    1   -2523.1200027501      1.38e-01  
 Alpha HF Exchange    Energy = -10.51502652632254
 Beta HF Exchange     Energy = -10.32014657271155
 DFT Correlation      Energy =  -3.11370147407500
 DFT Exchange         Energy = -82.90162054942131
 One-Electron (alpha) Energy = -1991.02136242921688
 One-Electron (beta)  Energy = -1954.91386497988879
 Total Coulomb        Energy = 1313.34946980821496
    2   -2520.2247507761      8.85e-03  
 Alpha HF Exchange    Energy = -10.41555843631358
 Beta HF Exchange     Energy = -10.23286792821995
 DFT Correlation      Energy =  -3.07675230092971
 DFT Exchange         Energy = -82.13405407738993
 One-Electron (alpha) Energy = -1982.25097415988512
 One-Electron (beta)  Energy = -1946.62686773517930
 Total Coulomb        Energy = 1295.29482637195906
    3   -2520.2307463186      4.13e-03  
 Alpha HF Exchange    Energy = -10.49346774045031
 Beta HF Exchange     Energy = -10.30358445208911
 DFT Correlation      Energy =  -3.10340650360237
 DFT Exchange         Energy = -82.73119462531099
 One-Electron (alpha) Energy = -1988.99745612787842
 One-Electron (beta)  Energy = -1952.50637064280795
 Total Coulomb        Energy = 1308.61962852403963
    4   -2520.3043496208      2.40e-03  
 Alpha HF Exchange    Energy = -10.46810861154660
 Beta HF Exchange     Energy = -10.27992783004438
 DFT Correlation      Energy =  -3.09432849893849
 DFT Exchange         Energy = -82.53326212695470
 One-Electron (alpha) Energy = -1987.10558357780019
 One-Electron (beta)  Energy = -1950.76746512734189
 Total Coulomb        Energy = 1304.69764143825682
    5   -2520.3395323870      2.29e-04  
 Alpha HF Exchange    Energy = -10.46662215969660
 Beta HF Exchange     Energy = -10.27877205535473
 DFT Correlation      Energy =  -3.09407050027963
 DFT Exchange         Energy = -82.52297740570236
 One-Electron (alpha) Energy = -1986.86483764077639
 One-Electron (beta)  Energy = -1950.52745799295167
 Total Coulomb        Energy = 1304.20333568009573
    6   -2520.3399001273      6.92e-05  
 Alpha HF Exchange    Energy = -10.46641680764424
 Beta HF Exchange     Energy = -10.27871034880305
 DFT Correlation      Energy =  -3.09384002411046
 DFT Exchange         Energy = -82.52155896076991
 One-Electron (alpha) Energy = -1986.85763025423716
 One-Electron (beta)  Energy = -1950.51641599295544
 Total Coulomb        Energy = 1304.18313981096617
    7   -2520.3399306302      1.30e-05  
 Alpha HF Exchange    Energy = -10.46654337369370
 Beta HF Exchange     Energy = -10.27878746679033
 DFT Correlation      Energy =  -3.09385424938029
 DFT Exchange         Energy = -82.52232949376376
 One-Electron (alpha) Energy = -1986.87684851044560
 One-Electron (beta)  Energy = -1950.52664557647540
 Total Coulomb        Energy = 1304.21357403459911
    8   -2520.3399326886      6.33e-06  
 Alpha HF Exchange    Energy = -10.46652856310887
 Beta HF Exchange     Energy = -10.27879865123897
 DFT Correlation      Energy =  -3.09384811567648
 DFT Exchange         Energy = -82.52230396924065
 One-Electron (alpha) Energy = -1986.87513473876606
 One-Electron (beta)  Energy = -1950.52377899024282
 Total Coulomb        Energy = 1304.20895805992586
    9   -2520.3399330210      2.80e-06  
 Alpha HF Exchange    Energy = -10.46653587475058
 Beta HF Exchange     Energy = -10.27880633237876
 DFT Correlation      Energy =  -3.09384492556011
 DFT Exchange         Energy = -82.52235418217568
 One-Electron (alpha) Energy = -1986.87558626415239
 One-Electron (beta)  Energy = -1950.52360032668298
 Total Coulomb        Energy = 1304.20929286026126
   10   -2520.3399330981      4.01e-07  Convergence criterion met
 ---------------------------------------
 SCF time:   CPU 30.49s  wall 3.00s 
<S^2> =          2.006469658
 Alpha HF Exchange    Energy = -10.46653587475058
 Beta HF Exchange     Energy = -10.27880633237876
 DFT Correlation      Energy =  -3.09384492556011
 DFT Exchange         Energy = -82.52235418217568
 One-Electron (alpha) Energy = -1986.87558626415239
 One-Electron (beta)  Energy = -1950.52360032668298
 Total Coulomb        Energy = 1304.20929286026126
 Nuclear repulsion Energy = 219.21150194732536
 SCF   energy in the final basis set =    -2520.3399330981
 Total energy in the final basis set =    -2520.3399330981
 
 --------------------------------------------------------------
 
                    Orbital Energies (a.u.)
 --------------------------------------------------------------
 
 Alpha MOs
 -- Occupied --
******* -58.099 -52.158 -52.156 -52.152 -10.203 -10.186 -10.186
 -7.833  -5.780  -5.775  -5.763  -2.114  -2.112  -2.103  -2.099
 -2.098  -0.793  -0.701  -0.698  -0.583  -0.463  -0.437  -0.416
 -0.392  -0.385  -0.366  -0.362  -0.264  -0.244  -0.192
 -- Virtual --
  0.028   0.097   0.128   0.137   0.165   0.168   0.173   0.181
  0.212   0.235   0.261   0.277   0.302   0.306   0.464   0.473
  0.493   0.536   0.550   0.566   0.567   0.592   0.598   0.657
  0.711   0.732   0.753   0.791   0.848   0.851   0.861   0.873
  0.901   0.926   0.939   0.976   1.039   1.263   1.286   1.347
  1.401   1.538   1.547   1.670   1.801   1.810   1.861   1.882
  1.987   2.037   2.041   2.062   2.080   2.094   2.097   2.108
  2.127   2.259   2.275   2.359   2.375   2.486   2.544   2.595
  2.611   2.660   2.716   2.740   2.844   2.847   2.898   2.942
  3.151   3.195   3.335   3.416   3.440   3.448   3.486   4.168
  4.239   4.270   4.275   4.326   4.385   4.480   4.576   5.429
 89.633
 
 Beta MOs
 -- Occupied --
******* -58.098 -52.155 -52.154 -52.152 -10.187 -10.187 -10.187
 -7.830  -5.773  -5.772  -5.762  -2.108  -2.107  -2.098  -2.098
 -2.096  -0.773  -0.695  -0.669  -0.556  -0.453  -0.418  -0.409
 -0.386  -0.374  -0.358  -0.352  -0.231
 -- Virtual --
 -0.151  -0.040   0.036   0.100   0.133   0.140   0.173   0.177
  0.182   0.183   0.226   0.252   0.268   0.287   0.306   0.326
  0.488   0.497   0.511   0.546   0.572   0.576   0.578   0.613
  0.628   0.662   0.736   0.737   0.764   0.808   0.857   0.862
  0.874   0.877   0.914   0.934   0.943   0.986   1.047   1.281
  1.296   1.353   1.430   1.538   1.562   1.681   1.818   1.829
  1.887   1.909   2.014   2.042   2.047   2.067   2.078   2.100
  2.101   2.111   2.137   2.275   2.278   2.362   2.386   2.508
  2.562   2.604   2.619   2.666   2.720   2.746   2.852   2.854
  2.907   2.949   3.156   3.201   3.344   3.419   3.445   3.453
  3.493   4.191   4.250   4.273   4.286   4.338   4.392   4.479
  4.590   5.443  89.638
 --------------------------------------------------------------
 
          Ground-State Mulliken Net Atomic Charges

     Atom                 Charge (a.u.)    Spin (a.u.)
  --------------------------------------------------------
      1 C                    -0.337502      -0.071766
      2 C                    -0.090596       1.065047
      3 Se                   -0.127765       0.947194
      4 H                     0.077309      -0.023871
      5 C                    -0.337502      -0.071766
      6 H                     0.124892       0.010851
      7 H                     0.116355       0.064329
      8 H                     0.114256       0.022114
      9 H                     0.105053      -0.039424
     10 H                     0.116355       0.064329
     11 H                     0.124892       0.010851
     12 H                     0.114256       0.022114
  --------------------------------------------------------
  Sum of atomic charges =     0.000000
  Sum of spin   charges =     2.000000

 -----------------------------------------------------------------
                    Cartesian Multipole Moments
 -----------------------------------------------------------------
    Charge (ESU x 10^10)
                -0.0000
    Dipole Moment (Debye)
         X      -1.5597      Y      -0.0000      Z       0.5717
       Tot       1.6612
    Quadrupole Moments (Debye-Ang)
        XX     -39.3098     XY       0.0000     YY     -41.1855
        XZ       0.7935     YZ      -0.0000     ZZ     -38.1269
    Octopole Moments (Debye-Ang^2)
       XXX      10.6017    XXY      -0.0000    XYY      -0.1671
       YYY      -0.0000    XXZ       4.2707    XYZ       0.0000
       YYZ       3.3108    XZZ       5.9352    YZZ      -0.0000
       ZZZ       8.4317
    Hexadecapole Moments (Debye-Ang^3)
      XXXX    -747.3951   XXXY       0.0000   XXYY    -172.1419
      XYYY       0.0000   YYYY    -232.8422   XXXZ      36.8854
      XXYZ      -0.0000   XYYZ      13.6709   YYYZ      -0.0000
      XXZZ    -131.7379   XYZZ       0.0000   YYZZ     -53.0104
      XZZZ      32.3493   YZZZ      -0.0000   ZZZZ     -74.6692
 -----------------------------------------------------------------
 Calculating analytic gradient of the SCF energy
 Gradient of SCF Energy
            1           2           3           4           5           6
    1   0.0000248   0.0170961  -0.0171481   0.0000218   0.0000248   0.0000041
    2  -0.0000031  -0.0000000   0.0000000  -0.0000000   0.0000031  -0.0000024
    3   0.0000342  -0.0011077   0.0009907   0.0000978   0.0000342   0.0000108
            7           8           9          10          11          12
    1  -0.0000019   0.0000005  -0.0000246  -0.0000019   0.0000041   0.0000005
    2   0.0000075  -0.0000022   0.0000000  -0.0000075   0.0000024   0.0000022
    3   0.0000113   0.0000095  -0.0001125   0.0000113   0.0000108   0.0000095
 Max gradient component =       1.715E-02
 RMS gradient           =       4.043E-03
 Gradient time:  CPU 10.86 s  wall 0.91 s
 Geometry Optimization Parameters
   NAtoms,    NIC,     NZ,  NCons,   NDum,   NFix, NCnnct, MaxDiis
       12      67       0       1       0       0       0       0


** CONSTRAINED OPTIMIZATION IN DELOCALIZED INTERNAL COORDINATES **
   Searching for a Minimum

   Optimization Cycle:   1

                       Coordinates (Angstroms)
     ATOM                X               Y               Z
      1  C        -1.9220170000    1.3034340000    0.1633030000
      2  C        -1.2453160000    0.0000000000   -0.0974880000
      3  Se        1.6489830000    0.0000000000   -0.2792440000
      4  H         1.1561430000    0.0000000000    1.1050820000
      5  C        -1.9220170000   -1.3034340000    0.1633030000
      6  H        -1.2193290000    2.1416780000    0.1214370000
      7  H        -2.7192680000    1.5138560000   -0.5711820000
      8  H        -2.4040970000    1.3064440000    1.1495240000
      9  H        -0.4521730000    0.0000000000   -0.8580120000
     10  H        -2.7192680000   -1.5138560000   -0.5711820000
     11  H        -1.2193290000   -2.1416780000    0.1214370000
     12  H        -2.4040970000   -1.3064440000    1.1495240000
   Point Group: c1    Number of degrees of freedom:    30


   Energy is  -2520.339933098

              Constraints and their Current Values
                                        Value     Constraint
   Distance(Angs):        2   3             2.900000     2.800000

 Attempting to Generate Delocalized Internal Coordinates

   Using Lagrange Multiplier Algorithm


 21 Hessian modes will be used to form the next step
  Hessian Eigenvalues:
    -0.986117    0.045000    0.046949    0.078655    0.092393    0.093288
     0.160000    0.160000    0.160000    0.160000    0.160000    0.160000
     0.160000    0.182805    0.214011    0.301873    0.332171    0.332746
     0.339328    0.342850    1.014078

 Minimum Search - Taking P-RFO Step
 Searching for Lamda that Maximizes Along the Constraint modes Only
 Value Taken    Lamda =   0.02134201
 Searching for Lamda that Minimizes Along All other modes
 Value Taken    Lamda =  -0.01410822
 Step Taken.  Stepsize is  0.185608

                             Maximum     Tolerance    Cnvgd?
         Gradient            0.188973       0.000300      NO
         Displacement        0.185601       0.001200      NO
         Energy change     *********       0.000001      NO


 New Cartesian Coordinates Obtained by Inverse Iteration

 Displacement from previous Coordinates is:  0.387040
 ----------------------------------------------------------------
             Standard Nuclear Orientation (Angstroms)
    I     Atom           X                Y                Z
 ----------------------------------------------------------------
    1      C      -1.8960967110     1.3034012119     0.1591071219
    2      C      -1.2284407020     0.0000000000    -0.1242291075
    3      Se      1.5710015638     0.0000000000    -0.2387678993
    4      H       1.0205806375     0.0000000000     1.1233693012
    5      C      -1.8960967110    -1.3034012119     0.1591071219
    6      H      -1.1953522735     2.1417405160     0.0933872964
    7      H      -2.7177314125     1.5135836583    -0.5480674916
    8      H      -2.3445797876     1.3064921532     1.1610480691
    9      H      -0.4774061301     0.0000000000    -0.8948202859
   10      H      -2.7177314125    -1.5135836583    -0.5480674916
   11      H      -1.1953522735    -2.1417405160     0.0933872964
   12      H      -2.3445797876    -1.3064921532     1.1610480691
 ----------------------------------------------------------------
 Nuclear Repulsion Energy =   223.0403750031 hartrees
 There are       31 alpha and       29 beta electrons

                       Distance Matrix (Angstroms)
             C (  1)   C (  2)   Se(  3)   H (  4)   C (  5)   H (  6)
   C (  2)  1.491609
   Se(  3)  3.725309  2.801784
   H (  4)  3.337014  2.571886  1.469143
   C (  5)  2.606802  1.491609  3.725309  3.337014
   H (  6)  1.094612  2.153022  3.514270  3.249350  3.516300
   H (  7)  1.104245  2.165309  4.558490  4.365732  3.018374  1.767395
   H (  8)  1.097740  2.145839  4.358691  3.610076  2.831354  1.777150
   H (  9)  2.195974  1.076041  2.150902  2.513375  2.195974  2.465574
   H ( 10)  3.018374  2.165309  4.558490  4.365732  1.104245  4.011296
   H ( 11)  3.516300  2.153022  3.514270  3.249350  1.094612  4.283481
   H ( 12)  2.831354  2.145839  4.358691  3.610076  1.097740  3.788262
             H (  7)   H (  8)   H (  9)   H ( 10)   H ( 11)
   H (  8)  1.761592
   H (  9)  2.725845  3.069178
   H ( 10)  3.027167  3.318606  2.725845
   H ( 11)  4.011296  3.788262  2.465574  1.767395
   H ( 12)  3.318606  2.612984  3.069178  1.761592  1.777150
 
 Applying Cartesian multipole field
    Component          Value
    ---------          -----
     (2,0,0)        1.00000E-11
     (0,2,0)        2.00000E-11
     (0,0,2)       -3.00000E-10
 Nucleus-field energy     =     0.0000000003 hartrees
 Requested basis set is 6-31G(d,p)
 There are 44 shells and 120 basis functions
 A cutoff of  1.0D-14 yielded    923 shell pairs
 There are      6899 function pairs
 Smallest overlap matrix eigenvalue = 6.78E-04
 Guess from superposition of atomic densities
 Warning:  Energy on first SCF cycle will be non-variational
 SAD guess density has 59.968191 electrons

 -----------------------------------------------------------------------
  General SCF calculation program by
  Eric Jon Sundstrom, Paul Horn, Yuezhi Mao, Dmitri Zuev, Alec White,
  David Stuck, Shaama M.S., Shane Yost, Joonho Lee, David Small,
  Daniel Levine, Susi Lehtola, Hugh Burton, Evgeny Epifanovsky
 -----------------------------------------------------------------------
 Exchange:     0.2000 Hartree-Fock + 0.0800 Slater + 0.7200 B88
 Correlation:  0.1900 VWN1RPA + 0.8100 LYP
 Using SG-1 standard quadrature grid
 using 12 threads for integral computing
 -------------------------------------------------------
 OpenMP Integral computing Module                
 Release: version 1.0, May 2013, Q-Chem Inc. Pittsburgh 
 -------------------------------------------------------
 -------------------------------------------------------
 OpenMP BLAS3 based DFT computing Module                
 Release: version 1.0, May 2013, Q-Chem Inc. Pittsburgh 
 -------------------------------------------------------
 A unrestricted SCF calculation will be
 performed using DIIS
 SCF converges when DIIS error is below 1.0e-06
 Alpha HF Exchange    Energy = -10.34505373451702
 Beta HF Exchange     Energy = -10.34505373451702
 DFT Correlation      Energy =  -3.08099187954295
 DFT Exchange         Energy = -81.99491027172766
 One-Electron (alpha) Energy = -1970.23979278853471
 One-Electron (beta)  Energy = -1970.23979278853471
 Total Coulomb        Energy = 1300.05705044017805
 ---------------------------------------
  Cycle       Energy         DIIS error
 ---------------------------------------
    1   -2523.1481697537      1.38e-01  
 Alpha HF Exchange    Energy = -10.51698707612401
 Beta HF Exchange     Energy = -10.32119542543442
 DFT Correlation      Energy =  -3.11511734346448
 DFT Exchange         Energy = -82.91281587411935
 One-Electron (alpha) Energy = -1995.09847979659321
 One-Electron (beta)  Energy = -1958.59074340337975
 Total Coulomb        Energy = 1317.29506530185722
    2   -2520.2198986138      8.86e-03  
 Alpha HF Exchange    Energy = -10.41684998128699
 Beta HF Exchange     Energy = -10.23372639948644
 DFT Correlation      Energy =  -3.07804033495609
 DFT Exchange         Energy = -82.14176238356455
 One-Electron (alpha) Energy = -1986.21279957634351
 One-Electron (beta)  Energy = -1950.21956009627638
 Total Coulomb        Energy = 1299.03632198462333
    3   -2520.2260417838      4.14e-03  
 Alpha HF Exchange    Energy = -10.49522011727318
 Beta HF Exchange     Energy = -10.30444072764046
 DFT Correlation      Energy =  -3.10478525919133
 DFT Exchange         Energy = -82.74091626894342
 One-Electron (alpha) Energy = -1993.05388377867735
 One-Electron (beta)  Energy = -1956.17469868527860
 Total Coulomb        Energy = 1312.53320877247688
    4   -2520.3003610610      2.40e-03  
 Alpha HF Exchange    Energy = -10.46974559614126
 Beta HF Exchange     Energy = -10.28085875647401
 DFT Correlation      Energy =  -3.09569577259165
 DFT Exchange         Energy = -82.54272200774909
 One-Electron (alpha) Energy = -1991.13020027432276
 One-Electron (beta)  Energy = -1954.40878258840849
 Total Coulomb        Energy = 1308.55216678846000
    5   -2520.3354632037      2.30e-04  
 Alpha HF Exchange    Energy = -10.46825966329824
 Beta HF Exchange     Energy = -10.27969030161278
 DFT Correlation      Energy =  -3.09543354989040
 DFT Exchange         Energy = -82.53239599019778
 One-Electron (alpha) Energy = -1990.89079397605815
 One-Electron (beta)  Energy = -1954.17072009292929
 Total Coulomb        Energy = 1308.06108012045979
    6   -2520.3358384500      6.97e-05  
 Alpha HF Exchange    Energy = -10.46806309145692
 Beta HF Exchange     Energy = -10.27964260906039
 DFT Correlation      Energy =  -3.09520603721507
 DFT Exchange         Energy = -82.53106530385838
 One-Electron (alpha) Energy = -1990.88395077580367
 One-Electron (beta)  Energy = -1954.16003179641211
 Total Coulomb        Energy = 1308.04171549582134
    7   -2520.3358691145      1.29e-05  
 Alpha HF Exchange    Energy = -10.46818521549825
 Beta HF Exchange     Energy = -10.27971894665212
 DFT Correlation      Energy =  -3.09521983107619
 DFT Exchange         Energy = -82.53181448104027
 One-Electron (alpha) Energy = -1990.90304567711610
 One-Electron (beta)  Energy = -1954.17012535102117
 Total Coulomb        Energy = 1308.07186333485697
    8   -2520.3358711641      6.08e-06  
 Alpha HF Exchange    Energy = -10.46817040986002
 Beta HF Exchange     Energy = -10.27973122891013
 DFT Correlation      Energy =  -3.09521383437873
 DFT Exchange         Energy = -82.53179332286369
 One-Electron (alpha) Energy = -1990.90118283340416
 One-Electron (beta)  Energy = -1954.16711549700335
 Total Coulomb        Energy = 1308.06696065163396
    9   -2520.3358714713      2.83e-06  
 Alpha HF Exchange    Energy = -10.46817778142834
 Beta HF Exchange     Energy = -10.27973905263097
 DFT Correlation      Energy =  -3.09521076644661
 DFT Exchange         Energy = -82.53184435620051
 One-Electron (alpha) Energy = -1990.90176149618014
 One-Electron (beta)  Energy = -1954.16706254367250
 Total Coulomb        Energy = 1308.06754944582553
   10   -2520.3358715473      4.09e-07  Convergence criterion met
 ---------------------------------------
 SCF time:   CPU 29.99s  wall 3.00s 
<S^2> =          2.006298926
 Alpha HF Exchange    Energy = -10.46817778142834
 Beta HF Exchange     Energy = -10.27973905263097
 DFT Correlation      Energy =  -3.09521076644661
 DFT Exchange         Energy = -82.53184435620051
 One-Electron (alpha) Energy = -1990.90176149618014
 One-Electron (beta)  Energy = -1954.16706254367250
 Total Coulomb        Energy = 1308.06754944582553
 Nuclear repulsion Energy = 223.04037500347837
 SCF   energy in the final basis set =    -2520.3358715473
 Total energy in the final basis set =    -2520.3358715473
 
 --------------------------------------------------------------
 
                    Orbital Energies (a.u.)
 --------------------------------------------------------------
 
 Alpha MOs
 -- Occupied --
******* -58.097 -52.157 -52.154 -52.151 -10.201 -10.186 -10.186
 -7.831  -5.779  -5.773  -5.762  -2.112  -2.111  -2.102  -2.098
 -2.096  -0.795  -0.701  -0.698  -0.586  -0.465  -0.437  -0.417
 -0.393  -0.385  -0.367  -0.363  -0.263  -0.243  -0.189
 -- Virtual --
  0.028   0.097   0.129   0.137   0.165   0.169   0.172   0.181
  0.213   0.237   0.260   0.276   0.301   0.304   0.466   0.473
  0.493   0.536   0.549   0.566   0.571   0.598   0.608   0.661
  0.708   0.733   0.760   0.792   0.851   0.854   0.862   0.874
  0.908   0.929   0.940   0.981   1.042   1.265   1.286   1.348
  1.403   1.540   1.555   1.684   1.800   1.810   1.860   1.881
  1.998   2.037   2.041   2.062   2.080   2.094   2.104   2.109
  2.139   2.263   2.275   2.361   2.380   2.497   2.544   2.605
  2.618   2.667   2.716   2.743   2.846   2.851   2.905   2.950
  3.153   3.195   3.350   3.416   3.449   3.449   3.502   4.171
  4.244   4.275   4.279   4.341   4.388   4.480   4.584   5.434
 89.645
 
 Beta MOs
 -- Occupied --
******* -58.096 -52.153 -52.152 -52.150 -10.187 -10.187 -10.185
 -7.828  -5.772  -5.770  -5.760  -2.107  -2.106  -2.097  -2.097
 -2.094  -0.774  -0.695  -0.670  -0.559  -0.454  -0.419  -0.410
 -0.386  -0.374  -0.358  -0.353  -0.231
 -- Virtual --
 -0.150  -0.038   0.036   0.100   0.134   0.140   0.173   0.177
  0.182   0.184   0.228   0.254   0.266   0.286   0.309   0.322
  0.481   0.497   0.519   0.546   0.573   0.576   0.581   0.622
  0.635   0.667   0.735   0.736   0.772   0.808   0.857   0.863
  0.876   0.877   0.921   0.939   0.944   0.993   1.050   1.283
  1.297   1.354   1.432   1.541   1.571   1.696   1.816   1.828
  1.886   1.910   2.021   2.042   2.047   2.067   2.078   2.100
  2.108   2.111   2.150   2.279   2.280   2.365   2.392   2.517
  2.562   2.611   2.631   2.673   2.720   2.749   2.854   2.858
  2.913   2.957   3.158   3.201   3.359   3.419   3.453   3.454
  3.512   4.194   4.254   4.279   4.290   4.353   4.395   4.479
  4.599   5.448  89.650
 --------------------------------------------------------------
 
          Ground-State Mulliken Net Atomic Charges

     Atom                 Charge (a.u.)    Spin (a.u.)
  --------------------------------------------------------
      1 C                    -0.336744      -0.071615
      2 C                    -0.100306       1.057151
      3 Se                   -0.128258       0.949632
      4 H                     0.077118      -0.023317
      5 C                    -0.336744      -0.071615
      6 H                     0.125293       0.010967
      7 H                     0.116406       0.063907
      8 H                     0.114263       0.022224
      9 H                     0.113009      -0.034432
     10 H                     0.116406       0.063907
     11 H                     0.125293       0.010967
     12 H                     0.114263       0.022224
  --------------------------------------------------------
  Sum of atomic charges =    -0.000000
  Sum of spin   charges =     2.000000

 -----------------------------------------------------------------
                    Cartesian Multipole Moments
 -----------------------------------------------------------------
    Charge (ESU x 10^10)
                -0.0000
    Dipole Moment (Debye)
         X      -1.6239      Y      -0.0000      Z       0.5358
       Tot       1.7100
    Quadrupole Moments (Debye-Ang)
        XX     -39.4876     XY      -0.0000     YY     -41.1671
        XZ       0.6667     YZ       0.0000     ZZ     -38.0032
    Octopole Moments (Debye-Ang^2)
       XXX      13.6358    XXY       0.0000    XYY       1.0783
       YYY       0.0000    XXZ       3.3134    XYZ      -0.0000
       YYZ       2.5840    XZZ       6.8495    YZZ       0.0000
       ZZZ       6.8932
    Hexadecapole Moments (Debye-Ang^3)
      XXXX    -709.9871   XXXY      -0.0000   XXYY    -165.0348
      XYYY      -0.0000   YYYY    -232.7999   XXXZ      31.4750
      XXYZ       0.0000   XYYZ      11.6598   YYYZ       0.0000
      XXZZ    -125.5329   XYZZ      -0.0000   YYZZ     -52.6452
      XZZZ      27.0076   YZZZ       0.0000   ZZZZ     -72.7417
 -----------------------------------------------------------------
 Calculating analytic gradient of the SCF energy
 Gradient of SCF Energy
            1           2           3           4           5           6
    1   0.0004674   0.0320846  -0.0232380  -0.0004228   0.0004674  -0.0001372
    2   0.0001805   0.0000000   0.0000000   0.0000000  -0.0001805   0.0000488
    3   0.0000700  -0.0114737   0.0007454  -0.0001370   0.0000700   0.0000021
            7           8           9          10          11          12
    1   0.0000980   0.0000918  -0.0094639   0.0000980  -0.0001372   0.0000918
    2  -0.0001319  -0.0000017  -0.0000000   0.0001319  -0.0000488   0.0000017
    3  -0.0000771   0.0000611   0.0107532  -0.0000771   0.0000021   0.0000611
 Max gradient component =       3.208E-02
 RMS gradient           =       7.279E-03
 Gradient time:  CPU 11.29 s  wall 0.95 s
 Geometry Optimization Parameters
   NAtoms,    NIC,     NZ,  NCons,   NDum,   NFix, NCnnct, MaxDiis
       12      67       0       1       0       0       0       0

 Cartesian Hessian Update
 Hessian Updated using BFGS Update


** CONSTRAINED OPTIMIZATION IN DELOCALIZED INTERNAL COORDINATES **
   Searching for a Minimum

   Optimization Cycle:   2

                       Coordinates (Angstroms)
     ATOM                X               Y               Z
      1  C        -1.8960967110    1.3034012119    0.1591071219
      2  C        -1.2284407020    0.0000000000   -0.1242291075
      3  Se        1.5710015638    0.0000000000   -0.2387678993
      4  H         1.0205806375    0.0000000000    1.1233693012
      5  C        -1.8960967110   -1.3034012119    0.1591071219
      6  H        -1.1953522735    2.1417405160    0.0933872964
      7  H        -2.7177314125    1.5135836583   -0.5480674916
      8  H        -2.3445797876    1.3064921532    1.1610480691
      9  H        -0.4774061301    0.0000000000   -0.8948202859
     10  H        -2.7177314125   -1.5135836583   -0.5480674916
     11  H        -1.1953522735   -2.1417405160    0.0933872964
     12  H        -2.3445797876   -1.3064921532    1.1610480691
   Point Group: c1    Number of degrees of freedom:    30


   Energy is  -2520.335871547

              Constraints and their Current Values
                                        Value     Constraint
   Distance(Angs):        2   3             2.801784     2.800000
 Hessian Updated using BFGS Update

   Using Lagrange Multiplier Algorithm


 16 Hessian modes will be used to form the next step
  Hessian Eigenvalues:
    -0.976106    0.045006    0.046973    0.079009    0.092395    0.093289
     0.159998    0.160725    0.182796    0.214124    0.332170    0.332736
     0.339328    0.342848    0.393998    1.030299

 Minimum Search - Taking P-RFO Step
 Searching for Lamda that Maximizes Along the Constraint modes Only
 Value Taken    Lamda =   0.00003405
 Searching for Lamda that Minimizes Along All other modes
 Value Taken    Lamda =  -0.00044997
 Step Taken.  Stepsize is  0.035568

                             Maximum     Tolerance    Cnvgd?
         Gradient            0.008233       0.000300      NO
         Displacement        0.023923       0.001200      NO
         Energy change      0.004062       0.000001      NO


 New Cartesian Coordinates Obtained by Inverse Iteration

 Displacement from previous Coordinates is:  0.031809
 ----------------------------------------------------------------
             Standard Nuclear Orientation (Angstroms)
    I     Atom           X                Y                Z
 ----------------------------------------------------------------
    1      C      -1.8969309222     1.3027570145     0.1601317543
    2      C      -1.2276282991     0.0000000000    -0.1231758640
    3      Se      1.5700242905     0.0000000000    -0.2378131904
    4      H       1.0176324530     0.0000000000     1.1233821901
    5      C      -1.8969309222    -1.3027570145     0.1601317543
    6      H      -1.1961759602     2.1411696741     0.0944633798
    7      H      -2.7190644828     1.5132387258    -0.5464690617
    8      H      -2.3454922321     1.3055019480     1.1620115514
    9      H      -0.4664862500     0.0000000000    -0.9061663831
   10      H      -2.7190644828    -1.5132387258    -0.5464690617
   11      H      -1.1961759602    -2.1411696741     0.0944633798
   12      H      -2.3454922321    -1.3055019480     1.1620115514
 ----------------------------------------------------------------
 Nuclear Repulsion Energy =   223.0433307290 hartrees
 There are       31 alpha and       29 beta electrons

                       Distance Matrix (Angstroms)
             C (  1)   C (  2)   Se(  3)   H (  4)   C (  5)   H (  6)
   C (  2)  1.491779
   Se(  3)  3.724958  2.800000
   H (  4)  3.334622  2.568093  1.469010
   C (  5)  2.605514  1.491779  3.724958  3.334622
   H (  6)  1.094671  2.152432  3.513813  3.247188  3.515110
   H (  7)  1.104306  2.166437  4.558667  4.363622  3.017453  1.767564
   H (  8)  1.097715  2.146081  4.358338  3.607830  2.829838  1.777337
   H (  9)  2.209149  1.091976  2.143378  2.514294  2.209149  2.473523
   H ( 10)  3.017453  2.166437  4.558667  4.363622  1.104306  4.010572
   H ( 11)  3.515110  2.152432  3.513813  3.247188  1.094671  4.282339
   H ( 12)  2.829838  2.146081  4.358338  3.607830  1.097715  3.786837
             H (  7)   H (  8)   H (  9)   H ( 10)   H ( 11)
   H (  8)  1.761141
   H (  9)  2.737404  3.084211
   H ( 10)  3.026477  3.317192  2.737404
   H ( 11)  4.010572  3.786837  2.473523  1.767564
   H ( 12)  3.317192  2.611004  3.084211  1.761141  1.777337
 
 Applying Cartesian multipole field
    Component          Value
    ---------          -----
     (2,0,0)        1.00000E-11
     (0,2,0)        2.00000E-11
     (0,0,2)       -3.00000E-10
 Nucleus-field energy     =     0.0000000003 hartrees
 Requested basis set is 6-31G(d,p)
 There are 44 shells and 120 basis functions
 A cutoff of  1.0D-14 yielded    923 shell pairs
 There are      6899 function pairs
 Smallest overlap matrix eigenvalue = 6.78E-04
 Guess from superposition of atomic densities
 Warning:  Energy on first SCF cycle will be non-variational
 SAD guess density has 59.968191 electrons

 -----------------------------------------------------------------------
  General SCF calculation program by
  Eric Jon Sundstrom, Paul Horn, Yuezhi Mao, Dmitri Zuev, Alec White,
  David Stuck, Shaama M.S., Shane Yost, Joonho Lee, David Small,
  Daniel Levine, Susi Lehtola, Hugh Burton, Evgeny Epifanovsky
 -----------------------------------------------------------------------
 Exchange:     0.2000 Hartree-Fock + 0.0800 Slater + 0.7200 B88
 Correlation:  0.1900 VWN1RPA + 0.8100 LYP
 Using SG-1 standard quadrature grid
 using 12 threads for integral computing
 -------------------------------------------------------
 OpenMP Integral computing Module                
 Release: version 1.0, May 2013, Q-Chem Inc. Pittsburgh 
 -------------------------------------------------------
 -------------------------------------------------------
 OpenMP BLAS3 based DFT computing Module                
 Release: version 1.0, May 2013, Q-Chem Inc. Pittsburgh 
 -------------------------------------------------------
 A unrestricted SCF calculation will be
 performed using DIIS
 SCF converges when DIIS error is below 1.0e-06
 Alpha HF Exchange    Energy = -10.34419433835035
 Beta HF Exchange     Energy = -10.34419433835035
 DFT Correlation      Energy =  -3.08086326186106
 DFT Exchange         Energy = -81.99303595514449
 One-Electron (alpha) Energy = -1970.25115584819127
 One-Electron (beta)  Energy = -1970.25115584819127
 Total Coulomb        Energy = 1300.07837783906371
 ---------------------------------------
  Cycle       Energy         DIIS error
 ---------------------------------------
    1   -2523.1428910217      1.38e-01  
 Alpha HF Exchange    Energy = -10.51623948279676
 Beta HF Exchange     Energy = -10.32033234714969
 DFT Correlation      Energy =  -3.11495139842093
 DFT Exchange         Energy = -82.90739478610014
 One-Electron (alpha) Energy = -1995.09529841229801
 One-Electron (beta)  Energy = -1958.63362502766336
 Total Coulomb        Energy = 1317.32422380716207
    2   -2520.2202869179      8.85e-03  
 Alpha HF Exchange    Energy = -10.41632448611827
 Beta HF Exchange     Energy = -10.23303785568830
 DFT Correlation      Energy =  -3.07790285280821
 DFT Exchange         Energy = -82.13765997398801
 One-Electron (alpha) Energy = -1986.20237022568426
 One-Electron (beta)  Energy = -1950.23077398568216
 Total Coulomb        Energy = 1299.02791983089423
    3   -2520.2268188197      4.13e-03  
 Alpha HF Exchange    Energy = -10.49467104257565
 Beta HF Exchange     Energy = -10.30378499125515
 DFT Correlation      Energy =  -3.10461385443787
 DFT Exchange         Energy = -82.73683812514348
 One-Electron (alpha) Energy = -1993.05984970572058
 One-Electron (beta)  Energy = -1956.20367921356865
 Total Coulomb        Energy = 1312.55931815402323
    4   -2520.3007880493      2.40e-03  
 Alpha HF Exchange    Energy = -10.46916922068516
 Beta HF Exchange     Energy = -10.28012613603964
 DFT Correlation      Energy =  -3.09553474146806
 DFT Exchange         Energy = -82.53827740729734
 One-Electron (alpha) Energy = -1991.13180449003130
 One-Electron (beta)  Energy = -1954.43402444130925
 Total Coulomb        Energy = 1308.56996015137884
    5   -2520.3356455561      2.31e-04  
 Alpha HF Exchange    Energy = -10.46770286938474
 Beta HF Exchange     Energy = -10.27898004226873
 DFT Correlation      Energy =  -3.09527602603595
 DFT Exchange         Energy = -82.52810912472177
 One-Electron (alpha) Energy = -1990.89182304642509
 One-Electron (beta)  Energy = -1954.19385726611199
 Total Coulomb        Energy = 1308.07638618029114
    6   -2520.3360314653      7.03e-05  
 Alpha HF Exchange    Energy = -10.46749686411071
 Beta HF Exchange     Energy = -10.27892528108377
 DFT Correlation      Energy =  -3.09504327690309
 DFT Exchange         Energy = -82.52670700001072
 One-Electron (alpha) Energy = -1990.88397968915979
 One-Electron (beta)  Energy = -1954.18213639782630
 Total Coulomb        Energy = 1308.05489488791591
    7   -2520.3360628918      1.31e-05  
 Alpha HF Exchange    Energy = -10.46762185957472
 Beta HF Exchange     Energy = -10.27900166174978
 DFT Correlation      Energy =  -3.09505685393731
 DFT Exchange         Energy = -82.52746655518976
 One-Electron (alpha) Energy = -1990.90346314784369
 One-Electron (beta)  Energy = -1954.19238026233438
 Total Coulomb        Energy = 1308.08559460046786
    8   -2520.3360650108      6.31e-06  
 Alpha HF Exchange    Energy = -10.46760657218669
 Beta HF Exchange     Energy = -10.27901337985142
 DFT Correlation      Energy =  -3.09505063594401
 DFT Exchange         Energy = -82.52744092076604
 One-Electron (alpha) Energy = -1990.90159315038136
 One-Electron (beta)  Energy = -1954.18931386184090
 Total Coulomb        Energy = 1308.08062245118140
    9   -2520.3360653405      2.84e-06  
 Alpha HF Exchange    Energy = -10.46761458579252
 Beta HF Exchange     Energy = -10.27902167260368
 DFT Correlation      Energy =  -3.09504755090635
 DFT Exchange         Energy = -82.52749606907746
 One-Electron (alpha) Energy = -1990.90220186950910
 One-Electron (beta)  Energy = -1954.18924149833379
 Total Coulomb        Energy = 1308.08122709841246
   10   -2520.3360654185      4.10e-07  Convergence criterion met
 ---------------------------------------
 SCF time:   CPU 29.98s  wall 3.00s 
<S^2> =          2.006392362
 Alpha HF Exchange    Energy = -10.46761458579252
 Beta HF Exchange     Energy = -10.27902167260368
 DFT Correlation      Energy =  -3.09504755090635
 DFT Exchange         Energy = -82.52749606907746
 One-Electron (alpha) Energy = -1990.90220186950910
 One-Electron (beta)  Energy = -1954.18924149833379
 Total Coulomb        Energy = 1308.08122709841246
 Nuclear repulsion Energy = 223.04333072933179
 SCF   energy in the final basis set =    -2520.3360654185
 Total energy in the final basis set =    -2520.3360654185
 
 --------------------------------------------------------------
 
                    Orbital Energies (a.u.)
 --------------------------------------------------------------
 
 Alpha MOs
 -- Occupied --
******* -58.097 -52.156 -52.154 -52.150 -10.203 -10.187 -10.187
 -7.831  -5.778  -5.773  -5.761  -2.112  -2.111  -2.101  -2.098
 -2.096  -0.795  -0.701  -0.698  -0.585  -0.465  -0.438  -0.417
 -0.393  -0.385  -0.367  -0.363  -0.262  -0.242  -0.189
 -- Virtual --
  0.028   0.097   0.128   0.137   0.165   0.167   0.172   0.181
  0.212   0.237   0.260   0.276   0.301   0.304   0.466   0.474
  0.493   0.536   0.549   0.566   0.571   0.597   0.608   0.661
  0.709   0.733   0.759   0.791   0.851   0.854   0.862   0.873
  0.908   0.929   0.939   0.974   1.041   1.266   1.286   1.348
  1.403   1.540   1.555   1.680   1.800   1.810   1.859   1.881
  1.988   2.036   2.041   2.062   2.080   2.094   2.104   2.108
  2.134   2.260   2.276   2.359   2.378   2.491   2.544   2.601
  2.615   2.662   2.715   2.741   2.844   2.848   2.900   2.943
  3.152   3.195   3.339   3.416   3.442   3.448   3.489   4.171
  4.244   4.275   4.280   4.343   4.388   4.479   4.583   5.435
 89.647
 
 Beta MOs
 -- Occupied --
******* -58.096 -52.153 -52.152 -52.150 -10.187 -10.187 -10.187
 -7.828  -5.771  -5.770  -5.760  -2.106  -2.105  -2.097  -2.096
 -2.094  -0.774  -0.695  -0.669  -0.558  -0.454  -0.419  -0.410
 -0.386  -0.374  -0.358  -0.353  -0.230
 -- Virtual --
 -0.149  -0.038   0.036   0.100   0.133   0.140   0.173   0.177
  0.182   0.183   0.227   0.254   0.266   0.285   0.309   0.321
  0.481   0.497   0.519   0.546   0.572   0.576   0.581   0.622
  0.634   0.667   0.736   0.736   0.772   0.807   0.856   0.862
  0.875   0.877   0.921   0.939   0.943   0.987   1.049   1.284
  1.296   1.354   1.431   1.540   1.571   1.692   1.817   1.828
  1.885   1.909   2.013   2.042   2.047   2.066   2.079   2.100
  2.108   2.111   2.144   2.277   2.279   2.363   2.389   2.512
  2.562   2.610   2.624   2.668   2.720   2.747   2.851   2.854
  2.909   2.950   3.157   3.201   3.348   3.418   3.447   3.453
  3.497   4.194   4.254   4.280   4.291   4.354   4.396   4.479
  4.599   5.449  89.652
 --------------------------------------------------------------
 
          Ground-State Mulliken Net Atomic Charges

     Atom                 Charge (a.u.)    Spin (a.u.)
  --------------------------------------------------------
      1 C                    -0.336487      -0.071511
      2 C                    -0.100130       1.060987
      3 Se                   -0.130032       0.945271
      4 H                     0.076944      -0.023174
      5 C                    -0.336487      -0.071511
      6 H                     0.125655       0.011056
      7 H                     0.116581       0.063907
      8 H                     0.114604       0.022389
      9 H                     0.112511      -0.034765
     10 H                     0.116581       0.063907
     11 H                     0.125655       0.011056
     12 H                     0.114604       0.022389
  --------------------------------------------------------
  Sum of atomic charges =    -0.000000
  Sum of spin   charges =     2.000000

 -----------------------------------------------------------------
                    Cartesian Multipole Moments
 -----------------------------------------------------------------
    Charge (ESU x 10^10)
                -0.0000
    Dipole Moment (Debye)
         X      -1.6645      Y      -0.0000      Z       0.5382
       Tot       1.7493
    Quadrupole Moments (Debye-Ang)
        XX     -39.4947     XY      -0.0000     YY     -41.1655
        XZ       0.6488     YZ       0.0000     ZZ     -38.0075
    Octopole Moments (Debye-Ang^2)
       XXX      13.4390    XXY      -0.0000    XYY       1.0431
       YYY      -0.0000    XXZ       3.3244    XYZ      -0.0000
       YYZ       2.5728    XZZ       6.8505    YZZ      -0.0000
       ZZZ       6.8327
    Hexadecapole Moments (Debye-Ang^3)
      XXXX    -709.8326   XXXY       0.0000   XXYY    -164.8773
      XYYY       0.0000   YYYY    -232.5754   XXXZ      31.4246
      XXYZ       0.0000   XYYZ      11.6460   YYYZ       0.0000
      XXZZ    -125.5308   XYZZ       0.0000   YYZZ     -52.6326
      XZZZ      27.0081   YZZZ       0.0000   ZZZZ     -72.8529
 -----------------------------------------------------------------
 Calculating analytic gradient of the SCF energy
 Gradient of SCF Energy
            1           2           3           4           5           6
    1   0.0000663   0.0258592  -0.0234612  -0.0003648   0.0000663  -0.0000243
    2  -0.0000678  -0.0000000  -0.0000000   0.0000000   0.0000678  -0.0000064
    3   0.0004662  -0.0048218   0.0008080  -0.0001591   0.0004662  -0.0000545
            7           8           9          10          11          12
    1  -0.0000016  -0.0000159  -0.0020822  -0.0000016  -0.0000243  -0.0000159
    2  -0.0000257   0.0001107  -0.0000000   0.0000257   0.0000064  -0.0001107
    3  -0.0000246   0.0000012   0.0033964  -0.0000246  -0.0000545   0.0000012
 Max gradient component =       2.586E-02
 RMS gradient           =       5.915E-03
 Gradient time:  CPU 10.98 s  wall 0.92 s
 Geometry Optimization Parameters
   NAtoms,    NIC,     NZ,  NCons,   NDum,   NFix, NCnnct, MaxDiis
       12      67       0       1       0       0       0       0

 Cartesian Hessian Update
 Hessian Updated using BFGS Update


** CONSTRAINED OPTIMIZATION IN DELOCALIZED INTERNAL COORDINATES **
   Searching for a Minimum

   Optimization Cycle:   3

                       Coordinates (Angstroms)
     ATOM                X               Y               Z
      1  C        -1.8969309222    1.3027570145    0.1601317543
      2  C        -1.2276282991    0.0000000000   -0.1231758640
      3  Se        1.5700242905    0.0000000000   -0.2378131904
      4  H         1.0176324530    0.0000000000    1.1233821901
      5  C        -1.8969309222   -1.3027570145    0.1601317543
      6  H        -1.1961759602    2.1411696741    0.0944633798
      7  H        -2.7190644828    1.5132387258   -0.5464690617
      8  H        -2.3454922321    1.3055019480    1.1620115514
      9  H        -0.4664862500    0.0000000000   -0.9061663831
     10  H        -2.7190644828   -1.5132387258   -0.5464690617
     11  H        -1.1961759602   -2.1411696741    0.0944633798
     12  H        -2.3454922321   -1.3055019480    1.1620115514
   Point Group: c1    Number of degrees of freedom:    30


   Energy is  -2520.336065418

              Constraints and their Current Values
                                        Value     Constraint
   Distance(Angs):        2   3             2.800000     2.800000
 Hessian Updated using BFGS Update

 15 Hessian modes will be used to form the next step
  Hessian Eigenvalues:
     0.044955    0.046344    0.079329    0.092331    0.093292    0.153913
     0.160000    0.160389    0.182803    0.214185    0.305672    0.332190
     0.333782    0.339329    0.342849

 Minimum Search - Taking Simple RFO Step
 Searching for Lamda that Minimizes Along All modes
 Value Taken    Lamda =  -0.00005975
 Step Taken.  Stepsize is  0.020195

                             Maximum     Tolerance    Cnvgd?
         Gradient           0.002335      0.000300      NO
         Displacement       0.012632      0.001200      NO
         Energy change     -0.000194      0.000001      NO


 New Cartesian Coordinates Obtained by Inverse Iteration

 Displacement from previous Coordinates is:  0.021664
 ----------------------------------------------------------------
             Standard Nuclear Orientation (Angstroms)
    I     Atom           X                Y                Z
 ----------------------------------------------------------------
    1      C      -1.8980000757     1.3029102911     0.1600997856
    2      C      -1.2282796733     0.0000000000    -0.1205876568
    3      Se      1.5692297603     0.0000000000    -0.2386668557
    4      H       1.0266455509     0.0000000000     1.1265147751
    5      C      -1.8980000757    -1.3029102911     0.1600997855
    6      H      -1.1973678281     2.1415143213     0.0950456564
    7      H      -2.7196383189     1.5128238305    -0.5472006627
    8      H      -2.3472624715     1.3051503543     1.1616461863
    9      H      -0.4648432495     0.0000000000    -0.9099401936
   10      H      -2.7196383189    -1.5128238305    -0.5472006627
   11      H      -1.1973678281    -2.1415143213     0.0950456564
   12      H      -2.3472624715    -1.3051503543     1.1616461863
 ----------------------------------------------------------------
 Nuclear Repulsion Energy =   223.0077830580 hartrees
 There are       31 alpha and       29 beta electrons

                       Distance Matrix (Angstroms)
             C (  1)   C (  2)   Se(  3)   H (  4)   C (  5)   H (  6)
   C (  2)  1.491605
   Se(  3)  3.725355  2.800000
   H (  4)  3.344411  2.576810  1.469054
   C (  5)  2.605821  1.491605  3.725355  3.344411
   H (  6)  1.094703  2.152565  3.514471  3.255188  3.515562
   H (  7)  1.104277  2.166745  4.558313  4.373168  3.017237  1.767778
   H (  8)  1.097696  2.144683  4.359267  3.617721  2.829649  1.777470
   H (  9)  2.212803  1.098141  2.141976  2.524220  2.212803  2.476423
   H ( 10)  3.017237  2.166745  4.558313  4.373168  1.104277  4.010483
   H ( 11)  3.515562  2.152565  3.514471  3.255188  1.094703  4.283029
   H ( 12)  2.829649  2.144683  4.359267  3.617721  1.097696  3.786739
             H (  7)   H (  8)   H (  9)   H ( 10)   H ( 11)
   H (  8)  1.761235
   H (  9)  2.739401  3.088428
   H ( 10)  3.025648  3.316595  2.739401
   H ( 11)  4.010483  3.786739  2.476423  1.767778
   H ( 12)  3.316595  2.610301  3.088428  1.761235  1.777470
 
 Applying Cartesian multipole field
    Component          Value
    ---------          -----
     (2,0,0)        1.00000E-11
     (0,2,0)        2.00000E-11
     (0,0,2)       -3.00000E-10
 Nucleus-field energy     =     0.0000000003 hartrees
 Requested basis set is 6-31G(d,p)
 There are 44 shells and 120 basis functions
 A cutoff of  1.0D-14 yielded    923 shell pairs
 There are      6899 function pairs
 Smallest overlap matrix eigenvalue = 6.78E-04
 Guess from superposition of atomic densities
 Warning:  Energy on first SCF cycle will be non-variational
 SAD guess density has 59.968191 electrons

 -----------------------------------------------------------------------
  General SCF calculation program by
  Eric Jon Sundstrom, Paul Horn, Yuezhi Mao, Dmitri Zuev, Alec White,
  David Stuck, Shaama M.S., Shane Yost, Joonho Lee, David Small,
  Daniel Levine, Susi Lehtola, Hugh Burton, Evgeny Epifanovsky
 -----------------------------------------------------------------------
 Exchange:     0.2000 Hartree-Fock + 0.0800 Slater + 0.7200 B88
 Correlation:  0.1900 VWN1RPA + 0.8100 LYP
 Using SG-1 standard quadrature grid
 using 12 threads for integral computing
 -------------------------------------------------------
 OpenMP Integral computing Module                
 Release: version 1.0, May 2013, Q-Chem Inc. Pittsburgh 
 -------------------------------------------------------
 -------------------------------------------------------
 OpenMP BLAS3 based DFT computing Module                
 Release: version 1.0, May 2013, Q-Chem Inc. Pittsburgh 
 -------------------------------------------------------
 A unrestricted SCF calculation will be
 performed using DIIS
 SCF converges when DIIS error is below 1.0e-06
 Alpha HF Exchange    Energy = -10.34387426383299
 Beta HF Exchange     Energy = -10.34387426383299
 DFT Correlation      Energy =  -3.08079091780762
 DFT Exchange         Energy = -81.99234702074727
 One-Electron (alpha) Energy = -1970.21853589984130
 One-Electron (beta)  Energy = -1970.21853589984130
 Total Coulomb        Energy = 1300.04925434842039
 ---------------------------------------
  Cycle       Energy         DIIS error
 ---------------------------------------
    1   -2523.1409208592      1.38e-01  
 Alpha HF Exchange    Energy = -10.51598884873127
 Beta HF Exchange     Energy = -10.32001299940559
 DFT Correlation      Energy =  -3.11487761611335
 DFT Exchange         Energy = -82.90550700179713
 One-Electron (alpha) Energy = -1995.05811236344425
 One-Electron (beta)  Energy = -1958.62078932875716
 Total Coulomb        Energy = 1317.30717625048669
    2   -2520.2203288495      8.85e-03  
 Alpha HF Exchange    Energy = -10.41611176967132
 Beta HF Exchange     Energy = -10.23276756062906
 DFT Correlation      Energy =  -3.07781893710705
 DFT Exchange         Energy = -82.13601869855006
 One-Electron (alpha) Energy = -1986.15556129769334
 One-Electron (beta)  Energy = -1950.19740082427302
 Total Coulomb        Energy = 1298.98088669495792
    3   -2520.2270093347      4.13e-03  
 Alpha HF Exchange    Energy = -10.49449085665534
 Beta HF Exchange     Energy = -10.30355421492558
 DFT Correlation      Energy =  -3.10453096044816
 DFT Exchange         Energy = -82.73546158468857
 One-Electron (alpha) Energy = -1993.02728651825123
 One-Electron (beta)  Energy = -1956.18373224230709
 Total Coulomb        Energy = 1312.54034777389234
    4   -2520.3009255451      2.40e-03  
 Alpha HF Exchange    Energy = -10.46895913377734
 Beta HF Exchange     Energy = -10.27985451374143
 DFT Correlation      Energy =  -3.09545251039044
 DFT Exchange         Energy = -82.53664858701305
 One-Electron (alpha) Energy = -1991.09396388710775
 One-Electron (beta)  Energy = -1954.40947880573549
 Total Coulomb        Energy = 1308.54089565264212
    5   -2520.3356787268      2.31e-04  
 Alpha HF Exchange    Energy = -10.46750429353055
 Beta HF Exchange     Energy = -10.27872068021397
 DFT Correlation      Energy =  -3.09519461309580
 DFT Exchange         Energy = -82.52656806147377
 One-Electron (alpha) Energy = -1990.85441150858151
 One-Electron (beta)  Energy = -1954.16886734655327
 Total Coulomb        Energy = 1308.04741624030726
    6   -2520.3360672048      7.06e-05  
 Alpha HF Exchange    Energy = -10.46729559163210
 Beta HF Exchange     Energy = -10.27866407780832
 DFT Correlation      Energy =  -3.09496016350746
 DFT Exchange         Energy = -82.52514567566546
 One-Electron (alpha) Energy = -1990.84634474671384
 One-Electron (beta)  Energy = -1954.15685678003206
 Total Coulomb        Energy = 1308.02538499394359
    7   -2520.3360989831      1.32e-05  
 Alpha HF Exchange    Energy = -10.46742133448772
 Beta HF Exchange     Energy = -10.27874043057373
 DFT Correlation      Energy =  -3.09497364540519
 DFT Exchange         Energy = -82.52590769324630
 One-Electron (alpha) Energy = -1990.86596047715284
 One-Electron (beta)  Energy = -1954.16711267510163
 Total Coulomb        Energy = 1308.05623207047574
    8   -2520.3361011272      6.37e-06  
 Alpha HF Exchange    Energy = -10.46740586288341
 Beta HF Exchange     Energy = -10.27875192419624
 DFT Correlation      Energy =  -3.09496733779627
 DFT Exchange         Energy = -82.52588028107900
 One-Electron (alpha) Energy = -1990.86408268781156
 One-Electron (beta)  Energy = -1954.16400644122314
 Total Coulomb        Energy = 1308.05121001438556
    9   -2520.3361014623      2.84e-06  
 Alpha HF Exchange    Energy = -10.46741419187561
 Beta HF Exchange     Energy = -10.27876040442228
 DFT Correlation      Energy =  -3.09496426592665
 DFT Exchange         Energy = -82.52593732661190
 One-Electron (alpha) Energy = -1990.86472427606532
 One-Electron (beta)  Energy = -1954.16393970805279
 Total Coulomb        Energy = 1308.05185557376126
   10   -2520.3361015409      4.11e-07  Convergence criterion met
 ---------------------------------------
 SCF time:   CPU 29.27s  wall 2.00s 
<S^2> =          2.006413949
 Alpha HF Exchange    Energy = -10.46741419187561
 Beta HF Exchange     Energy = -10.27876040442228
 DFT Correlation      Energy =  -3.09496426592665
 DFT Exchange         Energy = -82.52593732661190
 One-Electron (alpha) Energy = -1990.86472427606532
 One-Electron (beta)  Energy = -1954.16393970805279
 Total Coulomb        Energy = 1308.05185557376126
 Nuclear repulsion Energy = 223.00778305830744
 SCF   energy in the final basis set =    -2520.3361015409
 Total energy in the final basis set =    -2520.3361015409
 
 --------------------------------------------------------------
 
                    Orbital Energies (a.u.)
 --------------------------------------------------------------
 
 Alpha MOs
 -- Occupied --
******* -58.097 -52.156 -52.153 -52.150 -10.203 -10.187 -10.187
 -7.831  -5.778  -5.773  -5.761  -2.111  -2.110  -2.101  -2.097
 -2.096  -0.795  -0.700  -0.699  -0.584  -0.465  -0.438  -0.417
 -0.393  -0.385  -0.367  -0.363  -0.261  -0.242  -0.190
 -- Virtual --
  0.028   0.097   0.127   0.137   0.165   0.167   0.172   0.181
  0.211   0.237   0.260   0.276   0.301   0.305   0.466   0.474
  0.493   0.537   0.549   0.566   0.571   0.597   0.607   0.661
  0.709   0.733   0.759   0.790   0.850   0.854   0.862   0.873
  0.908   0.929   0.939   0.972   1.040   1.266   1.285   1.348
  1.404   1.539   1.555   1.679   1.801   1.811   1.860   1.881
  1.986   2.036   2.041   2.061   2.081   2.093   2.103   2.108
  2.131   2.259   2.275   2.359   2.377   2.488   2.544   2.600
  2.614   2.660   2.715   2.738   2.844   2.846   2.898   2.941
  3.151   3.194   3.333   3.415   3.440   3.448   3.485   4.171
  4.244   4.275   4.280   4.343   4.389   4.479   4.583   5.435
 89.648
 
 Beta MOs
 -- Occupied --
******* -58.096 -52.152 -52.151 -52.149 -10.188 -10.187 -10.187
 -7.827  -5.771  -5.770  -5.760  -2.106  -2.105  -2.096  -2.096
 -2.093  -0.774  -0.696  -0.669  -0.557  -0.454  -0.419  -0.411
 -0.386  -0.373  -0.358  -0.352  -0.230
 -- Virtual --
 -0.148  -0.039   0.036   0.099   0.132   0.140   0.173   0.177
  0.182   0.182   0.226   0.253   0.266   0.285   0.309   0.322
  0.481   0.497   0.520   0.546   0.571   0.576   0.581   0.622
  0.634   0.667   0.736   0.736   0.772   0.806   0.856   0.862
  0.875   0.877   0.921   0.940   0.943   0.984   1.048   1.285
  1.296   1.354   1.432   1.540   1.571   1.691   1.818   1.829
  1.885   1.909   2.012   2.042   2.047   2.066   2.079   2.100
  2.108   2.111   2.142   2.275   2.279   2.362   2.388   2.509
  2.562   2.610   2.621   2.666   2.720   2.744   2.851   2.852
  2.907   2.948   3.156   3.200   3.343   3.418   3.445   3.452
  3.492   4.194   4.255   4.280   4.292   4.355   4.396   4.479
  4.599   5.449  89.653
 --------------------------------------------------------------
 
          Ground-State Mulliken Net Atomic Charges

     Atom                 Charge (a.u.)    Spin (a.u.)
  --------------------------------------------------------
      1 C                    -0.336482      -0.071342
      2 C                    -0.099563       1.062120
      3 Se                   -0.130866       0.943215
      4 H                     0.076646      -0.022964
      5 C                    -0.336482      -0.071342
      6 H                     0.125902       0.011102
      7 H                     0.116657       0.063971
      8 H                     0.114723       0.022386
      9 H                     0.112182      -0.034606
     10 H                     0.116657       0.063971
     11 H                     0.125902       0.011102
     12 H                     0.114723       0.022386
  --------------------------------------------------------
  Sum of atomic charges =    -0.000000
  Sum of spin   charges =     2.000000

 -----------------------------------------------------------------
                    Cartesian Multipole Moments
 -----------------------------------------------------------------
    Charge (ESU x 10^10)
                -0.0000
    Dipole Moment (Debye)
         X      -1.6818      Y       0.0000      Z       0.5398
       Tot       1.7664
    Quadrupole Moments (Debye-Ang)
        XX     -39.4922     XY       0.0000     YY     -41.1602
        XZ       0.6599     YZ       0.0000     ZZ     -38.0051
    Octopole Moments (Debye-Ang^2)
       XXX      13.4035    XXY       0.0000    XYY       1.0432
       YYY       0.0000    XXZ       3.3514    XYZ       0.0000
       YYZ       2.5820    XZZ       6.8713    YZZ       0.0000
       ZZZ       6.8502
    Hexadecapole Moments (Debye-Ang^3)
      XXXX    -710.1574   XXXY      -0.0000   XXYY    -164.8981
      XYYY      -0.0000   YYYY    -232.5130   XXXZ      31.5586
      XXYZ      -0.0000   XYYZ      11.6874   YYYZ      -0.0000
      XXZZ    -125.5774   XYZZ      -0.0000   YYZZ     -52.6572
      XZZZ      27.0987   YZZZ      -0.0000   ZZZZ     -72.9364
 -----------------------------------------------------------------
 Calculating analytic gradient of the SCF energy
 Gradient of SCF Energy
            1           2           3           4           5           6
    1   0.0000945   0.0231649  -0.0234584  -0.0002986   0.0000945  -0.0000119
    2  -0.0000380   0.0000000   0.0000000   0.0000000   0.0000380   0.0000426
    3   0.0002763  -0.0018368   0.0007623   0.0000047   0.0002763  -0.0000520
            7           8           9          10          11          12
    1  -0.0000178   0.0000379   0.0003869  -0.0000178  -0.0000119   0.0000379
    2   0.0000103  -0.0000028   0.0000000  -0.0000103  -0.0000426   0.0000028
    3  -0.0000005  -0.0000219   0.0006660  -0.0000005  -0.0000520  -0.0000219
 Max gradient component =       2.346E-02
 RMS gradient           =       5.507E-03
 Gradient time:  CPU 10.92 s  wall 0.91 s
 Geometry Optimization Parameters
   NAtoms,    NIC,     NZ,  NCons,   NDum,   NFix, NCnnct, MaxDiis
       12      67       0       1       0       0       0       0

 Cartesian Hessian Update
 Hessian Updated using BFGS Update


** CONSTRAINED OPTIMIZATION IN DELOCALIZED INTERNAL COORDINATES **
   Searching for a Minimum

   Optimization Cycle:   4

                       Coordinates (Angstroms)
     ATOM                X               Y               Z
      1  C        -1.8980000757    1.3029102911    0.1600997856
      2  C        -1.2282796733    0.0000000000   -0.1205876568
      3  Se        1.5692297603    0.0000000000   -0.2386668557
      4  H         1.0266455509    0.0000000000    1.1265147751
      5  C        -1.8980000757   -1.3029102911    0.1600997855
      6  H        -1.1973678281    2.1415143213    0.0950456564
      7  H        -2.7196383189    1.5128238305   -0.5472006627
      8  H        -2.3472624715    1.3051503543    1.1616461863
      9  H        -0.4648432495    0.0000000000   -0.9099401936
     10  H        -2.7196383189   -1.5128238305   -0.5472006627
     11  H        -1.1973678281   -2.1415143213    0.0950456564
     12  H        -2.3472624715   -1.3051503543    1.1616461863
   Point Group: c1    Number of degrees of freedom:    30


   Energy is  -2520.336101541

              Constraints and their Current Values
                                        Value     Constraint
   Distance(Angs):        2   3             2.800000     2.800000
 Hessian Updated using BFGS Update

 16 Hessian modes will be used to form the next step
  Hessian Eigenvalues:
     0.037302    0.045151    0.079584    0.092157    0.093304    0.125269
     0.160000    0.160148    0.161666    0.182956    0.214443    0.331971
     0.332698    0.339014    0.342577    0.363647

 Minimum Search - Taking Simple RFO Step
 Searching for Lamda that Minimizes Along All modes
 Value Taken    Lamda =  -0.00001159
 Step Taken.  Stepsize is  0.015275

                             Maximum     Tolerance    Cnvgd?
         Gradient           0.000449      0.000300      NO
         Displacement       0.009986      0.001200      NO
         Energy change     -0.000036      0.000001      NO


 New Cartesian Coordinates Obtained by Inverse Iteration

 Displacement from previous Coordinates is:  0.023274
 ----------------------------------------------------------------
             Standard Nuclear Orientation (Angstroms)
    I     Atom           X                Y                Z
 ----------------------------------------------------------------
    1      C      -1.8989991981     1.3029037090     0.1600653880
    2      C      -1.2283871440     0.0000000000    -0.1183474110
    3      Se      1.5689793952     0.0000000000    -0.2397647657
    4      H       1.0373046719     0.0000000000     1.1292810801
    5      C      -1.8989991981    -1.3029037090     0.1600653880
    6      H      -1.1984147055     2.1415050800     0.0952839267
    7      H      -2.7198337159     1.5117368669    -0.5484366371
    8      H      -2.3495556607     1.3058996642     1.1610981082
    9      H      -0.4660753628     0.0000000000    -0.9106884751
   10      H      -2.7198337158    -1.5117368669    -0.5484366371
   11      H      -1.1984147055    -2.1415050800     0.0952839267
   12      H      -2.3495556607    -1.3058996642     1.1610981082
 ----------------------------------------------------------------
 Nuclear Repulsion Energy =   222.9728014956 hartrees
 There are       31 alpha and       29 beta electrons

                       Distance Matrix (Angstroms)
             C (  1)   C (  2)   Se(  3)   H (  4)   C (  5)   H (  6)
   C (  2)  1.491574
   Se(  3)  3.726164  2.800000
   H (  4)  3.355416  2.586491  1.468661
   C (  5)  2.605807  1.491574  3.726164  3.355416
   H (  6)  1.094654  2.152343  3.515220  3.263991  3.515532
   H (  7)  1.104244  2.166734  4.557910  4.383626  3.016280  1.767965
   H (  8)  1.097760  2.144615  4.361503  3.630043  2.830357  1.777448
   H (  9)  2.212994  1.099511  2.142799  2.534093  2.212994  2.476761
   H ( 10)  3.016280  2.166734  4.557910  4.383626  1.104244  4.009398
   H ( 11)  3.515532  2.152343  3.515220  3.263991  1.094654  4.283010
   H ( 12)  2.830357  2.144615  4.361503  3.630043  1.097760  3.787570
             H (  7)   H (  8)   H (  9)   H ( 10)   H ( 11)
   H (  8)  1.761245
   H (  9)  2.737883  3.089526
   H ( 10)  3.023474  3.316427  2.737883
   H ( 11)  4.009398  3.787570  2.476761  1.767965
   H ( 12)  3.316427  2.611799  3.089526  1.761245  1.777448
 
 Applying Cartesian multipole field
    Component          Value
    ---------          -----
     (2,0,0)        1.00000E-11
     (0,2,0)        2.00000E-11
     (0,0,2)       -3.00000E-10
 Nucleus-field energy     =     0.0000000003 hartrees
 Requested basis set is 6-31G(d,p)
 There are 44 shells and 120 basis functions
 A cutoff of  1.0D-14 yielded    923 shell pairs
 There are      6899 function pairs
 Smallest overlap matrix eigenvalue = 6.78E-04
 Guess from superposition of atomic densities
 Warning:  Energy on first SCF cycle will be non-variational
 SAD guess density has 59.968191 electrons

 -----------------------------------------------------------------------
  General SCF calculation program by
  Eric Jon Sundstrom, Paul Horn, Yuezhi Mao, Dmitri Zuev, Alec White,
  David Stuck, Shaama M.S., Shane Yost, Joonho Lee, David Small,
  Daniel Levine, Susi Lehtola, Hugh Burton, Evgeny Epifanovsky
 -----------------------------------------------------------------------
 Exchange:     0.2000 Hartree-Fock + 0.0800 Slater + 0.7200 B88
 Correlation:  0.1900 VWN1RPA + 0.8100 LYP
 Using SG-1 standard quadrature grid
 using 12 threads for integral computing
 -------------------------------------------------------
 OpenMP Integral computing Module                
 Release: version 1.0, May 2013, Q-Chem Inc. Pittsburgh 
 -------------------------------------------------------
 -------------------------------------------------------
 OpenMP BLAS3 based DFT computing Module                
 Release: version 1.0, May 2013, Q-Chem Inc. Pittsburgh 
 -------------------------------------------------------
 A unrestricted SCF calculation will be
 performed using DIIS
 SCF converges when DIIS error is below 1.0e-06
 Alpha HF Exchange    Energy = -10.34379011864111
 Beta HF Exchange     Energy = -10.34379011864111
 DFT Correlation      Energy =  -3.08075556424953
 DFT Exchange         Energy = -81.99218729086792
 One-Electron (alpha) Energy = -1970.18402894268411
 One-Electron (beta)  Energy = -1970.18402894268411
 Total Coulomb        Energy = 1300.01537703376857
 ---------------------------------------
  Cycle       Energy         DIIS error
 ---------------------------------------
    1   -2523.1404024481      1.38e-01  
 Alpha HF Exchange    Energy = -10.51595492834164
 Beta HF Exchange     Energy = -10.31995445835303
 DFT Correlation      Energy =  -3.11484721270128
 DFT Exchange         Energy = -82.90519560979777
 One-Electron (alpha) Energy = -1995.02371605664393
 One-Electron (beta)  Energy = -1958.59368444364418
 Total Coulomb        Energy = 1317.28024210163449
    2   -2520.2203091120      8.85e-03  
 Alpha HF Exchange    Energy = -10.41606533282294
 Beta HF Exchange     Energy = -10.23271310202537
 DFT Correlation      Energy =  -3.07777435246103
 DFT Exchange         Energy = -82.13565313627997
 One-Electron (alpha) Energy = -1986.11664443271502
 One-Electron (beta)  Energy = -1950.16206605206298
 Total Coulomb        Energy = 1298.94111126812732
    3   -2520.2270036444      4.13e-03  
 Alpha HF Exchange    Energy = -10.49446787275011
 Beta HF Exchange     Energy = -10.30352002592411
 DFT Correlation      Energy =  -3.10449537513399
 DFT Exchange         Energy = -82.73526169248370
 One-Electron (alpha) Energy = -1992.99467391756139
 One-Electron (beta)  Energy = -1956.15429463016403
 Total Coulomb        Energy = 1312.51296302808532
    4   -2520.3009489901      2.40e-03  
 Alpha HF Exchange    Energy = -10.46892216887815
 Beta HF Exchange     Energy = -10.27980675388091
 DFT Correlation      Energy =  -3.09541438954428
 DFT Exchange         Energy = -82.53634792944497
 One-Electron (alpha) Energy = -1991.05863139807116
 One-Electron (beta)  Energy = -1954.37746083532647
 Total Coulomb        Energy = 1308.50809378379699
    5   -2520.3356881955      2.31e-04  
 Alpha HF Exchange    Energy = -10.46747057024071
 Beta HF Exchange     Energy = -10.27867652223613
 DFT Correlation      Energy =  -3.09515641345989
 DFT Exchange         Energy = -82.52629296533802
 One-Electron (alpha) Energy = -1990.81950632502071
 One-Electron (beta)  Energy = -1954.13700391921179
 Total Coulomb        Energy = 1308.01522937739378
    6   -2520.3360758423      7.07e-05  
 Alpha HF Exchange    Energy = -10.46726204351920
 Beta HF Exchange     Energy = -10.27862005960194
 DFT Correlation      Energy =  -3.09492184435469
 DFT Exchange         Energy = -82.52487148532407
 One-Electron (alpha) Energy = -1990.81149413310459
 One-Electron (beta)  Energy = -1954.12499364073369
 Total Coulomb        Energy = 1307.99325404847059
    7   -2520.3361076623      1.32e-05  
 Alpha HF Exchange    Energy = -10.46738763326638
 Beta HF Exchange     Energy = -10.27869628613520
 DFT Correlation      Energy =  -3.09493530203135
 DFT Exchange         Energy = -82.52563246056526
 One-Electron (alpha) Energy = -1990.83110839759070
[...]
         Displacement       0.006255      0.001200      NO
         Energy change     -0.000002      0.000001      NO


 New Cartesian Coordinates Obtained by Inverse Iteration

 Displacement from previous Coordinates is:  0.006832
 ----------------------------------------------------------------
             Standard Nuclear Orientation (Angstroms)
    I     Atom           X                Y                Z
 ----------------------------------------------------------------
    1      C      -1.9000066915     1.3020713872     0.1608500944
    2      C      -1.2255162069     0.0000000000    -0.1142661573
    3      Se      1.5716189560     0.0000000000    -0.2409018925
    4      H       1.0536977345    -0.0000000057     1.1331207237
    5      C      -1.9000066890    -1.3020713865     0.1608500959
    6      H      -1.2013484628     2.1423634676     0.0967636145
    7      H      -2.7186493898     1.5071513298    -0.5512566840
    8      H      -2.3539875514     1.3058577885     1.1602290019
    9      H      -0.4736013054     0.0000000000    -0.9146227355
   10      H      -2.7186493864    -1.5071513312    -0.5512566816
   11      H      -1.2013484586    -2.1423634656     0.0967636169
   12      H      -2.3539875487    -1.3058577875     1.1602290035
 ----------------------------------------------------------------
 Nuclear Repulsion Energy =   222.8456419400 hartrees
 There are       31 alpha and       29 beta electrons

                       Distance Matrix (Angstroms)
             C (  1)   C (  2)   Se(  3)   H (  4)   C (  5)   H (  6)
   C (  2)  1.491984
   Se(  3)  3.729474  2.800000
   H (  4)  3.371212  2.598228  1.468394
   C (  5)  2.604143  1.491984  3.729474  3.371212
   H (  6)  1.094679  2.152868  3.520382  3.278565  3.515162
   H (  7)  1.104233  2.166082  4.557875  4.397640  3.011479  1.767944
   H (  8)  1.097666  2.145472  4.367931  3.649427  2.829514  1.777436
   H (  9)  2.210580  1.098156  2.153329  2.554583  2.210580  2.478354
   H ( 10)  3.011479  2.166082  4.557875  4.397640  1.104233  4.005133
   H ( 11)  3.515162  2.152868  3.520382  3.278565  1.094679  4.284727
   H ( 12)  2.829514  2.145472  4.367931  3.649427  1.097666  3.788108
             H (  7)   H (  8)   H (  9)   H ( 10)   H ( 11)
   H (  8)  1.761443
   H (  9)  2.728329  3.089681
   H ( 10)  3.014303  3.312881  2.728329
   H ( 11)  4.005133  3.788108  2.478354  1.767944
   H ( 12)  3.312881  2.611716  3.089681  1.761443  1.777436
 
 Applying Cartesian multipole field
    Component          Value
    ---------          -----
     (2,0,0)        1.00000E-11
     (0,2,0)        2.00000E-11
     (0,0,2)       -3.00000E-10
 Nucleus-field energy     =     0.0000000003 hartrees
 Requested basis set is 6-31G(d,p)
 There are 44 shells and 120 basis functions
 A cutoff of  1.0D-14 yielded    923 shell pairs
 There are      6899 function pairs
 Smallest overlap matrix eigenvalue = 6.78E-04
 Guess from superposition of atomic densities
 Warning:  Energy on first SCF cycle will be non-variational
 SAD guess density has 59.968191 electrons

 -----------------------------------------------------------------------
  General SCF calculation program by
  Eric Jon Sundstrom, Paul Horn, Yuezhi Mao, Dmitri Zuev, Alec White,
  David Stuck, Shaama M.S., Shane Yost, Joonho Lee, David Small,
  Daniel Levine, Susi Lehtola, Hugh Burton, Evgeny Epifanovsky
 -----------------------------------------------------------------------
 Exchange:     0.2000 Hartree-Fock + 0.0800 Slater + 0.7200 B88
 Correlation:  0.1900 VWN1RPA + 0.8100 LYP
 Using SG-1 standard quadrature grid
 using 12 threads for integral computing
 -------------------------------------------------------
 OpenMP Integral computing Module                
 Release: version 1.0, May 2013, Q-Chem Inc. Pittsburgh 
 -------------------------------------------------------
 -------------------------------------------------------
 OpenMP BLAS3 based DFT computing Module                
 Release: version 1.0, May 2013, Q-Chem Inc. Pittsburgh 
 -------------------------------------------------------
 A unrestricted SCF calculation will be
 performed using DIIS
 SCF converges when DIIS error is below 1.0e-06
 Alpha HF Exchange    Energy = -10.34365114230322
 Beta HF Exchange     Energy = -10.34365114230322
 DFT Correlation      Energy =  -3.08067747794442
 DFT Exchange         Energy = -81.99191592340387
 One-Electron (alpha) Energy = -1970.05667562386111
 One-Electron (beta)  Energy = -1970.05667562386111
 Total Coulomb        Energy = 1299.88883606948093
 ---------------------------------------
  Cycle       Energy         DIIS error
 ---------------------------------------
    1   -2523.1387689239      1.38e-01  
 Alpha HF Exchange    Energy = -10.51600842620848
 Beta HF Exchange     Energy = -10.32003966984877
 DFT Correlation      Energy =  -3.11477005081344
 DFT Exchange         Energy = -82.90552276102929
 One-Electron (alpha) Energy = -1994.90589508787116
 One-Electron (beta)  Energy = -1958.46144470554623
 Total Coulomb        Energy = 1317.15783749816046
    2   -2520.2202012629      8.86e-03  
 Alpha HF Exchange    Energy = -10.41605013246463
 Beta HF Exchange     Energy = -10.23275762568313
 DFT Correlation      Energy =  -3.07765577668943
 DFT Exchange         Energy = -82.13556471187952
 One-Electron (alpha) Energy = -1985.99543059909956
 One-Electron (beta)  Energy = -1950.02505180066555
 Total Coulomb        Energy = 1298.81009434289808
    3   -2520.2267743633      4.14e-03  
 Alpha HF Exchange    Energy = -10.49449850709448
 Beta HF Exchange     Energy = -10.30359580169577
 DFT Correlation      Energy =  -3.10440851350779
 DFT Exchange         Energy = -82.73549277626660
 One-Electron (alpha) Energy = -1992.87850096758052
 One-Electron (beta)  Energy = -1956.02310054499549
 Total Coulomb        Energy = 1312.39305220894744
    4   -2520.3009029619      2.40e-03  
 Alpha HF Exchange    Energy = -10.46893837892304
 Beta HF Exchange     Energy = -10.27987720754055
 DFT Correlation      Energy =  -3.09531764135965
 DFT Exchange         Energy = -82.53649082740722
 One-Electron (alpha) Energy = -1990.93945991519581
 One-Electron (beta)  Energy = -1954.24175586468073
 Total Coulomb        Energy = 1308.38049123380506
    5   -2520.3357066610      2.29e-04  
 Alpha HF Exchange    Energy = -10.46748320943408
 Beta HF Exchange     Energy = -10.27874523513815
 DFT Correlation      Energy =  -3.09505772030150
 DFT Exchange         Energy = -82.52641809388240
 One-Electron (alpha) Energy = -1990.70111507057413
 One-Electron (beta)  Energy = -1954.00250804488837
 Total Coulomb        Energy = 1307.88959825756274
    6   -2520.3360871764      7.05e-05  
 Alpha HF Exchange    Energy = -10.46727957394876
 Beta HF Exchange     Energy = -10.27869159659000
 DFT Correlation      Energy =  -3.09482481446159
 DFT Exchange         Energy = -82.52502841511500
 One-Electron (alpha) Energy = -1990.69370526822536
 One-Electron (beta)  Energy = -1953.99087861198245
 Total Coulomb        Energy = 1307.86864762154187
    7   -2520.3361187185      1.31e-05  
 Alpha HF Exchange    Energy = -10.46740398450745
 Beta HF Exchange     Energy = -10.27876730742776
 DFT Correlation      Energy =  -3.09483834175707
 DFT Exchange         Energy = -82.52578344405113
 One-Electron (alpha) Energy = -1990.71318349638341
 One-Electron (beta)  Energy = -1954.00092263921283
 Total Coulomb        Energy = 1307.89913643498312
    8   -2520.3361208381      6.27e-06  
 Alpha HF Exchange    Energy = -10.46738874299010
 Beta HF Exchange     Energy = -10.27877883610661
 DFT Correlation      Energy =  -3.09483198806926
 DFT Exchange         Energy = -82.52575697959715
 One-Electron (alpha) Energy = -1990.71133820217506
 One-Electron (beta)  Energy = -1953.99780501533428
 Total Coulomb        Energy = 1307.89413665996290
    9   -2520.3361211641      2.85e-06  
 Alpha HF Exchange    Energy = -10.46739715248664
 Beta HF Exchange     Energy = -10.27878723669118
 DFT Correlation      Energy =  -3.09482898492905
 DFT Exchange         Energy = -82.52581421623869
 One-Electron (alpha) Energy = -1990.71201895463309
 One-Electron (beta)  Energy = -1953.99775326255235
 Total Coulomb        Energy = 1307.89483662501107
   10   -2520.3361212423      4.12e-07  Convergence criterion met
 ---------------------------------------
 SCF time:   CPU 29.26s  wall 2.00s 
<S^2> =          2.006335593
 Alpha HF Exchange    Energy = -10.46739715248664
 Beta HF Exchange     Energy = -10.27878723669118
 DFT Correlation      Energy =  -3.09482898492905
 DFT Exchange         Energy = -82.52581421623869
 One-Electron (alpha) Energy = -1990.71201895463309
 One-Electron (beta)  Energy = -1953.99775326255235
 Total Coulomb        Energy = 1307.89483662501107
 Nuclear repulsion Energy = 222.84564194025688
 SCF   energy in the final basis set =    -2520.3361212423
 Total energy in the final basis set =    -2520.3361212423
 
 --------------------------------------------------------------
 
                    Orbital Energies (a.u.)
 --------------------------------------------------------------
 
 Alpha MOs
 -- Occupied --
******* -58.097 -52.156 -52.153 -52.150 -10.204 -10.187 -10.187
 -7.831  -5.778  -5.773  -5.761  -2.111  -2.110  -2.101  -2.097
 -2.096  -0.795  -0.700  -0.698  -0.584  -0.465  -0.438  -0.417
 -0.393  -0.385  -0.366  -0.363  -0.262  -0.242  -0.190
 -- Virtual --
  0.028   0.097   0.128   0.137   0.164   0.167   0.172   0.181
  0.210   0.237   0.260   0.275   0.302   0.304   0.466   0.474
  0.494   0.537   0.549   0.566   0.571   0.596   0.606   0.661
  0.710   0.733   0.759   0.789   0.851   0.854   0.863   0.873
  0.908   0.930   0.939   0.972   1.038   1.266   1.286   1.348
  1.404   1.540   1.555   1.676   1.799   1.816   1.861   1.881
  1.990   2.036   2.041   2.061   2.081   2.093   2.102   2.108
  2.129   2.255   2.276   2.357   2.376   2.487   2.546   2.602
  2.613   2.660   2.715   2.737   2.845   2.845   2.898   2.940
  3.151   3.194   3.333   3.415   3.443   3.448   3.482   4.170
  4.245   4.275   4.281   4.342   4.388   4.479   4.584   5.435
 89.646
 
 Beta MOs
 -- Occupied --
******* -58.095 -52.152 -52.151 -52.149 -10.188 -10.187 -10.187
 -7.827  -5.771  -5.769  -5.760  -2.106  -2.105  -2.096  -2.096
 -2.093  -0.774  -0.695  -0.669  -0.557  -0.454  -0.419  -0.410
 -0.386  -0.374  -0.358  -0.352  -0.230
 -- Virtual --
 -0.149  -0.039   0.036   0.099   0.133   0.140   0.172   0.177
  0.182   0.182   0.225   0.253   0.266   0.285   0.309   0.323
  0.482   0.497   0.520   0.546   0.571   0.576   0.581   0.621
  0.633   0.666   0.736   0.737   0.772   0.805   0.857   0.864
  0.874   0.877   0.921   0.941   0.943   0.984   1.046   1.284
  1.297   1.354   1.433   1.541   1.571   1.688   1.816   1.834
  1.887   1.909   2.016   2.042   2.046   2.066   2.079   2.099
  2.106   2.110   2.139   2.270   2.279   2.360   2.387   2.508
  2.563   2.612   2.621   2.665   2.719   2.743   2.852   2.853
  2.907   2.946   3.156   3.201   3.343   3.418   3.448   3.453
  3.489   4.194   4.255   4.280   4.292   4.353   4.395   4.479
  4.599   5.449  89.651
 --------------------------------------------------------------
 
          Ground-State Mulliken Net Atomic Charges

     Atom                 Charge (a.u.)    Spin (a.u.)
  --------------------------------------------------------
      1 C                    -0.336739      -0.070590
      2 C                    -0.098888       1.058869
      3 Se                   -0.130473       0.944426
      4 H                     0.076309      -0.022600
      5 C                    -0.336739      -0.070590
      6 H                     0.125840       0.011077
      7 H                     0.116562       0.064070
      8 H                     0.114714       0.021677
      9 H                     0.112298      -0.033164
     10 H                     0.116562       0.064070
     11 H                     0.125840       0.011077
     12 H                     0.114714       0.021677
  --------------------------------------------------------
  Sum of atomic charges =    -0.000000
  Sum of spin   charges =     2.000000

 -----------------------------------------------------------------
                    Cartesian Multipole Moments
 -----------------------------------------------------------------
    Charge (ESU x 10^10)
                -0.0000
    Dipole Moment (Debye)
         X      -1.6827      Y      -0.0000      Z       0.5359
       Tot       1.7659
    Quadrupole Moments (Debye-Ang)
        XX     -39.4713     XY       0.0000     YY     -41.1714
        XZ       0.7066     YZ      -0.0000     ZZ     -37.9848
    Octopole Moments (Debye-Ang^2)
       XXX      13.2608    XXY       0.0000    XYY       1.0170
       YYY       0.0000    XXZ       3.4088    XYZ      -0.0000
       YYZ       2.6031    XZZ       6.8317    YZZ       0.0000
       ZZZ       6.8402
    Hexadecapole Moments (Debye-Ang^3)
      XXXX    -711.9671   XXXY       0.0000   XXYY    -165.2436
      XYYY       0.0000   YYYY    -232.3010   XXXZ      31.9622
      XXYZ      -0.0000   XYYZ      11.7759   YYYZ       0.0000
      XXZZ    -125.8025   XYZZ       0.0000   YYZZ     -52.6511
      XZZZ      27.4483   YZZZ       0.0000   ZZZZ     -73.0616
 -----------------------------------------------------------------
 Calculating analytic gradient of the SCF energy
 Gradient of SCF Energy
            1           2           3           4           5           6
    1  -0.0000441   0.0236227  -0.0234199   0.0000265  -0.0000441  -0.0000097
    2   0.0000059  -0.0000000  -0.0000000   0.0000000  -0.0000059   0.0000066
    3  -0.0000195  -0.0012518   0.0010277   0.0000154  -0.0000195  -0.0000234
            7           8           9          10          11          12
    1  -0.0000110   0.0000216  -0.0001428  -0.0000110  -0.0000097   0.0000216
    2  -0.0000185   0.0000125  -0.0000000   0.0000185  -0.0000066  -0.0000125
    3   0.0000079   0.0000050   0.0002690   0.0000079  -0.0000234   0.0000050
 Max gradient component =       2.362E-02
 RMS gradient           =       5.551E-03
 Gradient time:  CPU 11.06 s  wall 0.93 s
 Geometry Optimization Parameters
   NAtoms,    NIC,     NZ,  NCons,   NDum,   NFix, NCnnct, MaxDiis
       12      67       0       1       0       0       0       0

 Cartesian Hessian Update
 Hessian Updated using BFGS Update


** CONSTRAINED OPTIMIZATION IN DELOCALIZED INTERNAL COORDINATES **
   Searching for a Minimum

   Optimization Cycle:   9

                       Coordinates (Angstroms)
     ATOM                X               Y               Z
      1  C        -1.9000066915    1.3020713872    0.1608500944
      2  C        -1.2255162069    0.0000000000   -0.1142661573
      3  Se        1.5716189560    0.0000000000   -0.2409018925
      4  H         1.0536977345   -0.0000000057    1.1331207237
      5  C        -1.9000066890   -1.3020713865    0.1608500959
      6  H        -1.2013484628    2.1423634676    0.0967636145
      7  H        -2.7186493898    1.5071513298   -0.5512566840
      8  H        -2.3539875514    1.3058577885    1.1602290019
      9  H        -0.4736013054    0.0000000000   -0.9146227355
     10  H        -2.7186493864   -1.5071513312   -0.5512566816
     11  H        -1.2013484586   -2.1423634656    0.0967636169
     12  H        -2.3539875487   -1.3058577875    1.1602290035
   Point Group: c1    Number of degrees of freedom:    30


   Energy is  -2520.336121242

              Constraints and their Current Values
                                        Value     Constraint
   Distance(Angs):        2   3             2.800000     2.800000
 Hessian Updated using BFGS Update

 16 Hessian modes will be used to form the next step
  Hessian Eigenvalues:
     0.005436    0.027741    0.061973    0.092666    0.093336    0.107807
     0.160007    0.160636    0.161562    0.183812    0.219829    0.332159
     0.333504    0.339541    0.342969    0.422801

 Minimum Search - Taking Simple RFO Step
 Searching for Lamda that Minimizes Along All modes
 Value Taken    Lamda =  -0.00000112
 Step Taken.  Stepsize is  0.010452

                             Maximum     Tolerance    Cnvgd?
         Gradient           0.000166      0.000300     YES
         Displacement       0.006589      0.001200      NO
         Energy change     -0.000001      0.000001     YES


                       Distance Matrix (Angstroms)
             C (  1)   C (  2)   Se(  3)   H (  4)   C (  5)   H (  6)
   C (  2)  1.491984
   Se(  3)  3.729474  2.800000
   H (  4)  3.371212  2.598228  1.468394
   C (  5)  2.604143  1.491984  3.729474  3.371212
   H (  6)  1.094679  2.152868  3.520382  3.278565  3.515162
   H (  7)  1.104233  2.166082  4.557875  4.397640  3.011479  1.767944
   H (  8)  1.097666  2.145472  4.367931  3.649427  2.829514  1.777436
   H (  9)  2.210580  1.098156  2.153329  2.554583  2.210580  2.478354
   H ( 10)  3.011479  2.166082  4.557875  4.397640  1.104233  4.005133
   H ( 11)  3.515162  2.152868  3.520382  3.278565  1.094679  4.284727
   H ( 12)  2.829514  2.145472  4.367931  3.649427  1.097666  3.788108
             H (  7)   H (  8)   H (  9)   H ( 10)   H ( 11)
   H (  8)  1.761443
   H (  9)  2.728329  3.089681
   H ( 10)  3.014303  3.312881  2.728329
   H ( 11)  4.005133  3.788108  2.478354  1.767944
   H ( 12)  3.312881  2.611716  3.089681  1.761443  1.777436
 
 Final energy is   -2520.33612124226     


 ******************************
 **  OPTIMIZATION CONVERGED  **
 ******************************

                       Coordinates (Angstroms)
     ATOM                X               Y               Z
      1  C        -1.9000066915    1.3020713872    0.1608500944
      2  C        -1.2255162069    0.0000000000   -0.1142661573
      3  Se        1.5716189560    0.0000000000   -0.2409018925
      4  H         1.0536977345   -0.0000000057    1.1331207237
      5  C        -1.9000066890   -1.3020713865    0.1608500959
      6  H        -1.2013484628    2.1423634676    0.0967636145
      7  H        -2.7186493898    1.5071513298   -0.5512566840
      8  H        -2.3539875514    1.3058577885    1.1602290019
      9  H        -0.4736013054    0.0000000000   -0.9146227355
     10  H        -2.7186493864   -1.5071513312   -0.5512566816
     11  H        -1.2013484586   -2.1423634656    0.0967636169
     12  H        -2.3539875487   -1.3058577875    1.1602290035

Z-matrix Print:
$molecule
0 3
Se
H  1 1.468394
H  1 2.153329 2 87.579194
C  3 1.098156 1 114.980031 2 0.000000 0
C  4 1.491984 3 116.354970 1 -103.108589 0
H  5 1.094679 4 111.751526 3 39.284247 0
H  5 1.097666 4 110.969347 3 160.326786 0
H  5 1.104233 4 112.229736 3 -80.959483 0
C  4 1.491984 3 116.354970 1 103.108589 0
H  9 1.094679 4 111.751526 3 -39.284247 0
H  9 1.097666 4 110.969347 3 -160.326786 0
H  9 1.104233 4 112.229736 3 80.959483 0
$end

PES scan, value:    2.8000 energy: -2520.3361212423
------- Summary of potential scan: ------ 
    2.8000     -2520.3361212423
----------------------------------------- 
Archival summary:
1\1\hpc0248\JobtypUnspecified\ProcedureUnspecified\6-31G**\e138(3)\knomura\WedMar1315:43:032019WedMar1315:43:032019\0\\#,JobtypUnspecified,ProcedureUnspecified,6-31G**,\\0,3\Se\H,1,1.46839\H,1,2.15333,2,87.5792\C,3,1.09816,1,114.98,2,0,0\C,4,1.49198,3,116.355,1,-103.109,0\H,5,1.09468,4,111.752,3,39.2842,0\H,5,1.09767,4,110.969,3,160.327,0\H,5,1.10423,4,112.23,3,-80.9595,0\C,4,1.49198,3,116.355,1,103.109,0\H,9,1.09468,4,111.752,3,-39.2842,0\H,9,1.09767,4,110.969,3,-160.327,0\H,9,1.10423,4,112.23,3,80.9595,0\\\@

 Total job time:  34.57s(wall), 404.94s(cpu) 
 Wed Mar 13 15:43:03 2019

        *************************************************************
        *                                                           *
        *  Thank you very much for using Q-Chem.  Have a nice day.  *
        *                                                           *
        *************************************************************


