
Running Job 1 of 1 selenium/01/C-Se.xyz.data/inputs/bond_singlet_2.9.in
qchem selenium/01/C-Se.xyz.data/inputs/bond_singlet_2.9.in_19726.0 /staging/scratch/2868765/qchem19726/ 1
/usr/usc/qchem/5.1.1/exe/qcprog.exe_s selenium/01/C-Se.xyz.data/inputs/bond_singlet_2.9.in_19726.0 /staging/scratch/2868765/qchem19726/
Check license passed

                  Welcome to Q-Chem
     A Quantum Leap Into The Future Of Chemistry


 Q-Chem 5.1, Q-Chem, Inc., Pleasanton, CA (2018)

 Yihan Shao,  Zhengting Gan,  E. Epifanovsky,  A. T. B. Gilbert,  M. Wormit,  
 J. Kussmann,  A. W. Lange,  A. Behn,  Jia Deng,  Xintian Feng,  D. Ghosh,  
 M. Goldey,  P. R. Horn,  L. D. Jacobson,  I. Kaliman,  T. Kus,  A. Landau,  
 Jie Liu,  E. I. Proynov,  R. M. Richard,  R. P. Steele,  E. J. Sundstrom,  
 H. L. Woodcock III,  P. M. Zimmerman,  D. Zuev,  B. Albrecht,  E. Alguire,  
 S. A. Baeppler,  D. Barton,  Z. Benda,  Y. A. Bernard,  E. J. Berquist,  
 K. B. Bravaya,  H. Burton,  D. Casanova,  Chun-Min Chang,  Yunqing Chen,  
 A. Chien,  K. D. Closser,  M. P. Coons,  S. Coriani,  S. Dasgupta,  
 A. L. Dempwolff,  M. Diedenhofen,  Hainam Do,  R. G. Edgar,  Po-Tung Fang,  
 S. Faraji,  S. Fatehi,  Qingguo Feng,  K. D. Fenk,  J. Fosso-Tande,  
 Qinghui Ge,  A. Ghysels,  G. Gidofalvi,  J. Gomes,  J. Gonthier,  A. Gunina,  
 D. Hait,  M. W. D. Hanson-Heine,  P. H. P. Harbach,  A. W. Hauser,  
 J. E. Herr,  E. G. Hohenstein,  Z. C. Holden,  Kerwin Hui,  B. C. Huynh,  
 T.-C. Jagau,  Hyunjun Ji,  B. Kaduk,  K. Khistyaev,  Jaehoon Kim,  
 P. Klunzinger,  K. Koh,  D. Kosenkov,  L. Koulias,  T. Kowalczyk,  
 C. M. Krauter,  A. Kunitsa,  Ka Un Lao,  A. Laurent,  K. V. Lawler,  
 Joonho Lee,  D. Lefrancois,  S. Lehtola,  D. S. Levine,  Yi-Pei Li,  
 You-Sheng Lin,  Fenglai Liu,  E. Livshits,  A. Luenser,  P. Manohar,  
 E. Mansoor,  S. F. Manzer,  Shan-Ping Mao,  Yuezhi Mao,  N. Mardirossian,  
 A. V. Marenich,  T. Markovich,  L. A. Martinez-Martinez,  S. A. Maurer,  
 N. J. Mayhall,  S. C. McKenzie,  J.-M. Mewes,  A. F. Morrison,  
 J. W. Mullinax,  K. Nanda,  T. S. Nguyen-Beck,  R. Olivares-Amaya,  
 J. A. Parkhill,  T. M. Perrine,  F. Plasser,  P. Pokhilko,  S. Prager,  
 A. Prociuk,  E. Ramos,  D. R. Rehn,  F. Rob,  M. Schneider,  N. Sergueev,  
 S. M. Sharada,  S. Sharma,  D. W. Small,  T. Stauch,  T. Stein,  
 Yu-Chuan Su,  A. J. W. Thom,  A. Tkatchenko,  T. Tsuchimochi,  N. M. Tubman,  
 L. Vogt,  M. L. Vidal,  O. Vydrov,  M. A. Watson,  J. Wenzel,  
 M. de Wergifosse,  T. A. Wesolowski,  A. White,  J. Witte,  A. Yamada,  
 Jun Yang,  K. Yao,  S. Yeganeh,  S. R. Yost,  Zhi-Qiang You,  A. Zech,  
 Igor Ying Zhang,  Xing Zhang,  Yan Zhao,  Ying Zhu,  B. R. Brooks,  
 G. K. L. Chan,  C. J. Cramer,  M. S. Gordon,  W. J. Hehre,  A. Klamt,  
 M. W. Schmidt,  C. D. Sherrill,  D. G. Truhlar,  A. Aspuru-Guzik,  R. Baer,  
 A. T. Bell,  N. A. Besley,  Jeng-Da Chai,  A. E. DePrince, III,  
 R. A. DiStasio Jr.,  A. Dreuw,  B. D. Dunietz,  T. R. Furlani,  
 Chao-Ping Hsu,  Yousung Jung,  Jing Kong,  D. S. Lambrecht,  WanZhen Liang,  
 C. Ochsenfeld,  V. A. Rassolov,  L. V. Slipchenko,  J. E. Subotnik,  
 T. Van Voorhis,  J. M. Herbert,  A. I. Krylov,  P. M. W. Gill,  M. Head-Gordon

 Contributors to earlier versions of Q-Chem not listed above: 
 R. D. Adamson,  B. Austin,  J. Baker,  G. J. O. Beran,  K. Brandhorst,  
 S. T. Brown,  E. F. C. Byrd,  A. K. Chakraborty,  C.-L. Cheng,  
 Siu Hung Chien,  D. M. Chipman,  D. L. Crittenden,  H. Dachsel,  
 R. J. Doerksen,  A. D. Dutoi,  L. Fusti-Molnar,  W. A. Goddard III,  
 A. Golubeva-Zadorozhnaya,  S. R. Gwaltney,  G. Hawkins,  A. Heyden,  
 S. Hirata,  G. Kedziora,  F. J. Keil,  C. Kelley,  Jihan Kim,  R. A. King,  
 R. Z. Khaliullin,  P. P. Korambath,  W. Kurlancheek,  A. M. Lee,  M. S. Lee,  
 S. V. Levchenko,  Ching Yeh Lin,  D. Liotard,  R. C. Lochan,  I. Lotan,  
 P. E. Maslen,  N. Nair,  D. P. O'Neill,  D. Neuhauser,  E. Neuscamman,  
 C. M. Oana,  R. Olson,  B. Peters,  R. Peverati,  P. A. Pieniazek,  
 Y. M. Rhee,  J. Ritchie,  M. A. Rohrdanz,  E. Rosta,  N. J. Russ,  
 H. F. Schaefer III,  N. E. Schultz,  N. Shenvi,  A. C. Simmonett,  A. Sodt,  
 D. Stuck,  K. S. Thanthiriwatte,  V. Vanovschi,  Tao Wang,  A. Warshel,  
 C. F. Williams,  Q. Wu,  X. Xu,  W. Zhang

 Please cite Q-Chem as follows:
 Y. Shao et al., Mol. Phys. 113, 184-215 (2015)
 DOI: 10.1080/00268976.2014.952696

 Q-Chem 5.1.1 for Intel X86 EM64T Linux

 Parts of Q-Chem use Armadillo 8.300.2 (Tropical Shenanigans).
 http://arma.sourceforge.net/

 Q-Chem begins on Wed Mar 13 14:55:11 2019  

Host: 
0

     Scratch files written to /staging/scratch/2868765/qchem19726//
 Aug318 |scratch|qcdevops|jenkins|workspace|build_RNUM 6013   
Processing $rem in /usr/usc/qchem/5.1.1/config/preferences.
 MEM_TOTAL  2000 
Input Ideriv = 2
Curr. Ideriv = -1
Max.  Ideriv = 2

Checking the input file for inconsistencies... 	...done.

--------------------------------------------------------------
User input:
--------------------------------------------------------------

$comment
potential surface scanner
$end

$rem
JOBTYPE  PES_SCAN
UNRESTRICTED TRUE
SYM_IGNORE  TRUE
GEOM_OPT_MAX_CYCLES 400
SCF_MAX_CYCLES 400
METHOD   B3LYP
BASIS   6-31G**
PDB_PRINT 2
SCF_CONVERGENCE 6
THRESH 14
SCF_PRINT 1
$end
$molecule
0 1
C -1.730200 1.249200 0.145700
C -1.070500 -0.000000 -0.441800
Se 0.838900 0.000000 0.000600
H 0.783300 0.000000 1.559600
C -1.730200 -1.249200 0.145700
H -1.260200 2.139200 -0.272800
H -2.792000 1.249200 -0.100300
H -1.608100 1.249200 1.228900
H -1.192500 -0.000000 -1.524900
H -2.792000 -1.249200 -0.100300
H -1.260200 -2.139200 -0.272800
H -1.608100 -1.249200 1.228900
$end
$scan
stre 2 3 2.900000 2.901000 0.100000
$end
--------------------------------------------------------------
 ----------------------------------------------------------------
             Standard Nuclear Orientation (Angstroms)
    I     Atom           X                Y                Z
 ----------------------------------------------------------------
    1      C      -1.7302000000     1.2492000000     0.1457000000
    2      C      -1.0705000000     0.0000000000    -0.4418000000
    3      Se      0.8389000000     0.0000000000     0.0006000000
    4      H       0.7833000000     0.0000000000     1.5596000000
    5      C      -1.7302000000    -1.2492000000     0.1457000000
    6      H      -1.2602000000     2.1392000000    -0.2728000000
    7      H      -2.7920000000     1.2492000000    -0.1003000000
    8      H      -1.6081000000     1.2492000000     1.2289000000
    9      H      -1.1925000000     0.0000000000    -1.5249000000
   10      H      -2.7920000000    -1.2492000000    -0.1003000000
   11      H      -1.2602000000    -2.1392000000    -0.2728000000
   12      H      -1.6081000000    -1.2492000000     1.2289000000
 ----------------------------------------------------------------
 Nuclear Repulsion Energy =   262.3907289757 hartrees
 There are       30 alpha and       30 beta electrons
 Requested basis set is 6-31G(d,p)
 There are 44 shells and 120 basis functions

 Total QAlloc Memory Limit   2000 MB
 Mega-Array Size       188 MB
 MEM_STATIC part       192 MB
A total of 1 constraints
  
            1
    1   1.0100000
    2   2.0100000
    3   3.0100000
    4   2.9000000
    5   2.9010000
    6   0.1000000
    7   0.0000000
    8   0.0000000
    9   0.0000000
   10   0.0000000

                       Distance Matrix (Angstroms)
             C (  1)   C (  2)   Se(  3)   H (  4)   C (  5)   H (  6)
   C (  2)  1.529987
   Se(  3)  2.860390  1.959981
   H (  4)  3.142817  2.728035  1.559991
   C (  5)  2.498400  1.529987  2.860390  3.142817
   H (  6)  1.090019  2.154234  3.009509  3.479908  3.446345
   H (  7)  1.089924  2.154225  3.841109  4.135038  2.725791  1.779963
   H (  8)  1.090060  2.154241  3.009490  2.718208  2.725845  1.779954
   H (  9)  2.154188  1.089949  2.540420  3.663049  2.154188  2.479620
   H ( 10)  2.725791  2.154225  3.841109  4.135038  1.089924  3.722556
   H ( 11)  3.446345  2.154234  3.009509  3.479908  1.090019  4.278400
   H ( 12)  2.725845  2.154241  3.009490  2.718208  1.090060  3.722552
             H (  7)   H (  8)   H (  9)   H ( 10)   H ( 11)
   H (  8)  1.779998
   H (  9)  2.479594  3.052317
   H ( 10)  2.498400  3.067637  2.479594
   H ( 11)  3.722556  3.722552  2.479620  1.779963
   H ( 12)  3.067637  2.498400  3.052317  1.779998  1.779954
 
 A cutoff of  1.0D-14 yielded    970 shell pairs
 There are      7307 function pairs
 
 -------------------------------------------------------
 OpenMP Integral Computing Module                       
 Release: version 1.0, May 2013, Q-Chem Inc. Pittsburgh 
 -------------------------------------------------------
 Integral Job Info:
 Integral job number is                      11
 Integral operator is                         1
 short-range coefficients                     0
 long-range coefficients              100000000
 Omega coefficients                           0
 if combine SR and LR in K                    0
 Integral screening is                        0
 Integral computing path is                   2
 max size of driver memory is            800000
 size of driver memory is                593474
 size of scratch memory is             15267112
 max col of scratch BK array               1296
 max len of scratch array in speh3          155
 max len of scratch index in speh4           18
 max int batch size is                      520
 min int batch size is                       52
 fixed nKL is                                52
 max L of basis functions is                  2
 order of int derivative is                   0
 number of shells is                         44
 number of basis is                         120
 number of cartesian basis is               120
 number of contracted shell pairs           970
 number of primitive shell pairs           3688
 maxK2 (contraction) of shell pair           36
 max number of K2 of shell pair               1
 max number of CS2 of shell pair             86
 max number of PS2 of shell pair            288
 mem total for path MDJ                  519708
 -------------------------------------------------------
 Smallest overlap matrix eigenvalue = 6.74E-04

 Scale SEOQF with 1.000000e-01/1.000000e-01/1.000000e-01

 Standard Electronic Orientation quadrupole field applied
 Nucleus-field energy     =     0.0000000047 hartrees
 Guess from superposition of atomic densities
 Warning:  Energy on first SCF cycle will be non-variational
 SAD guess density has 59.968191 electrons

 -----------------------------------------------------------------------
  General SCF calculation program by
  Eric Jon Sundstrom, Paul Horn, Yuezhi Mao, Dmitri Zuev, Alec White,
  David Stuck, Shaama M.S., Shane Yost, Joonho Lee, David Small,
  Daniel Levine, Susi Lehtola, Hugh Burton, Evgeny Epifanovsky
 -----------------------------------------------------------------------
 Exchange:     0.2000 Hartree-Fock + 0.0800 Slater + 0.7200 B88
 Correlation:  0.1900 VWN1RPA + 0.8100 LYP
 Using SG-1 standard quadrature grid
 using 12 threads for integral computing
 -------------------------------------------------------
 OpenMP Integral computing Module                
 Release: version 1.0, May 2013, Q-Chem Inc. Pittsburgh 
 -------------------------------------------------------
 -------------------------------------------------------
 OpenMP BLAS3 based DFT computing Module                
 Release: version 1.0, May 2013, Q-Chem Inc. Pittsburgh 
 -------------------------------------------------------
 A unrestricted SCF calculation will be
 performed using DIIS
 SCF converges when DIIS error is below 1.0e-06
 Alpha HF Exchange    Energy = -10.36874540746125
 Beta HF Exchange     Energy = -10.36874540746125
 DFT Correlation      Energy =  -3.09228192288524
 DFT Exchange         Energy = -82.03653711550898
 One-Electron (alpha) Energy = -2009.55236640785802
 One-Electron (beta)  Energy = -2009.55236640785802
 Total Coulomb        Energy = 1339.16670206529125
 ---------------------------------------
  Cycle       Energy         DIIS error
 ---------------------------------------
    1   -2523.4136116233      1.39e-01  
 Alpha HF Exchange    Energy = -10.42400060729062
 Beta HF Exchange     Energy = -10.42400060729062
 DFT Correlation      Energy =  -3.13484673835002
 DFT Exchange         Energy = -82.94792493966042
 One-Electron (alpha) Energy = -2016.85158295230781
 One-Electron (beta)  Energy = -2016.85158295230735
 Total Coulomb        Energy = 1357.93243274700376
    2   -2520.3107770698      8.94e-03  
 Alpha HF Exchange    Energy = -10.32263851748536
 Beta HF Exchange     Energy = -10.32263851748537
 DFT Correlation      Energy =  -3.09641071369595
 DFT Exchange         Energy = -82.12235611459005
 One-Electron (alpha) Energy = -2006.72609743933708
 One-Electron (beta)  Energy = -2006.72609743933731
 Total Coulomb        Energy = 1336.63308268278979
    3   -2520.2924270787      4.66e-03  
 Alpha HF Exchange    Energy = -10.40252805813648
 Beta HF Exchange     Energy = -10.40252805813647
 DFT Correlation      Energy =  -3.12718366955654
 DFT Exchange         Energy = -82.76945322803097
 One-Electron (alpha) Energy = -2014.65685855634433
 One-Electron (beta)  Energy = -2014.65685855634365
 Total Coulomb        Energy = 1353.23722484059249
    4   -2520.3874563056      2.73e-03  
 Alpha HF Exchange    Energy = -10.37625005826881
 Beta HF Exchange     Energy = -10.37625005826881
 DFT Correlation      Energy =  -3.11657288640096
 DFT Exchange         Energy = -82.55467574084257
 One-Electron (alpha) Energy = -2012.31678513839324
 One-Electron (beta)  Energy = -2012.31678513839279
 Total Coulomb        Energy = 1348.23168865229877
    5   -2520.4349013879      5.97e-04  
 Alpha HF Exchange    Energy = -10.37477428272579
 Beta HF Exchange     Energy = -10.37477428272580
 DFT Correlation      Energy =  -3.11666366167576
 DFT Exchange         Energy = -82.54457592049701
 One-Electron (alpha) Energy = -2012.07953988894860
 One-Electron (beta)  Energy = -2012.07953988894906
 Total Coulomb        Energy = 1347.74162241860245
    6   -2520.4375165265      7.75e-05  
 Alpha HF Exchange    Energy = -10.37443569580120
 Beta HF Exchange     Energy = -10.37443569580119
 DFT Correlation      Energy =  -3.11640954329291
 DFT Exchange         Energy = -82.54156455530473
 One-Electron (alpha) Energy = -2012.03383016436783
 One-Electron (beta)  Energy = -2012.03383016436646
 Total Coulomb        Energy = 1347.64622187470945
    7   -2520.4375549638      1.30e-05  
 Alpha HF Exchange    Energy = -10.37450078887113
 Beta HF Exchange     Energy = -10.37450078887115
 DFT Correlation      Energy =  -3.11643318782390
 DFT Exchange         Energy = -82.54207605974750
 One-Electron (alpha) Energy = -2012.04999730788836
 One-Electron (beta)  Energy = -2012.04999730788973
 Total Coulomb        Energy = 1347.67921984171744
    8   -2520.4375566190      5.21e-06  
 Alpha HF Exchange    Energy = -10.37448676446540
 Beta HF Exchange     Energy = -10.37448676446540
 DFT Correlation      Energy =  -3.11643414080605
 DFT Exchange         Energy = -82.54197682082913
 One-Electron (alpha) Energy = -2012.04594259482587
 One-Electron (beta)  Energy = -2012.04594259482610
 Total Coulomb        Energy = 1347.67098390690148
    9   -2520.4375567929      9.33e-07  Convergence criterion met
 ---------------------------------------
 SCF time:   CPU 34.09s  wall 5.00s 
<S^2> =         -0.000000000
 Alpha HF Exchange    Energy = -10.37448676446540
 Beta HF Exchange     Energy = -10.37448676446540
 DFT Correlation      Energy =  -3.11643414080605
 DFT Exchange         Energy = -82.54197682082913
 One-Electron (alpha) Energy = -2012.04594259482587
 One-Electron (beta)  Energy = -2012.04594259482610
 Total Coulomb        Energy = 1347.67098390690148
 Nuclear repulsion Energy = 262.39072898040314
 SCF   energy in the final basis set =    -2520.4375567929
 Total energy in the final basis set =    -2520.4375567929
 
 --------------------------------------------------------------
 
                    Orbital Energies (a.u.)
 --------------------------------------------------------------
 
 Alpha MOs
 -- Occupied --
******* -58.085 -52.142 -52.141 -52.139 -10.225 -10.182 -10.182
 -7.818  -5.764  -5.759  -5.750  -2.097  -2.097  -2.089  -2.085
 -2.084  -0.811  -0.692  -0.681  -0.576  -0.464  -0.443  -0.415
 -0.395  -0.375  -0.353  -0.346  -0.296  -0.220
 -- Virtual --
  0.010   0.030   0.092   0.130   0.151   0.153   0.168   0.184
  0.192   0.205   0.224   0.237   0.286   0.328   0.334   0.465
  0.465   0.494   0.512   0.570   0.580   0.656   0.679   0.686
  0.711   0.744   0.773   0.796   0.841   0.868   0.869   0.894
  0.906   0.931   0.952   0.963   1.004   1.104   1.327   1.354
  1.404   1.505   1.557   1.643   1.785   1.802   1.831   1.884
  1.903   2.031   2.036   2.047   2.067   2.074   2.091   2.092
  2.104   2.118   2.271   2.329   2.360   2.395   2.522   2.553
  2.565   2.635   2.676   2.682   2.708   2.871   2.884   2.896
  2.910   3.191   3.245   3.316   3.417   3.451   3.465   3.512
  4.251   4.284   4.343   4.373   4.407   4.492   4.527   4.642
  5.477  89.785
 
 Beta MOs
 -- Occupied --
******* -58.085 -52.142 -52.141 -52.139 -10.225 -10.182 -10.182
 -7.818  -5.764  -5.759  -5.750  -2.097  -2.097  -2.089  -2.085
 -2.084  -0.811  -0.692  -0.681  -0.576  -0.464  -0.443  -0.415
 -0.395  -0.375  -0.353  -0.346  -0.296  -0.220
 -- Virtual --
  0.010   0.030   0.092   0.130   0.151   0.153   0.168   0.184
  0.192   0.205   0.224   0.237   0.286   0.328   0.334   0.465
  0.465   0.494   0.512   0.570   0.580   0.656   0.679   0.686
  0.711   0.744   0.773   0.796   0.841   0.868   0.869   0.894
  0.906   0.931   0.952   0.963   1.004   1.104   1.327   1.354
  1.404   1.505   1.557   1.643   1.785   1.802   1.831   1.884
  1.903   2.031   2.036   2.047   2.067   2.074   2.091   2.092
  2.104   2.118   2.271   2.329   2.360   2.395   2.522   2.553
  2.565   2.635   2.676   2.682   2.708   2.871   2.884   2.896
  2.910   3.191   3.245   3.316   3.417   3.451   3.465   3.512
  4.251   4.284   4.343   4.373   4.407   4.492   4.527   4.642
  5.477  89.785
 --------------------------------------------------------------
 
          Ground-State Mulliken Net Atomic Charges

     Atom                 Charge (a.u.)    Spin (a.u.)
  --------------------------------------------------------
      1 C                    -0.295010      -0.000000
      2 C                    -0.152384       0.000000
      3 Se                   -0.094480       0.000000
      4 H                     0.042859      -0.000000
      5 C                    -0.295010       0.000000
      6 H                     0.122135       0.000000
      7 H                     0.101155      -0.000000
      8 H                     0.108279       0.000000
      9 H                     0.130887       0.000000
     10 H                     0.101155       0.000000
     11 H                     0.122135       0.000000
     12 H                     0.108279      -0.000000
  --------------------------------------------------------
  Sum of atomic charges =    -0.000000
  Sum of spin   charges =    -0.000000

 -----------------------------------------------------------------
                    Cartesian Multipole Moments
 -----------------------------------------------------------------
    Charge (ESU x 10^10)
                -0.0000
    Dipole Moment (Debye)
         X      -1.7510      Y      -0.0000      Z       0.2382
       Tot       1.7671
    Quadrupole Moments (Debye-Ang)
        XX     -39.1891     XY       0.0000     YY     -41.4774
        XZ       1.5625     YZ       0.0000     ZZ     -36.7141
    Octopole Moments (Debye-Ang^2)
       XXX      47.0455    XXY      -0.0000    XYY      14.4440
       YYY      -0.0000    XXZ      -0.8815    XYZ       0.0000
       YYZ      -1.7755    XZZ      16.8874    YZZ      -0.0000
       ZZZ      -1.5700
    Hexadecapole Moments (Debye-Ang^3)
      XXXX    -449.5869   XXXY       0.0000   XXYY    -118.5745
      XYYY       0.0000   YYYY    -216.3825   XXXZ       6.8193
      XXYZ       0.0000   XYYZ       1.0249   YYYZ      -0.0000
      XXZZ     -89.6006   XYZZ       0.0000   YYZZ     -51.1667
      XZZZ       1.9562   YZZZ      -0.0000   ZZZZ     -79.2130
 -----------------------------------------------------------------
 Calculating analytic gradient of the SCF energy
 Gradient of SCF Energy
            1           2           3           4           5           6
    1  -0.0054318   0.0190443  -0.0221925   0.0070985  -0.0054318   0.0019263
    2   0.0005657   0.0000000   0.0000000   0.0000000  -0.0005657  -0.0043213
    3   0.0089295  -0.0250746  -0.0129772   0.0271283   0.0089295  -0.0022869
            7           8           9          10          11          12
    1   0.0047275   0.0018519  -0.0100982   0.0047275   0.0019263   0.0018519
    2  -0.0022684  -0.0028548   0.0000000   0.0022684   0.0043213   0.0028548
    3  -0.0007447  -0.0024153   0.0039583  -0.0007447  -0.0022869  -0.0024153
 Max gradient component =       2.713E-02
 RMS gradient           =       9.009E-03
 Gradient time:  CPU 12.29 s  wall 1.06 s
 Geometry Optimization Parameters
   NAtoms,    NIC,     NZ,  NCons,   NDum,   NFix, NCnnct, MaxDiis
       12      75       0       1       0       0       0       0


** CONSTRAINED OPTIMIZATION IN DELOCALIZED INTERNAL COORDINATES **
   Searching for a Minimum

   Optimization Cycle:   1

                       Coordinates (Angstroms)
     ATOM                X               Y               Z
      1  C        -1.7302000000    1.2492000000    0.1457000000
      2  C        -1.0705000000    0.0000000000   -0.4418000000
      3  Se        0.8389000000    0.0000000000    0.0006000000
      4  H         0.7833000000    0.0000000000    1.5596000000
      5  C        -1.7302000000   -1.2492000000    0.1457000000
      6  H        -1.2602000000    2.1392000000   -0.2728000000
      7  H        -2.7920000000    1.2492000000   -0.1003000000
      8  H        -1.6081000000    1.2492000000    1.2289000000
      9  H        -1.1925000000    0.0000000000   -1.5249000000
     10  H        -2.7920000000   -1.2492000000   -0.1003000000
     11  H        -1.2602000000   -2.1392000000   -0.2728000000
     12  H        -1.6081000000   -1.2492000000    1.2289000000
   Point Group: c1    Number of degrees of freedom:    30


   Energy is  -2520.437556793

              Constraints and their Current Values
                                        Value     Constraint
   Distance(Angs):        2   3             1.959981     2.900000

 Attempting to Generate Delocalized Internal Coordinates
**WARNING** Constraint Gradient Reduced for constraint   1

   Using Lagrange Multiplier Algorithm


 26 Hessian modes will be used to form the next step
  Hessian Eigenvalues:
    -0.920003    0.045000    0.077216    0.080533    0.084997    0.084997
     0.085005    0.085005    0.144779    0.160000    0.160000    0.160000
     0.160000    0.160000    0.160000    0.160000    0.202570    0.294246
     0.348057    0.348057    0.348104    0.348104    0.348185    0.348214
     0.348214    1.086953

 Minimum Search - Taking P-RFO Step
 Searching for Lamda that Maximizes Along the Constraint modes Only
 Value Taken    Lamda =   0.04691611


 ********************************************
 ** ERROR IN DETERMINING Lamda IN CONFormD **
 ********************************************


 ** Scaling Hessian by  2.085161 **


 26 Hessian modes will be used to form the next step
  Hessian Eigenvalues:
    -0.840976    0.093832    0.161008    0.167925    0.177232    0.177232
     0.177249    0.177249    0.301888    0.333626    0.333626    0.333626
     0.333626    0.333626    0.333626    0.333626    0.422390    0.613550
     0.725755    0.725755    0.725853    0.725853    0.726021    0.726082
     0.726082    1.189095

 Minimum Search - Taking P-RFO Step
 Searching for Lamda that Maximizes Along the Constraint modes Only
 Value Taken    Lamda =   0.05509673
 Searching for Lamda that Minimizes Along All other modes
 Value Taken    Lamda =  -0.03911137
 Calculated Step too Large.  Step scaled by  0.944663
 Step Taken.  Stepsize is  0.300000

                             Maximum     Tolerance    Cnvgd?
         Gradient            0.300000       0.000300      NO
         Displacement        0.269612       0.001200      NO
         Energy change     *********       0.000001      NO


 New Cartesian Coordinates Obtained by Inverse Iteration

 Displacement from previous Coordinates is:  0.334283
 ----------------------------------------------------------------
             Standard Nuclear Orientation (Angstroms)
    I     Atom           X                Y                Z
 ----------------------------------------------------------------
    1      C      -1.7488571303     1.2593145028     0.1436478671
    2      C      -1.0823820104     0.0000000000    -0.4288673566
    3      Se      0.9724103251     0.0000000000     0.0172062671
    4      H       0.8477206775     0.0000000000     1.5327409329
    5      C      -1.7488571303    -1.2593145028     0.1436478671
    6      H      -1.2830277443     2.1561486347    -0.2679714951
    7      H      -2.8118303609     1.2631040612    -0.1100022189
    8      H      -1.6443591807     1.2745229525     1.2300171756
    9      H      -1.1834001598     0.0000000000    -1.5159625007
   10      H      -2.8118303609    -1.2631040612    -0.1100022189
   11      H      -1.2830277443    -2.1561486347    -0.2679714951
   12      H      -1.6443591807    -1.2745229525     1.2300171756
 ----------------------------------------------------------------
 Nuclear Repulsion Energy =   253.3641694782 hartrees
 There are       30 alpha and       30 beta electrons

                       Distance Matrix (Angstroms)
             C (  1)   C (  2)   Se(  3)   H (  4)   C (  5)   H (  6)
   C (  2)  1.535525
   Se(  3)  3.001193  2.102654
   H (  4)  3.202760  2.751945  1.520655
   C (  5)  2.518629  1.535525  3.001193  3.202760
   H (  6)  1.091210  2.171433  3.133258  3.525852  3.471573
   H (  7)  1.092824  2.165202  3.991502  4.205514  2.748972  1.777560
   H (  8)  1.091490  2.166131  3.153221  2.815406  2.758886  1.775329
   H (  9)  2.158685  1.091779  2.645397  3.663338  2.158685  2.493268
   H ( 10)  2.748972  2.165202  3.991502  4.205514  1.092824  3.748797
   H ( 11)  3.471573  2.171433  3.133258  3.525852  1.091210  4.312297
   H ( 12)  2.758886  2.166131  3.153221  2.815406  1.091490  3.760856
             H (  7)   H (  8)   H (  9)   H ( 10)   H ( 11)
   H (  8)  1.777293
   H (  9)  2.494783  3.062237
   H ( 10)  2.526208  3.098095  2.494783
   H ( 11)  3.748797  3.760856  2.493268  1.777560
   H ( 12)  3.098095  2.549046  3.062237  1.777293  1.775329
 
 Applying Cartesian multipole field
    Component          Value
    ---------          -----
     (2,0,0)        1.00000E-11
     (0,2,0)        2.00000E-11
     (0,0,2)       -3.00000E-11
 Nucleus-field energy     =     0.0000000052 hartrees
 Requested basis set is 6-31G(d,p)
 There are 44 shells and 120 basis functions
 A cutoff of  1.0D-14 yielded    952 shell pairs
 There are      7165 function pairs
 Smallest overlap matrix eigenvalue = 6.75E-04
 Guess from superposition of atomic densities
 Warning:  Energy on first SCF cycle will be non-variational
 SAD guess density has 59.968191 electrons

 -----------------------------------------------------------------------
  General SCF calculation program by
  Eric Jon Sundstrom, Paul Horn, Yuezhi Mao, Dmitri Zuev, Alec White,
  David Stuck, Shaama M.S., Shane Yost, Joonho Lee, David Small,
  Daniel Levine, Susi Lehtola, Hugh Burton, Evgeny Epifanovsky
 -----------------------------------------------------------------------
 Exchange:     0.2000 Hartree-Fock + 0.0800 Slater + 0.7200 B88
 Correlation:  0.1900 VWN1RPA + 0.8100 LYP
 Using SG-1 standard quadrature grid
 using 12 threads for integral computing
 -------------------------------------------------------
 OpenMP Integral computing Module                
 Release: version 1.0, May 2013, Q-Chem Inc. Pittsburgh 
 -------------------------------------------------------
 -------------------------------------------------------
 OpenMP BLAS3 based DFT computing Module                
 Release: version 1.0, May 2013, Q-Chem Inc. Pittsburgh 
 -------------------------------------------------------
 A unrestricted SCF calculation will be
 performed using DIIS
 SCF converges when DIIS error is below 1.0e-06
 Alpha HF Exchange    Energy = -10.35641607406202
 Beta HF Exchange     Energy = -10.35641607406202
 DFT Correlation      Energy =  -3.08833699207302
 DFT Exchange         Energy = -82.01311259535757
 One-Electron (alpha) Energy = -2000.56115566650533
 One-Electron (beta)  Energy = -2000.56115566650533
 Total Coulomb        Energy = 1330.28695153903118
 ---------------------------------------
  Cycle       Energy         DIIS error
 ---------------------------------------
    1   -2523.2854720462      1.38e-01  
 Alpha HF Exchange    Energy = -10.41871596715574
 Beta HF Exchange     Energy = -10.41871596715571
 DFT Correlation      Energy =  -3.13050996840588
 DFT Exchange         Energy = -82.91146490495603
 One-Electron (alpha) Energy = -2007.76123043179246
 One-Electron (beta)  Energy = -2007.76123043178995
 Total Coulomb        Energy = 1348.71853956241125
    2   -2520.3191586255      8.90e-03  
 Alpha HF Exchange    Energy = -10.32014862632561
 Beta HF Exchange     Energy = -10.32014862632560
 DFT Correlation      Energy =  -3.09380216595481
 DFT Exchange         Energy = -82.10868747960025
 One-Electron (alpha) Energy = -1998.01312480116417
 One-Electron (beta)  Energy = -1998.01312480116417
 Total Coulomb        Energy = 1328.19182013879254
    3   -2520.3130468784      4.44e-03  
 Alpha HF Exchange    Energy = -10.39730180536265
 Beta HF Exchange     Energy = -10.39730180536264
 DFT Correlation      Energy =  -3.12262242915108
 DFT Exchange         Energy = -82.73280640022219
 One-Electron (alpha) Energy = -2005.50932706282583
 One-Electron (beta)  Energy = -2005.50932706282538
 Total Coulomb        Energy = 1343.90565702650520
    4   -2520.3988600559      2.56e-03  
 Alpha HF Exchange    Energy = -10.37150214733889
 Beta HF Exchange     Energy = -10.37150214733889
 DFT Correlation      Energy =  -3.11269634246678
 DFT Exchange         Energy = -82.52234596640436
 One-Electron (alpha) Energy = -2003.34692662871430
 One-Electron (beta)  Energy = -2003.34692662871407
 Total Coulomb        Energy = 1339.26996067061555
    5   -2520.4377697070      5.16e-04  
 Alpha HF Exchange    Energy = -10.37043432239493
 Beta HF Exchange     Energy = -10.37043432239492
 DFT Correlation      Energy =  -3.11288080747418
 DFT Exchange         Energy = -82.51565259635291
 One-Electron (alpha) Energy = -2003.09659889870318
 One-Electron (beta)  Energy = -2003.09659889870227
 Total Coulomb        Energy = 1338.75852841602705
    6   -2520.4399019467      8.27e-05  
 Alpha HF Exchange    Energy = -10.37001880845017
 Beta HF Exchange     Energy = -10.37001880845015
 DFT Correlation      Energy =  -3.11259290979490
 DFT Exchange         Energy = -82.51197340107234
 One-Electron (alpha) Energy = -2003.04498911701967
 One-Electron (beta)  Energy = -2003.04498911701876
 Total Coulomb        Energy = 1338.65046445882945
    7   -2520.4399482196      1.34e-05  
 Alpha HF Exchange    Energy = -10.37008710613848
 Beta HF Exchange     Energy = -10.37008710613848
 DFT Correlation      Energy =  -3.11261139482603
 DFT Exchange         Energy = -82.51250580501227
 One-Electron (alpha) Energy = -2003.06311345649647
 One-Electron (beta)  Energy = -2003.06311345649624
 Total Coulomb        Energy = 1338.68739900406808
    8   -2520.4399498377      6.78e-06  
 Alpha HF Exchange    Energy = -10.37006937913709
 Beta HF Exchange     Energy = -10.37006937913709
 DFT Correlation      Energy =  -3.11261235150810
 DFT Exchange         Energy = -82.51237610992936
 One-Electron (alpha) Energy = -2003.05890862379101
 One-Electron (beta)  Energy = -2003.05890862379192
 Total Coulomb        Energy = 1338.67882487391762
    9   -2520.4399501100      7.59e-07  Convergence criterion met
 ---------------------------------------
 SCF time:   CPU 28.79s  wall 2.00s 
<S^2> =          0.000000000
 Alpha HF Exchange    Energy = -10.37006937913709
 Beta HF Exchange     Energy = -10.37006937913709
 DFT Correlation      Energy =  -3.11261235150810
 DFT Exchange         Energy = -82.51237610992936
 One-Electron (alpha) Energy = -2003.05890862379101
 One-Electron (beta)  Energy = -2003.05890862379192
 Total Coulomb        Energy = 1338.67882487391762
 Nuclear repulsion Energy = 253.36416948333098
 SCF   energy in the final basis set =    -2520.4399501100
 Total energy in the final basis set =    -2520.4399501100
 
 --------------------------------------------------------------
 
                    Orbital Energies (a.u.)
 --------------------------------------------------------------
 
 Alpha MOs
 -- Occupied --
******* -58.084 -52.142 -52.141 -52.138 -10.233 -10.185 -10.185
 -7.817  -5.762  -5.759  -5.749  -2.096  -2.095  -2.087  -2.084
 -2.083  -0.800  -0.692  -0.677  -0.577  -0.461  -0.440  -0.412
 -0.394  -0.372  -0.350  -0.347  -0.294  -0.222
 -- Virtual --
 -0.005   0.030   0.090   0.131   0.148   0.152   0.169   0.184
  0.189   0.201   0.230   0.231   0.282   0.318   0.325   0.460
  0.460   0.505   0.509   0.570   0.572   0.658   0.675   0.678
  0.697   0.749   0.757   0.775   0.817   0.867   0.870   0.897
  0.904   0.923   0.946   0.959   1.005   1.091   1.315   1.345
  1.391   1.470   1.549   1.641   1.769   1.769   1.826   1.873
  1.883   2.032   2.037   2.040   2.071   2.074   2.086   2.092
  2.104   2.120   2.260   2.324   2.347   2.381   2.519   2.562
  2.580   2.624   2.667   2.688   2.713   2.867   2.876   2.893
  2.897   3.179   3.233   3.314   3.415   3.444   3.459   3.506
  4.241   4.282   4.325   4.361   4.389   4.487   4.507   4.619
  5.477  89.776
 
 Beta MOs
 -- Occupied --
******* -58.084 -52.142 -52.141 -52.138 -10.233 -10.185 -10.185
 -7.817  -5.762  -5.759  -5.749  -2.096  -2.095  -2.087  -2.084
 -2.083  -0.800  -0.692  -0.677  -0.577  -0.461  -0.440  -0.412
 -0.394  -0.372  -0.350  -0.347  -0.294  -0.222
 -- Virtual --
 -0.005   0.030   0.090   0.131   0.148   0.152   0.169   0.184
  0.189   0.201   0.230   0.231   0.282   0.318   0.325   0.460
  0.460   0.505   0.509   0.570   0.572   0.658   0.675   0.678
  0.697   0.749   0.757   0.775   0.817   0.867   0.870   0.897
  0.904   0.923   0.946   0.959   1.005   1.091   1.315   1.345
  1.391   1.470   1.549   1.641   1.769   1.769   1.826   1.873
  1.883   2.032   2.037   2.040   2.071   2.074   2.086   2.092
  2.104   2.120   2.260   2.324   2.347   2.381   2.519   2.562
  2.580   2.624   2.667   2.688   2.713   2.867   2.876   2.893
  2.897   3.179   3.233   3.314   3.415   3.444   3.459   3.506
  4.241   4.282   4.325   4.361   4.389   4.487   4.507   4.619
  5.477  89.776
 --------------------------------------------------------------
 
          Ground-State Mulliken Net Atomic Charges

     Atom                 Charge (a.u.)    Spin (a.u.)
  --------------------------------------------------------
      1 C                    -0.300087      -0.000000
      2 C                    -0.145859       0.000000
      3 Se                   -0.109248       0.000000
      4 H                     0.047252      -0.000000
      5 C                    -0.300087       0.000000
      6 H                     0.123708       0.000000
      7 H                     0.105230      -0.000000
      8 H                     0.110834       0.000000
      9 H                     0.128485      -0.000000
     10 H                     0.105230       0.000000
     11 H                     0.123708       0.000000
     12 H                     0.110834      -0.000000
  --------------------------------------------------------
  Sum of atomic charges =     0.000000
  Sum of spin   charges =     0.000000

 -----------------------------------------------------------------
                    Cartesian Multipole Moments
 -----------------------------------------------------------------
    Charge (ESU x 10^10)
                 0.0000
    Dipole Moment (Debye)
         X      -1.8970      Y       0.0000      Z       0.2618
       Tot       1.9150
    Quadrupole Moments (Debye-Ang)
        XX     -38.9077     XY      -0.0000     YY     -41.3497
        XZ       1.4534     YZ      -0.0000     ZZ     -36.8172
    Octopole Moments (Debye-Ang^2)
       XXX      39.5989    XXY       0.0000    XYY      11.5400
       YYY       0.0000    XXZ      -1.0748    XYZ       0.0000
       YYZ      -1.9740    XZZ      15.0664    YZZ       0.0000
       ZZZ      -2.1916
    Hexadecapole Moments (Debye-Ang^3)
      XXXX    -480.6329   XXXY      -0.0000   XXYY    -124.1404
      XYYY      -0.0000   YYYY    -218.3029   XXXZ       5.9424
      XXYZ      -0.0000   XYYZ       0.5821   YYYZ      -0.0000
      XXZZ     -94.8228   XYZZ      -0.0000   YYZZ     -51.4466
      XZZZ       0.7182   YZZZ      -0.0000   ZZZZ     -78.2888
 -----------------------------------------------------------------
 Calculating analytic gradient of the SCF energy
 Gradient of SCF Energy
            1           2           3           4           5           6
    1  -0.0108243   0.0013702   0.0161187   0.0037659  -0.0108243   0.0012907
    2   0.0025464  -0.0000000   0.0000000   0.0000000  -0.0025464  -0.0025089
    3   0.0055543  -0.0213273  -0.0009978   0.0150439   0.0055543  -0.0013190
            7           8           9          10          11          12
    1   0.0026206   0.0016221  -0.0106732   0.0026206   0.0012907   0.0016221
    2  -0.0002725  -0.0019338   0.0000000   0.0002725   0.0025089   0.0019338
    3   0.0000443  -0.0017098   0.0021415   0.0000443  -0.0013190  -0.0017098
 Max gradient component =       2.133E-02
 RMS gradient           =       6.319E-03
 Gradient time:  CPU 14.08 s  wall 6.01 s
 Geometry Optimization Parameters
   NAtoms,    NIC,     NZ,  NCons,   NDum,   NFix, NCnnct, MaxDiis
       12      75       0       1       0       0       0       0

 Cartesian Hessian Update
 Hessian Updated using BFGS Update


** CONSTRAINED OPTIMIZATION IN DELOCALIZED INTERNAL COORDINATES **
   Searching for a Minimum

   Optimization Cycle:   2

                       Coordinates (Angstroms)
     ATOM                X               Y               Z
      1  C        -1.7488571303    1.2593145028    0.1436478671
      2  C        -1.0823820104    0.0000000000   -0.4288673566
      3  Se        0.9724103251    0.0000000000    0.0172062671
      4  H         0.8477206775    0.0000000000    1.5327409329
      5  C        -1.7488571303   -1.2593145028    0.1436478671
      6  H        -1.2830277443    2.1561486347   -0.2679714951
      7  H        -2.8118303609    1.2631040612   -0.1100022189
      8  H        -1.6443591807    1.2745229525    1.2300171756
      9  H        -1.1834001598    0.0000000000   -1.5159625007
     10  H        -2.8118303609   -1.2631040612   -0.1100022189
     11  H        -1.2830277443   -2.1561486347   -0.2679714951
     12  H        -1.6443591807   -1.2745229525    1.2300171756
   Point Group: c1    Number of degrees of freedom:    30


   Energy is  -2520.439950110

              Constraints and their Current Values
                                        Value     Constraint
   Distance(Angs):        2   3             2.102654     2.900000
 Hessian Updated using BFGS Update
**WARNING** Constraint Gradient Reduced for constraint   1

   Using Lagrange Multiplier Algorithm


 21 Hessian modes will be used to form the next step
  Hessian Eigenvalues:
    -0.927918    0.093829    0.093832    0.158924    0.168673    0.177186
     0.177402    0.193273    0.295954    0.326354    0.335579    0.363066
     0.425343    0.613550    0.624390    0.725060    0.725841    0.725939
     0.726082    0.726083    1.082499

 Minimum Search - Taking P-RFO Step
 Searching for Lamda that Maximizes Along the Constraint modes Only
 Value Taken    Lamda =   0.03259831
 Searching for Lamda that Minimizes Along All other modes
 Value Taken    Lamda =  -0.06048792
 Calculated Step too Large.  Step scaled by  0.927728
 Step Taken.  Stepsize is  0.300000

                             Maximum     Tolerance    Cnvgd?
         Gradient            0.300000       0.000300      NO
         Displacement        0.265465       0.001200      NO
         Energy change     -0.002393       0.000001      NO


 New Cartesian Coordinates Obtained by Inverse Iteration

 Displacement from previous Coordinates is:  0.286502
 ----------------------------------------------------------------
             Standard Nuclear Orientation (Angstroms)
    I     Atom           X                Y                Z
 ----------------------------------------------------------------
    1      C      -1.7619513237     1.2689742463     0.1425823436
    2      C      -1.1084069466     0.0000000000    -0.4166452378
    3      Se      1.0891093981     0.0000000000     0.0334255208
    4      H       0.8924468533     0.0000000000     1.5051222063
    5      C      -1.7619513237    -1.2689742463     0.1425823437
    6      H      -1.2958046937     2.1691818062    -0.2645259472
    7      H      -2.8261415367     1.2784143364    -0.1189834019
    8      H      -1.6741054485     1.3008247289     1.2319707409
    9      H      -1.1789432996     0.0000000000    -1.5074899602
   10      H      -2.8261415367    -1.2784143364    -0.1189834018
   11      H      -1.2958046937    -2.1691818062    -0.2645259472
   12      H      -1.6741054485    -1.3008247289     1.2319707409
 ----------------------------------------------------------------
 Nuclear Repulsion Energy =   246.0941369611 hartrees
 There are       30 alpha and       30 beta electrons

                       Distance Matrix (Angstroms)
             C (  1)   C (  2)   Se(  3)   H (  4)   C (  5)   H (  6)
   C (  2)  1.533020
   Se(  3)  3.122620  2.243132
   H (  4)  3.242320  2.774276  1.484779
   C (  5)  2.537948  1.533020  3.122620  3.242320
   H (  6)  1.092430  2.182569  3.237582  3.553231  3.493415
   H (  7)  1.095904  2.161841  4.121500  4.254405  2.773104  1.776677
   H (  8)  1.093389  2.174878  3.280855  2.890320  2.792553  1.771061
   H (  9)  2.161697  1.093123  2.741985  3.656021  2.161697  2.502792
   H ( 10)  2.773104  2.161841  4.121500  4.254405  1.095904  3.774789
   H ( 11)  3.493415  2.182569  3.237582  3.553231  1.092430  4.338364
   H ( 12)  2.792553  2.174878  3.280855  2.890320  1.093389  3.797836
             H (  7)   H (  8)   H (  9)   H ( 10)   H ( 11)
   H (  8)  1.775603
   H (  9)  2.505106  3.072780
   H ( 10)  2.556829  3.131252  2.505106
   H ( 11)  3.774789  3.797836  2.502792  1.776677
   H ( 12)  3.131252  2.601649  3.072780  1.775603  1.771061
 
 Applying Cartesian multipole field
    Component          Value
    ---------          -----
     (2,0,0)        1.00000E-11
     (0,2,0)        2.00000E-11
     (0,0,2)       -3.00000E-11
 Nucleus-field energy     =     0.0000000056 hartrees
 Requested basis set is 6-31G(d,p)
 There are 44 shells and 120 basis functions
 A cutoff of  1.0D-14 yielded    947 shell pairs
 There are      7139 function pairs
 Smallest overlap matrix eigenvalue = 6.76E-04
 Guess from superposition of atomic densities
 Warning:  Energy on first SCF cycle will be non-variational
 SAD guess density has 59.968191 electrons

 -----------------------------------------------------------------------
  General SCF calculation program by
  Eric Jon Sundstrom, Paul Horn, Yuezhi Mao, Dmitri Zuev, Alec White,
  David Stuck, Shaama M.S., Shane Yost, Joonho Lee, David Small,
  Daniel Levine, Susi Lehtola, Hugh Burton, Evgeny Epifanovsky
 -----------------------------------------------------------------------
 Exchange:     0.2000 Hartree-Fock + 0.0800 Slater + 0.7200 B88
 Correlation:  0.1900 VWN1RPA + 0.8100 LYP
 Using SG-1 standard quadrature grid
 using 12 threads for integral computing
 -------------------------------------------------------
 OpenMP Integral computing Module                
 Release: version 1.0, May 2013, Q-Chem Inc. Pittsburgh 
 -------------------------------------------------------
 -------------------------------------------------------
 OpenMP BLAS3 based DFT computing Module                
 Release: version 1.0, May 2013, Q-Chem Inc. Pittsburgh 
 -------------------------------------------------------
 A unrestricted SCF calculation will be
 performed using DIIS
 SCF converges when DIIS error is below 1.0e-06
 Alpha HF Exchange    Energy = -10.34900875371225
 Beta HF Exchange     Energy = -10.34900875371225
 DFT Correlation      Energy =  -3.08546536292408
 DFT Exchange         Energy = -81.99945926623886
 One-Electron (alpha) Energy = -1993.30305886102201
 One-Electron (beta)  Energy = -1993.30305886102201
 Total Coulomb        Energy = 1323.08483731328624
 ---------------------------------------
  Cycle       Energy         DIIS error
 ---------------------------------------
    1   -2523.2100855787      1.38e-01  
 Alpha HF Exchange    Energy = -10.41534738958848
 Beta HF Exchange     Energy = -10.41534738958848
 DFT Correlation      Energy =  -3.12742841067362
 DFT Exchange         Energy = -82.88966612668574
 One-Electron (alpha) Energy = -2000.55938204451422
 One-Electron (beta)  Energy = -2000.55938204451422
 Total Coulomb        Energy = 1341.55659887912748
    2   -2520.3158175598      8.89e-03  
 Alpha HF Exchange    Energy = -10.31802707534402
 Beta HF Exchange     Energy = -10.31802707534401
 DFT Correlation      Energy =  -3.09198569777217
 DFT Exchange         Energy = -82.09882438552717
 One-Electron (alpha) Energy = -1990.76890922896678
 One-Electron (beta)  Energy = -1990.76890922896564
 Total Coulomb        Energy = 1320.95336051030108
    3   -2520.3171852150      4.35e-03  
 Alpha HF Exchange    Energy = -10.39376175858048
 Beta HF Exchange     Energy = -10.39376175858047
 DFT Correlation      Energy =  -3.11896501889538
 DFT Exchange         Energy = -82.70803627528383
 One-Electron (alpha) Energy = -1998.32168548800382
 One-Electron (beta)  Energy = -1998.32168548800314
 Total Coulomb        Energy = 1336.76268944702679
    4   -2520.4010693737      2.45e-03  
 Alpha HF Exchange    Energy = -10.36820833642134
 Beta HF Exchange     Energy = -10.36820833642133
 DFT Correlation      Energy =  -3.11023546917452
 DFT Exchange         Energy = -82.50276688694184
 One-Electron (alpha) Energy = -1996.04833126117273
 One-Electron (beta)  Energy = -1996.04833126117228
 Total Coulomb        Energy = 1331.91813110596058
    5   -2520.4338134787      2.03e-04  
 Alpha HF Exchange    Energy = -10.36720137310886
 Beta HF Exchange     Energy = -10.36720137310888
 DFT Correlation      Energy =  -3.11009477300919
 DFT Exchange         Energy = -82.49559941348471
 One-Electron (alpha) Energy = -1995.80077760712106
 One-Electron (beta)  Energy = -1995.80077760712334
 Total Coulomb        Energy = 1331.41337874724422
    6   -2520.4341364331      1.23e-04  
 Alpha HF Exchange    Energy = -10.36699914123945
 Beta HF Exchange     Energy = -10.36699914123944
 DFT Correlation      Energy =  -3.10984392797745
 DFT Exchange         Energy = -82.49341701244319
 One-Electron (alpha) Energy = -1995.81035800660948
 One-Electron (beta)  Energy = -1995.81035800660879
 Total Coulomb        Energy = 1331.42958750673165
    7   -2520.4342507628      1.44e-05  
 Alpha HF Exchange    Energy = -10.36706436592917
 Beta HF Exchange     Energy = -10.36706436592918
 DFT Correlation      Energy =  -3.10986700808102
 DFT Exchange         Energy = -82.49396078033629
 One-Electron (alpha) Energy = -1995.82543551311892
 One-Electron (beta)  Energy = -1995.82543551311960
 Total Coulomb        Energy = 1331.46043845673989
    8   -2520.4342521231      7.45e-06  
 Alpha HF Exchange    Energy = -10.36704699475420
 Beta HF Exchange     Energy = -10.36704699475419
 DFT Correlation      Energy =  -3.10986670594776
 DFT Exchange         Energy = -82.49382423614308
 One-Electron (alpha) Energy = -1995.82269834255544
 One-Electron (beta)  Energy = -1995.82269834255544
 Total Coulomb        Energy = 1331.45479218444234
    9   -2520.4342524656      7.20e-07  Convergence criterion met
 ---------------------------------------
 SCF time:   CPU 28.43s  wall 2.00s 
<S^2> =          0.000000000
 Alpha HF Exchange    Energy = -10.36704699475420
 Beta HF Exchange     Energy = -10.36704699475419
 DFT Correlation      Energy =  -3.10986670594776
 DFT Exchange         Energy = -82.49382423614308
 One-Electron (alpha) Energy = -1995.82269834255544
 One-Electron (beta)  Energy = -1995.82269834255544
 Total Coulomb        Energy = 1331.45479218444234
 Nuclear repulsion Energy = 246.09413696663523
 SCF   energy in the final basis set =    -2520.4342524656
 Total energy in the final basis set =    -2520.4342524656
 
 --------------------------------------------------------------
 
                    Orbital Energies (a.u.)
 --------------------------------------------------------------
 
 Alpha MOs
 -- Occupied --
******* -58.082 -52.139 -52.138 -52.135 -10.241 -10.189 -10.189
 -7.814  -5.759  -5.756  -5.746  -2.093  -2.092  -2.084  -2.082
 -2.080  -0.796  -0.694  -0.673  -0.579  -0.460  -0.440  -0.413
 -0.395  -0.369  -0.353  -0.350  -0.286  -0.221
 -- Virtual --
 -0.029   0.039   0.089   0.130   0.144   0.151   0.169   0.183
  0.185   0.199   0.228   0.237   0.281   0.313   0.323   0.458
  0.459   0.503   0.514   0.568   0.568   0.646   0.659   0.666
  0.706   0.745   0.751   0.760   0.796   0.863   0.868   0.897
  0.898   0.913   0.940   0.953   1.016   1.081   1.305   1.340
  1.380   1.431   1.540   1.641   1.742   1.759   1.831   1.857
  1.869   2.025   2.034   2.036   2.068   2.081   2.088   2.090
  2.105   2.123   2.250   2.311   2.337   2.374   2.515   2.563
  2.602   2.623   2.660   2.693   2.714   2.865   2.865   2.888
  2.890   3.167   3.220   3.313   3.411   3.439   3.454   3.498
  4.232   4.284   4.312   4.342   4.386   4.471   4.493   4.599
  5.478  89.758
 
 Beta MOs
 -- Occupied --
******* -58.082 -52.139 -52.138 -52.135 -10.241 -10.189 -10.189
 -7.814  -5.759  -5.756  -5.746  -2.093  -2.092  -2.084  -2.082
 -2.080  -0.796  -0.694  -0.673  -0.579  -0.460  -0.440  -0.413
 -0.395  -0.369  -0.353  -0.350  -0.286  -0.221
 -- Virtual --
 -0.029   0.039   0.089   0.130   0.144   0.151   0.169   0.183
  0.185   0.199   0.228   0.237   0.281   0.313   0.323   0.458
  0.459   0.503   0.514   0.568   0.568   0.646   0.659   0.666
  0.706   0.745   0.751   0.760   0.796   0.863   0.868   0.897
  0.898   0.913   0.940   0.953   1.016   1.081   1.305   1.340
  1.380   1.431   1.540   1.641   1.742   1.759   1.831   1.857
  1.869   2.025   2.034   2.036   2.068   2.081   2.088   2.090
  2.105   2.123   2.250   2.311   2.337   2.374   2.515   2.563
  2.602   2.623   2.660   2.693   2.714   2.865   2.865   2.888
  2.890   3.167   3.220   3.313   3.411   3.439   3.454   3.498
  4.232   4.284   4.312   4.342   4.386   4.471   4.493   4.599
  5.478  89.758
 --------------------------------------------------------------
 
          Ground-State Mulliken Net Atomic Charges

     Atom                 Charge (a.u.)    Spin (a.u.)
  --------------------------------------------------------
      1 C                    -0.305390       0.000000
      2 C                    -0.128949      -0.000000
      3 Se                   -0.139773      -0.000000
      4 H                     0.050824      -0.000000
      5 C                    -0.305390       0.000000
      6 H                     0.127249      -0.000000
      7 H                     0.108816      -0.000000
      8 H                     0.113991       0.000000
      9 H                     0.128566       0.000000
     10 H                     0.108816      -0.000000
     11 H                     0.127249      -0.000000
     12 H                     0.113991      -0.000000
  --------------------------------------------------------
  Sum of atomic charges =     0.000000
  Sum of spin   charges =    -0.000000

 -----------------------------------------------------------------
                    Cartesian Multipole Moments
 -----------------------------------------------------------------
    Charge (ESU x 10^10)
                -0.0000
    Dipole Moment (Debye)
         X      -2.1790      Y      -0.0000      Z       0.2612
       Tot       2.1946
    Quadrupole Moments (Debye-Ang)
        XX     -38.7022     XY      -0.0000     YY     -41.1258
        XZ       1.3361     YZ      -0.0000     ZZ     -36.8766
    Octopole Moments (Debye-Ang^2)
       XXX      32.7044    XXY      -0.0000    XYY       8.8024
       YYY      -0.0000    XXZ      -1.4034    XYZ       0.0000
       YYZ      -2.1688    XZZ      13.3201    YZZ      -0.0000
       ZZZ      -2.9564
    Hexadecapole Moments (Debye-Ang^3)
      XXXX    -511.7523   XXXY       0.0000   XXYY    -129.5672
      XYYY       0.0000   YYYY    -219.5173   XXXZ       4.7114
      XXYZ       0.0000   XYYZ       0.0066   YYYZ       0.0000
      XXZZ     -99.8133   XYZZ       0.0000   YYZZ     -51.6159
      XZZZ      -0.6976   YZZZ       0.0000   ZZZZ     -77.4208
 -----------------------------------------------------------------
 Calculating analytic gradient of the SCF energy
 Gradient of SCF Energy
            1           2           3           4           5           6
    1  -0.0113858  -0.0106942   0.0356161   0.0016822  -0.0113858   0.0007791
    2   0.0026044  -0.0000000  -0.0000000   0.0000000  -0.0026044  -0.0005815
    3   0.0019457  -0.0149422   0.0091261   0.0029491   0.0019457  -0.0002875
            7           8           9          10          11          12
    1   0.0010909   0.0013402  -0.0102530   0.0010909   0.0007791   0.0013402
    2   0.0005304  -0.0007541   0.0000000  -0.0005304   0.0005815   0.0007541
    3   0.0002387  -0.0006347   0.0003426   0.0002387  -0.0002875  -0.0006347
 Max gradient component =       3.562E-02
 RMS gradient           =       7.633E-03
 Gradient time:  CPU 11.68 s  wall 0.98 s
 Geometry Optimization Parameters
   NAtoms,    NIC,     NZ,  NCons,   NDum,   NFix, NCnnct, MaxDiis
       12      75       0       1       0       0       0       0

 Cartesian Hessian Update
 Hessian Updated using BFGS Update


** CONSTRAINED OPTIMIZATION IN DELOCALIZED INTERNAL COORDINATES **
   Searching for a Minimum

   Optimization Cycle:   3

                       Coordinates (Angstroms)
     ATOM                X               Y               Z
      1  C        -1.7619513237    1.2689742463    0.1425823436
      2  C        -1.1084069466    0.0000000000   -0.4166452378
      3  Se        1.0891093981    0.0000000000    0.0334255208
      4  H         0.8924468533    0.0000000000    1.5051222063
      5  C        -1.7619513237   -1.2689742463    0.1425823437
      6  H        -1.2958046937    2.1691818062   -0.2645259472
      7  H        -2.8261415367    1.2784143364   -0.1189834019
      8  H        -1.6741054485    1.3008247289    1.2319707409
      9  H        -1.1789432996    0.0000000000   -1.5074899602
     10  H        -2.8261415367   -1.2784143364   -0.1189834018
     11  H        -1.2958046937   -2.1691818062   -0.2645259472
     12  H        -1.6741054485   -1.3008247289    1.2319707409
   Point Group: c1    Number of degrees of freedom:    30


   Energy is  -2520.434252466

              Constraints and their Current Values
                                        Value     Constraint
   Distance(Angs):        2   3             2.243132     2.900000
 Hessian Updated using BFGS Update
**WARNING** Constraint Gradient Reduced for constraint   1

   Using Lagrange Multiplier Algorithm


 21 Hessian modes will be used to form the next step
  Hessian Eigenvalues:
    -0.952923    0.093829    0.093832    0.154985    0.171054    0.177151
     0.177489    0.193273    0.309876    0.325859    0.333686    0.338446
     0.363066    0.426096    0.630507    0.725154    0.725853    0.725861
     0.725924    0.726598    1.057589

 Minimum Search - Taking P-RFO Step
 Searching for Lamda that Maximizes Along the Constraint modes Only
 Value Taken    Lamda =   0.04024839
 Searching for Lamda that Minimizes Along All other modes
 Value Taken    Lamda =  -0.05037092
 Calculated Step too Large.  Step scaled by  0.931379
 Step Taken.  Stepsize is  0.300000

                             Maximum     Tolerance    Cnvgd?
         Gradient            0.300000       0.000300      NO
         Displacement        0.266953       0.001200      NO
         Energy change      0.005698       0.000001      NO


 New Cartesian Coordinates Obtained by Inverse Iteration

 Displacement from previous Coordinates is:  0.261770
 ----------------------------------------------------------------
             Standard Nuclear Orientation (Angstroms)
    I     Atom           X                Y                Z
 ----------------------------------------------------------------
    1      C      -1.7742412552     1.2757752471     0.1411423954
    2      C      -1.1461270178     0.0000000000    -0.4076051338
    3      Se      1.1942028874     0.0000000000     0.0486937945
    4      H       0.9426070954     0.0000000000     1.4927862877
    5      C      -1.7742412552    -1.2757752471     0.1411423954
    6      H      -1.3024176743     2.1741043903    -0.2651416872
    7      H      -2.8394960757     1.2935821382    -0.1270041619
    8      H      -1.6997459270     1.3218980009     1.2325056208
    9      H      -1.1806811006     0.0000000000    -1.5003792828
   10      H      -2.8394960757    -1.2935821382    -0.1270041618
   11      H      -1.3024176743    -2.1741043903    -0.2651416872
   12      H      -1.6997459270    -1.3218980009     1.2325056208
 ----------------------------------------------------------------
 Nuclear Repulsion Energy =   239.8962192295 hartrees
 There are       30 alpha and       30 beta electrons

                       Distance Matrix (Angstroms)
             C (  1)   C (  2)   Se(  3)   H (  4)   C (  5)   H (  6)
   C (  2)  1.524222
   Se(  3)  3.232307  2.384398
   H (  4)  3.291779  2.823880  1.465846
   C (  5)  2.551550  1.524222  3.232307  3.291779
   H (  6)  1.093014  2.184365  3.325408  3.585691  3.505617
   H (  7)  1.098630  2.149323  4.239688  4.312932  2.794328  1.776798
   H (  8)  1.094875  2.178043  3.394667  2.966006  2.818604  1.768353
   H (  9)  2.162061  1.093320  2.835437  3.669795  2.162061  2.503470
   H ( 10)  2.794328  2.149323  4.239688  4.312932  1.098630  3.795595
   H ( 11)  3.505617  2.184365  3.325408  3.585691  1.093014  4.348209
   H ( 12)  2.818604  2.178043  3.394667  2.966006  1.094875  3.823984
             H (  7)   H (  8)   H (  9)   H ( 10)   H ( 11)
   H (  8)  1.774288
   H (  9)  2.512206  3.079854
   H ( 10)  2.587164  3.160385  2.512206
   H ( 11)  3.795595  3.823984  2.503470  1.776798
   H ( 12)  3.160385  2.643796  3.079854  1.774288  1.768353
 
 Applying Cartesian multipole field
    Component          Value
    ---------          -----
     (2,0,0)        1.00000E-11
     (0,2,0)        2.00000E-11
     (0,0,2)       -3.00000E-11
 Nucleus-field energy     =     0.0000000059 hartrees
 Requested basis set is 6-31G(d,p)
 There are 44 shells and 120 basis functions
 A cutoff of  1.0D-14 yielded    945 shell pairs
 There are      7103 function pairs
 Smallest overlap matrix eigenvalue = 6.76E-04
 Guess from superposition of atomic densities
 Warning:  Energy on first SCF cycle will be non-variational
 SAD guess density has 59.968191 electrons

 -----------------------------------------------------------------------
  General SCF calculation program by
  Eric Jon Sundstrom, Paul Horn, Yuezhi Mao, Dmitri Zuev, Alec White,
  David Stuck, Shaama M.S., Shane Yost, Joonho Lee, David Small,
  Daniel Levine, Susi Lehtola, Hugh Burton, Evgeny Epifanovsky
 -----------------------------------------------------------------------
 Exchange:     0.2000 Hartree-Fock + 0.0800 Slater + 0.7200 B88
 Correlation:  0.1900 VWN1RPA + 0.8100 LYP
 Using SG-1 standard quadrature grid
 using 12 threads for integral computing
 -------------------------------------------------------
 OpenMP Integral computing Module                
 Release: version 1.0, May 2013, Q-Chem Inc. Pittsburgh 
 -------------------------------------------------------
 -------------------------------------------------------
 OpenMP BLAS3 based DFT computing Module                
 Release: version 1.0, May 2013, Q-Chem Inc. Pittsburgh 
 -------------------------------------------------------
 A unrestricted SCF calculation will be
 performed using DIIS
 SCF converges when DIIS error is below 1.0e-06
 Alpha HF Exchange    Energy = -10.34474143254343
 Beta HF Exchange     Energy = -10.34474143254343
 DFT Correlation      Energy =  -3.08325989551708
 DFT Exchange         Energy = -81.99171222145753
 One-Electron (alpha) Energy = -1987.10745934043575
 One-Electron (beta)  Energy = -1987.10745934043575
 Total Coulomb        Energy = 1316.91722176532198
 ---------------------------------------
  Cycle       Energy         DIIS error
 ---------------------------------------
    1   -2523.1659326622      1.38e-01  
 Alpha HF Exchange    Energy = -10.41332542695293
 Beta HF Exchange     Energy = -10.41332542695292
 DFT Correlation      Energy =  -3.12514966108997
 DFT Exchange         Energy = -82.87755257880863
 One-Electron (alpha) Energy = -1994.55740019316431
 One-Electron (beta)  Energy = -1994.55740019316454
 Total Coulomb        Energy = 1335.74393726058906
    2   -2520.3039969841      8.90e-03  
 Alpha HF Exchange    Energy = -10.31594458043234
 Beta HF Exchange     Energy = -10.31594458043235
 DFT Correlation      Energy =  -3.09064732005256
 DFT Exchange         Energy = -82.09031697163047
 One-Electron (alpha) Energy = -1984.27605512405921
 One-Electron (beta)  Energy = -1984.27605512406012
 Total Coulomb        Energy = 1314.16570949401012
    3   -2520.3030349712      4.45e-03  
 Alpha HF Exchange    Energy = -10.39134502059082
 Beta HF Exchange     Energy = -10.39134502059083
 DFT Correlation      Energy =  -3.11552298276707
 DFT Exchange         Energy = -82.68871528872590
 One-Electron (alpha) Energy = -1992.48716483242947
 One-Electron (beta)  Energy = -1992.48716483242947
 Total Coulomb        Energy = 1331.27823405248364
    4   -2520.3868046896      2.64e-03  
 Alpha HF Exchange    Energy = -10.36725799505942
 Beta HF Exchange     Energy = -10.36725799505941
 DFT Correlation      Energy =  -3.10945773223735
 DFT Exchange         Energy = -82.50437055708539
 One-Electron (alpha) Energy = -1989.74535242766910
 One-Electron (beta)  Energy = -1989.74535242766888
 Total Coulomb        Energy = 1325.52217054808125
    5   -2520.4206593512      6.99e-04  
 Alpha HF Exchange    Energy = -10.36514528753310
 Beta HF Exchange     Energy = -10.36514528753310
 DFT Correlation      Energy =  -3.10787422128509
 DFT Exchange         Energy = -82.48401368780253
 One-Electron (alpha) Energy = -1989.74153031422929
 One-Electron (beta)  Energy = -1989.74153031423020
 Total Coulomb        Energy = 1325.48449663023848
    6   -2520.4245232469      1.03e-04  
 Alpha HF Exchange    Energy = -10.36476317236960
 Beta HF Exchange     Energy = -10.36476317236960
 DFT Correlation      Energy =  -3.10775180245345
 DFT Exchange         Energy = -82.48124143169397
 One-Electron (alpha) Energy = -1989.63510219702903
 One-Electron (beta)  Energy = -1989.63510219702971
 Total Coulomb        Energy = 1325.26787081304747
    7   -2520.4246339244      2.03e-05  
 Alpha HF Exchange    Energy = -10.36483945493496
 Beta HF Exchange     Energy = -10.36483945493495
 DFT Correlation      Energy =  -3.10775993413505
 DFT Exchange         Energy = -82.48179055981535
 One-Electron (alpha) Energy = -1989.65962063716256
 One-Electron (beta)  Energy = -1989.65962063716211
 Total Coulomb        Energy = 1325.31761341856281
    8   -2520.4246380241      8.27e-06  
 Alpha HF Exchange    Energy = -10.36481964645641
 Beta HF Exchange     Energy = -10.36481964645639
 DFT Correlation      Energy =  -3.10776275746978
 DFT Exchange         Energy = -82.48164323907014
 One-Electron (alpha) Energy = -1989.65525292324764
 One-Electron (beta)  Energy = -1989.65525292324674
 Total Coulomb        Energy = 1325.30869349211548
    9   -2520.4246384084      6.84e-07  Convergence criterion met
 ---------------------------------------
 SCF time:   CPU 26.74s  wall 3.00s 
<S^2> =         -0.000000000
 Alpha HF Exchange    Energy = -10.36481964645641
 Beta HF Exchange     Energy = -10.36481964645639
 DFT Correlation      Energy =  -3.10776275746978
 DFT Exchange         Energy = -82.48164323907014
 One-Electron (alpha) Energy = -1989.65525292324764
 One-Electron (beta)  Energy = -1989.65525292324674
 Total Coulomb        Energy = 1325.30869349211548
 Nuclear repulsion Energy = 239.89621923545386
 SCF   energy in the final basis set =    -2520.4246384084
 Total energy in the final basis set =    -2520.4246384084
 
 --------------------------------------------------------------
 
                    Orbital Energies (a.u.)
 --------------------------------------------------------------
 
 Alpha MOs
 -- Occupied --
******* -58.078 -52.135 -52.135 -52.132 -10.247 -10.193 -10.192
 -7.810  -5.755  -5.752  -5.742  -2.089  -2.088  -2.080  -2.078
 -2.076  -0.798  -0.699  -0.668  -0.582  -0.463  -0.442  -0.416
 -0.398  -0.366  -0.360  -0.352  -0.275  -0.219
 -- Virtual --
 -0.050   0.045   0.088   0.128   0.141   0.149   0.168   0.178
  0.183   0.199   0.226   0.244   0.282   0.316   0.323   0.461
  0.461   0.497   0.521   0.566   0.566   0.614   0.656   0.660
  0.707   0.736   0.749   0.752   0.776   0.859   0.863   0.891
  0.893   0.905   0.935   0.948   1.022   1.073   1.295   1.333
  1.371   1.392   1.532   1.640   1.716   1.753   1.844   1.847
  1.860   2.019   2.032   2.034   2.064   2.081   2.089   2.089
  2.106   2.125   2.241   2.296   2.332   2.370   2.511   2.563
  2.606   2.630   2.656   2.695   2.713   2.855   2.864   2.884
  2.891   3.159   3.209   3.312   3.407   3.436   3.449   3.490
  4.219   4.286   4.303   4.325   4.385   4.443   4.483   4.601
  5.476  89.732
 
 Beta MOs
 -- Occupied --
******* -58.078 -52.135 -52.135 -52.132 -10.247 -10.193 -10.192
 -7.810  -5.755  -5.752  -5.742  -2.089  -2.088  -2.080  -2.078
 -2.076  -0.798  -0.699  -0.668  -0.582  -0.463  -0.442  -0.416
 -0.398  -0.366  -0.360  -0.352  -0.275  -0.219
 -- Virtual --
 -0.050   0.045   0.088   0.128   0.141   0.149   0.168   0.178
  0.183   0.199   0.226   0.244   0.282   0.316   0.323   0.461
  0.461   0.497   0.521   0.566   0.566   0.614   0.656   0.660
  0.707   0.736   0.749   0.752   0.776   0.859   0.863   0.891
  0.893   0.905   0.935   0.948   1.022   1.073   1.295   1.333
  1.371   1.392   1.532   1.640   1.716   1.753   1.844   1.847
  1.860   2.019   2.032   2.034   2.064   2.081   2.089   2.089
  2.106   2.125   2.241   2.296   2.332   2.370   2.511   2.563
  2.606   2.630   2.656   2.695   2.713   2.855   2.864   2.884
  2.891   3.159   3.209   3.312   3.407   3.436   3.449   3.490
  4.219   4.286   4.303   4.325   4.385   4.443   4.483   4.601
  5.476  89.732
 --------------------------------------------------------------
 
          Ground-State Mulliken Net Atomic Charges

     Atom                 Charge (a.u.)    Spin (a.u.)
  --------------------------------------------------------
      1 C                    -0.310849      -0.000000
      2 C                    -0.104905      -0.000000
      3 Se                   -0.180435       0.000000
      4 H                     0.052268      -0.000000
      5 C                    -0.310849      -0.000000
      6 H                     0.132056       0.000000
      7 H                     0.112231       0.000000
      8 H                     0.117843       0.000000
      9 H                     0.130509       0.000000
     10 H                     0.112231      -0.000000
     11 H                     0.132056      -0.000000
     12 H                     0.117843       0.000000
  --------------------------------------------------------
  Sum of atomic charges =    -0.000000
  Sum of spin   charges =     0.000000

 -----------------------------------------------------------------
                    Cartesian Multipole Moments
 -----------------------------------------------------------------
    Charge (ESU x 10^10)
                -0.0000
    Dipole Moment (Debye)
         X      -2.5808      Y      -0.0000      Z       0.2377
       Tot       2.5917
    Quadrupole Moments (Debye-Ang)
        XX     -38.5603     XY      -0.0000     YY     -40.8793
        XZ       1.2364     YZ      -0.0000     ZZ     -36.9026
    Octopole Moments (Debye-Ang^2)
       XXX      25.9381    XXY       0.0000    XYY       6.2290
       YYY      -0.0000    XXZ      -1.7969    XYZ      -0.0000
       YYZ      -2.3757    XZZ      11.6206    YZZ      -0.0000
       ZZZ      -3.7373
    Hexadecapole Moments (Debye-Ang^3)
      XXXX    -544.1428   XXXY       0.0000   XXYY    -135.0358
      XYYY       0.0000   YYYY    -219.7933   XXXZ       2.9576
      XXYZ       0.0000   XYYZ      -0.7166   YYYZ       0.0000
      XXZZ    -104.8970   XYZZ       0.0000   YYZZ     -51.6646
      XZZZ      -2.3969   YZZZ       0.0000   ZZZZ     -76.9273
 -----------------------------------------------------------------
 Calculating analytic gradient of the SCF energy
 Gradient of SCF Energy
            1           2           3           4           5           6
    1  -0.0097585  -0.0175784   0.0422705   0.0009741  -0.0097585   0.0004803
    2   0.0013208  -0.0000000  -0.0000000   0.0000000  -0.0013208   0.0006884
    3  -0.0012928  -0.0084890   0.0141765  -0.0042448  -0.0012928   0.0005130
            7           8           9          10          11          12
    1   0.0001741   0.0010721  -0.0096022   0.0001741   0.0004803   0.0010721
    2   0.0006012   0.0002436   0.0000000  -0.0006012  -0.0006884  -0.0002436
    3   0.0001996   0.0002505  -0.0007832   0.0001996   0.0005130   0.0002505
 Max gradient component =       4.227E-02
 RMS gradient           =       8.633E-03
 Gradient time:  CPU 11.24 s  wall 0.94 s
 Geometry Optimization Parameters
   NAtoms,    NIC,     NZ,  NCons,   NDum,   NFix, NCnnct, MaxDiis
       12      75       0       1       0       0       0       0

 Cartesian Hessian Update
 Hessian Updated using BFGS Update


** CONSTRAINED OPTIMIZATION IN DELOCALIZED INTERNAL COORDINATES **
   Searching for a Minimum

   Optimization Cycle:   4

                       Coordinates (Angstroms)
     ATOM                X               Y               Z
      1  C        -1.7742412552    1.2757752471    0.1411423954
      2  C        -1.1461270178    0.0000000000   -0.4076051338
      3  Se        1.1942028874    0.0000000000    0.0486937945
      4  H         0.9426070954    0.0000000000    1.4927862877
      5  C        -1.7742412552   -1.2757752471    0.1411423954
      6  H        -1.3024176743    2.1741043903   -0.2651416872
      7  H        -2.8394960757    1.2935821382   -0.1270041619
      8  H        -1.6997459270    1.3218980009    1.2325056208
      9  H        -1.1806811006    0.0000000000   -1.5003792828
     10  H        -2.8394960757   -1.2935821382   -0.1270041618
     11  H        -1.3024176743   -2.1741043903   -0.2651416872
     12  H        -1.6997459270   -1.3218980009    1.2325056208
   Point Group: c1    Number of degrees of freedom:    30


   Energy is  -2520.424638408

              Constraints and their Current Values
                                        Value     Constraint
   Distance(Angs):        2   3             2.384398     2.900000
 Hessian Updated using BFGS Update
**WARNING** Constraint Gradient Reduced for constraint   1

   Using Lagrange Multiplier Algorithm


 23 Hessian modes will be used to form the next step
  Hessian Eigenvalues:
    -0.971850    0.093832    0.093833    0.151464    0.173067    0.177115
     0.177249    0.177552    0.316874    0.332574    0.333634    0.334619
     0.359472    0.363066    0.424629    0.613550    0.623318    0.725453
     0.725853    0.725856    0.725976    0.728445    1.040178

 Minimum Search - Taking P-RFO Step
 Searching for Lamda that Maximizes Along the Constraint modes Only
 Value Taken    Lamda =   0.04113058
 Searching for Lamda that Minimizes Along All other modes
 Value Taken    Lamda =  -0.04930913
 Calculated Step too Large.  Step scaled by  0.926802
 Step Taken.  Stepsize is  0.300000

                             Maximum     Tolerance    Cnvgd?
         Gradient            0.300000       0.000300      NO
         Displacement        0.265611       0.001200      NO
         Energy change      0.009614       0.000001      NO


 New Cartesian Coordinates Obtained by Inverse Iteration

 Displacement from previous Coordinates is:  0.251360
 ----------------------------------------------------------------
             Standard Nuclear Orientation (Angstroms)
    I     Atom           X                Y                Z
 ----------------------------------------------------------------
    1      C      -1.7871014206     1.2799019442     0.1391807045
    2      C      -1.1908371164     0.0000000000    -0.4026831261
    3      Se      1.2909035919     0.0000000000     0.0624512287
    4      H       0.9999348403     0.0000000000     1.4961385707
    5      C      -1.7871014206    -1.2799019442     0.1391807045
    6      H      -1.3053100515     2.1716842598    -0.2694823351
    7      H      -2.8533318232     1.3094424926    -0.1332077639
    8      H      -1.7217316793     1.3359557923     1.2313824660
    9      H      -1.1868513667     0.0000000000    -1.4951528162
   10      H      -2.8533318232    -1.3094424926    -0.1332077639
   11      H      -1.3053100515    -2.1716842598    -0.2694823351
   12      H      -1.7217316793    -1.3359557923     1.2313824660
 ----------------------------------------------------------------
 Nuclear Repulsion Energy =   234.4618406140 hartrees
 There are       30 alpha and       30 beta electrons

                       Distance Matrix (Angstroms)
             C (  1)   C (  2)   Se(  3)   H (  4)   C (  5)   H (  6)
   C (  2)  1.512381
   Se(  3)  3.334389  2.524953
   H (  4)  3.353663  2.899139  1.462916
   C (  5)  2.559804  1.512381  3.334389  3.353663
   H (  6)  1.092888  2.178775  3.400988  3.625987  3.508928
   H (  7)  1.100870  2.133341  4.350587  4.383728  2.813494  1.777190
   H (  8)  1.095591  2.176418  3.496734  3.043410  2.835470  1.767610
   H (  9)  2.160901  1.092477  2.926670  3.705382  2.160901  2.496500
   H ( 10)  2.813494  2.133341  4.350587  4.383728  1.100870  3.812242
   H ( 11)  3.508928  2.178775  3.400988  3.625987  1.092888  4.343369
   H ( 12)  2.835470  2.176418  3.496734  3.043410  1.095591  3.837908
             H (  7)   H (  8)   H (  9)   H ( 10)   H ( 11)
   H (  8)  1.772943
   H (  9)  2.519264  3.082997
   H ( 10)  2.618885  3.184456  2.519264
   H ( 11)  3.812242  3.837908  2.496500  1.777190
   H ( 12)  3.184456  2.671912  3.082997  1.772943  1.767610
 
 Applying Cartesian multipole field
    Component          Value
    ---------          -----
     (2,0,0)        1.00000E-11
     (0,2,0)        2.00000E-11
     (0,0,2)       -3.00000E-11
 Nucleus-field energy     =     0.0000000063 hartrees
 Requested basis set is 6-31G(d,p)
 There are 44 shells and 120 basis functions
 A cutoff of  1.0D-14 yielded    941 shell pairs
 There are      7061 function pairs
 Smallest overlap matrix eigenvalue = 6.77E-04
 Guess from superposition of atomic densities
 Warning:  Energy on first SCF cycle will be non-variational
 SAD guess density has 59.968191 electrons

 -----------------------------------------------------------------------
  General SCF calculation program by
  Eric Jon Sundstrom, Paul Horn, Yuezhi Mao, Dmitri Zuev, Alec White,
  David Stuck, Shaama M.S., Shane Yost, Joonho Lee, David Small,
  Daniel Levine, Susi Lehtola, Hugh Burton, Evgeny Epifanovsky
 -----------------------------------------------------------------------
 Exchange:     0.2000 Hartree-Fock + 0.0800 Slater + 0.7200 B88
 Correlation:  0.1900 VWN1RPA + 0.8100 LYP
 Using SG-1 standard quadrature grid
 using 12 threads for integral computing
 -------------------------------------------------------
 OpenMP Integral computing Module                
 Release: version 1.0, May 2013, Q-Chem Inc. Pittsburgh 
 -------------------------------------------------------
 -------------------------------------------------------
 OpenMP BLAS3 based DFT computing Module                
 Release: version 1.0, May 2013, Q-Chem Inc. Pittsburgh 
 -------------------------------------------------------
 A unrestricted SCF calculation will be
 performed using DIIS
 SCF converges when DIIS error is below 1.0e-06
 Alpha HF Exchange    Energy = -10.34245916107140
 Beta HF Exchange     Energy = -10.34245916107140
 DFT Correlation      Energy =  -3.08151764229718
 DFT Exchange         Energy = -81.98770010949312
 One-Electron (alpha) Energy = -1981.67257513935806
 One-Electron (beta)  Energy = -1981.67257513935806
 Total Coulomb        Energy = 1311.49694733974025
 ---------------------------------------
  Cycle       Energy         DIIS error
 ---------------------------------------
    1   -2523.1404983926      1.38e-01  
 Alpha HF Exchange    Energy = -10.41239951622988
 Beta HF Exchange     Energy = -10.41239951622990
 DFT Correlation      Energy =  -3.12342710421252
 DFT Exchange         Energy = -82.87240468509100
 One-Electron (alpha) Energy = -1989.42198443131906
 One-Electron (beta)  Energy = -1989.42198443132042
 Total Coulomb        Energy = 1330.91668344122309
    2   -2520.2860756229      8.93e-03  
 Alpha HF Exchange    Energy = -10.31434108617241
 Beta HF Exchange     Energy = -10.31434108617241
 DFT Correlation      Energy =  -3.08976480657353
 DFT Exchange         Energy = -82.08552478125969
 One-Electron (alpha) Energy = -1978.21437188585082
 One-Electron (beta)  Energy = -1978.21437188585037
 Total Coulomb        Energy = 1307.51321971691232
    3   -2520.2576551946      4.89e-03  
 Alpha HF Exchange    Energy = -10.38990129328591
 Beta HF Exchange     Energy = -10.38990129328590
 DFT Correlation      Energy =  -3.11188861618227
 DFT Exchange         Energy = -82.67035559739298
 One-Electron (alpha) Energy = -1987.63705055443143
 One-Electron (beta)  Energy = -1987.63705055443029
 Total Coulomb        Energy = 1327.04284766664341
    4   -2520.3314596220      3.44e-03  
 Alpha HF Exchange    Energy = -10.36936086132885
 Beta HF Exchange     Energy = -10.36936086132886
 DFT Correlation      Energy =  -3.10991692897161
 DFT Exchange         Energy = -82.53056527709427
 One-Electron (alpha) Energy = -1984.34250812755408
 One-Electron (beta)  Energy = -1984.34250812755431
 Total Coulomb        Energy = 1320.20920111035002
    5   -2520.3931784532      1.56e-03  
 Alpha HF Exchange    Energy = -10.36329774944402
 Beta HF Exchange     Energy = -10.36329774944401
 DFT Correlation      Energy =  -3.10623751181413
 DFT Exchange         Energy = -82.47487342305452
 One-Electron (alpha) Energy = -1984.34362037533151
 One-Electron (beta)  Energy = -1984.34362037533174
 Total Coulomb        Energy = 1320.11901154985412
    6   -2520.4140950142      1.07e-04  
 Alpha HF Exchange    Energy = -10.36295996955681
 Beta HF Exchange     Energy = -10.36295996955679
 DFT Correlation      Energy =  -3.10603275877986
 DFT Exchange         Energy = -82.47245794049400
 One-Electron (alpha) Energy = -1984.19871548098445
 One-Electron (beta)  Energy = -1984.19871548098376
 Total Coulomb        Energy = 1319.82579573626435
    7   -2520.4142052438      5.00e-05  
[...]
 ----------------------------------------------------------------
    1      C      -1.8341115151     1.2926017890     0.1344924173
    2      C      -1.3718766812     0.0000000000    -0.4429636206
    3      Se      1.4796130694     0.0000000000     0.0852455176
    4      H       1.1872194894     0.0000000000     1.5355392923
    5      C      -1.8341115149    -1.2926017889     0.1344924174
    6      H      -1.2765614203     2.1411482165    -0.2634195411
    7      H      -2.8967873533     1.4297308307    -0.1347093505
    8      H      -1.7764201412     1.3012127582     1.2260798821
    9      H      -1.1489950187     0.0000000000    -1.5062080059
   10      H      -2.8967873531    -1.4297308307    -0.1347093503
   11      H      -1.2765614200    -2.1411482164    -0.2634195408
   12      H      -1.7764201410    -1.3012127579     1.2260798823
 ----------------------------------------------------------------
 Nuclear Repulsion Energy =   223.1235903985 hartrees
 There are       30 alpha and       30 beta electrons

                       Distance Matrix (Angstroms)
             C (  1)   C (  2)   Se(  3)   H (  4)   C (  5)   H (  6)
   C (  2)  1.489274
   Se(  3)  3.557248  2.900000
   H (  4)  3.572421  3.234725  1.479475
   C (  5)  2.585204  1.489274  3.557248  3.572421
   H (  6)  1.090517  2.150776  3.507504  3.727061  3.501405
   H (  7)  1.104787  2.112937  4.609272  4.638208  2.934765  1.774208
   H (  8)  1.093145  2.154650  3.687331  3.251473  2.814741  1.781561
   H (  9)  2.198204  1.086354  3.072833  3.835378  2.198204  2.478974
   H ( 10)  2.934765  2.112937  4.609272  4.638208  1.104787  3.923376
   H ( 11)  3.501405  2.150776  3.507504  3.727061  1.090517  4.282296
   H ( 12)  2.814741  2.154650  3.687331  3.251473  1.093145  3.783955
             H (  7)   H (  8)   H (  9)   H ( 10)   H ( 11)
   H (  8)  1.767339
   H (  9)  2.641953  3.090666
   H ( 10)  2.859462  3.250388  2.641953
   H ( 11)  3.923376  3.783955  2.478974  1.774208
   H ( 12)  3.250388  2.602426  3.090666  1.767339  1.781561
 
 Applying Cartesian multipole field
    Component          Value
    ---------          -----
     (2,0,0)        1.00000E-11
     (0,2,0)        2.00000E-11
     (0,0,2)       -3.00000E-11
 Nucleus-field energy     =     0.0000000071 hartrees
 Requested basis set is 6-31G(d,p)
 There are 44 shells and 120 basis functions
 A cutoff of  1.0D-14 yielded    934 shell pairs
 There are      7026 function pairs
 Smallest overlap matrix eigenvalue = 6.77E-04
 Guess from superposition of atomic densities
 Warning:  Energy on first SCF cycle will be non-variational
 SAD guess density has 59.968191 electrons

 -----------------------------------------------------------------------
  General SCF calculation program by
  Eric Jon Sundstrom, Paul Horn, Yuezhi Mao, Dmitri Zuev, Alec White,
  David Stuck, Shaama M.S., Shane Yost, Joonho Lee, David Small,
  Daniel Levine, Susi Lehtola, Hugh Burton, Evgeny Epifanovsky
 -----------------------------------------------------------------------
 Exchange:     0.2000 Hartree-Fock + 0.0800 Slater + 0.7200 B88
 Correlation:  0.1900 VWN1RPA + 0.8100 LYP
 Using SG-1 standard quadrature grid
 using 12 threads for integral computing
 -------------------------------------------------------
 OpenMP Integral computing Module                
 Release: version 1.0, May 2013, Q-Chem Inc. Pittsburgh 
 -------------------------------------------------------
 -------------------------------------------------------
 OpenMP BLAS3 based DFT computing Module                
 Release: version 1.0, May 2013, Q-Chem Inc. Pittsburgh 
 -------------------------------------------------------
 A unrestricted SCF calculation will be
 performed using DIIS
 SCF converges when DIIS error is below 1.0e-06
 Alpha HF Exchange    Energy = -10.33972659549613
 Beta HF Exchange     Energy = -10.33972659549613
 DFT Correlation      Energy =  -3.07805936136969
 DFT Exchange         Energy = -81.98347102572728
 One-Electron (alpha) Energy = -1970.32881079752019
 One-Electron (beta)  Energy = -1970.32881079752019
 Total Coulomb        Energy = 1300.17054682332468
 ---------------------------------------
  Cycle       Energy         DIIS error
 ---------------------------------------
    1   -2523.1044679442      1.38e-01  
 Alpha HF Exchange    Energy = -10.41455049530071
 Beta HF Exchange     Energy = -10.41455049530072
 DFT Correlation      Energy =  -3.12023690881266
 DFT Exchange         Energy = -82.88005347470391
 One-Electron (alpha) Energy = -1979.23002343822964
 One-Electron (beta)  Energy = -1979.23002343822986
 Total Coulomb        Energy = 1321.95327866936668
    2   -2520.2125691756      9.12e-03  
 Alpha HF Exchange    Energy = -10.31959580854698
 Beta HF Exchange     Energy = -10.31959580854697
 DFT Correlation      Energy =  -3.08974319954681
 DFT Exchange         Energy = -82.12177318490873
 One-Electron (alpha) Energy = -1964.01540605623245
 One-Electron (beta)  Energy = -1964.01540605623200
 Total Coulomb        Energy = 1290.94911811511997
    3   -2519.8088115933      7.81e-03  
 Alpha HF Exchange    Energy = -10.38283869776221
 Beta HF Exchange     Energy = -10.38283869776220
 DFT Correlation      Energy =  -3.10186527516157
 DFT Exchange         Energy = -82.58630124558115
 One-Electron (alpha) Energy = -1976.89528138659648
 One-Electron (beta)  Energy = -1976.89528138659625
 Total Coulomb        Energy = 1317.03532610712864
    4   -2520.0854901767      5.51e-03  
 Alpha HF Exchange    Energy = -10.37029542538161
 Beta HF Exchange     Energy = -10.37029542538161
 DFT Correlation      Energy =  -3.10793478160893
 DFT Exchange         Energy = -82.54982777074946
 One-Electron (alpha) Energy = -1973.92621424172148
 One-Electron (beta)  Energy = -1973.92621424172125
 Total Coulomb        Energy = 1310.75008284744581
    5   -2520.3771086335      1.28e-03  
 Alpha HF Exchange    Energy = -10.35760258614618
 Beta HF Exchange     Energy = -10.35760258614617
 DFT Correlation      Energy =  -3.10150937749793
 DFT Exchange         Energy = -82.43815903465317
 One-Electron (alpha) Energy = -1973.01615784024693
 One-Electron (beta)  Energy = -1973.01615784024739
 Total Coulomb        Energy = 1308.77652061290337
    6   -2520.3870782464      4.94e-04  
 Alpha HF Exchange    Energy = -10.35980044208626
 Beta HF Exchange     Energy = -10.35980044208626
 DFT Correlation      Energy =  -3.10278862011041
 DFT Exchange         Energy = -82.46093131557549
 One-Electron (alpha) Energy = -1972.84792101974972
 One-Electron (beta)  Energy = -1972.84792101974995
 Total Coulomb        Energy = 1308.46654550329913
    7   -2520.3890269504      2.06e-04  
 Alpha HF Exchange    Energy = -10.36013040640458
 Beta HF Exchange     Energy = -10.36013040640456
 DFT Correlation      Energy =  -3.10287197201866
 DFT Exchange         Energy = -82.46227931249913
 One-Electron (alpha) Energy = -1973.02363018641995
 One-Electron (beta)  Energy = -1973.02363018641745
 Total Coulomb        Energy = 1308.81949835694559
    8   -2520.3895837076      2.19e-05  
 Alpha HF Exchange    Energy = -10.36008639359553
 Beta HF Exchange     Energy = -10.36008639359554
 DFT Correlation      Energy =  -3.10284480844809
 DFT Exchange         Energy = -82.46176922873306
 One-Electron (alpha) Energy = -1973.02252625241704
 One-Electron (beta)  Energy = -1973.02252625241886
 Total Coulomb        Energy = 1308.81666033770898
    9   -2520.3895885859      7.60e-06  
 Alpha HF Exchange    Energy = -10.36011882337171
 Beta HF Exchange     Energy = -10.36011882337170
 DFT Correlation      Energy =  -3.10284769179395
 DFT Exchange         Energy = -82.46199030268389
 One-Electron (alpha) Energy = -1973.03048642843692
 One-Electron (beta)  Energy = -1973.03048642843623
 Total Coulomb        Energy = 1308.83286898835649
   10   -2520.3895891041      1.27e-06  
 Alpha HF Exchange    Energy = -10.36011890383472
 Beta HF Exchange     Energy = -10.36011890383476
 DFT Correlation      Energy =  -3.10284837770160
 DFT Exchange         Energy = -82.46198407346695
 One-Electron (alpha) Energy = -1973.03069324032504
 One-Electron (beta)  Energy = -1973.03069324032913
 Total Coulomb        Energy = 1308.83327721658634
   11   -2520.3895891173      2.52e-07  Convergence criterion met
 ---------------------------------------
 SCF time:   CPU 32.28s  wall 3.00s 
<S^2> =         -0.000000000
 Alpha HF Exchange    Energy = -10.36011890383472
 Beta HF Exchange     Energy = -10.36011890383476
 DFT Correlation      Energy =  -3.10284837770160
 DFT Exchange         Energy = -82.46198407346695
 One-Electron (alpha) Energy = -1973.03069324032504
 One-Electron (beta)  Energy = -1973.03069324032913
 Total Coulomb        Energy = 1308.83327721658634
 Nuclear repulsion Energy = 223.12359040562731
 SCF   energy in the final basis set =    -2520.3895891173
 Total energy in the final basis set =    -2520.3895891173
 
 --------------------------------------------------------------
 
                    Orbital Energies (a.u.)
 --------------------------------------------------------------
 
 Alpha MOs
 -- Occupied --
******* -58.057 -52.114 -52.114 -52.111 -10.270 -10.208 -10.208
 -7.789  -5.733  -5.731  -5.721  -2.067  -2.067  -2.059  -2.057
 -2.055  -0.818  -0.721  -0.641  -0.597  -0.484  -0.454  -0.439
 -0.413  -0.385  -0.380  -0.341  -0.229  -0.201
 -- Virtual --
 -0.098   0.055   0.083   0.110   0.128   0.147   0.156   0.159
  0.171   0.209   0.226   0.260   0.290   0.328   0.345   0.472
  0.472   0.517   0.536   0.537   0.545   0.579   0.638   0.653
  0.681   0.710   0.721   0.726   0.740   0.840   0.843   0.857
  0.864   0.892   0.921   0.931   0.975   1.048   1.260   1.269
  1.327   1.346   1.508   1.611   1.645   1.762   1.823   1.870
  1.877   1.990   2.016   2.021   2.049   2.069   2.084   2.093
  2.112   2.123   2.232   2.254   2.334   2.371   2.478   2.543
  2.592   2.629   2.638   2.685   2.733   2.840   2.843   2.875
  2.914   3.147   3.191   3.327   3.394   3.433   3.433   3.467
  4.156   4.289   4.304   4.304   4.358   4.417   4.459   4.580
  5.483  89.696
 
 Beta MOs
 -- Occupied --
******* -58.057 -52.114 -52.114 -52.111 -10.270 -10.208 -10.208
 -7.789  -5.733  -5.731  -5.721  -2.067  -2.067  -2.059  -2.057
 -2.055  -0.818  -0.721  -0.641  -0.597  -0.484  -0.454  -0.439
 -0.413  -0.385  -0.380  -0.341  -0.229  -0.201
 -- Virtual --
 -0.098   0.055   0.083   0.110   0.128   0.147   0.156   0.159
  0.171   0.209   0.226   0.260   0.290   0.328   0.345   0.472
  0.472   0.517   0.536   0.537   0.545   0.579   0.638   0.653
  0.681   0.710   0.721   0.726   0.740   0.840   0.843   0.857
  0.864   0.892   0.921   0.931   0.975   1.048   1.260   1.269
  1.327   1.346   1.508   1.611   1.645   1.762   1.823   1.870
  1.877   1.990   2.016   2.021   2.049   2.069   2.084   2.093
  2.112   2.123   2.232   2.254   2.334   2.371   2.478   2.543
  2.592   2.629   2.638   2.685   2.733   2.840   2.843   2.875
  2.914   3.147   3.191   3.327   3.394   3.433   3.433   3.467
  4.156   4.289   4.304   4.304   4.358   4.417   4.459   4.580
  5.483  89.696
 --------------------------------------------------------------
 
          Ground-State Mulliken Net Atomic Charges

     Atom                 Charge (a.u.)    Spin (a.u.)
  --------------------------------------------------------
      1 C                    -0.332031      -0.000000
      2 C                    -0.012111       0.000000
      3 Se                   -0.352514       0.000000
      4 H                     0.043768      -0.000000
      5 C                    -0.332031       0.000000
      6 H                     0.155640       0.000000
      7 H                     0.125139       0.000000
      8 H                     0.136402       0.000000
      9 H                     0.150558       0.000000
     10 H                     0.125139      -0.000000
     11 H                     0.155640       0.000000
     12 H                     0.136402      -0.000000
  --------------------------------------------------------
  Sum of atomic charges =    -0.000000
  Sum of spin   charges =    -0.000000

 -----------------------------------------------------------------
                    Cartesian Multipole Moments
 -----------------------------------------------------------------
    Charge (ESU x 10^10)
                 0.0000
    Dipole Moment (Debye)
         X      -4.6554      Y      -0.0000      Z       0.0173
       Tot       4.6554
    Quadrupole Moments (Debye-Ang)
        XX     -38.7103     XY      -0.0000     YY     -40.0374
        XZ       0.9135     YZ      -0.0000     ZZ     -36.6941
    Octopole Moments (Debye-Ang^2)
       XXX       2.8938    XXY      -0.0000    XYY      -1.2994
       YYY      -0.0000    XXZ      -2.5265    XYZ       0.0000
       YYZ      -2.9348    XZZ       6.6243    YZZ      -0.0000
       ZZZ      -5.3503
    Hexadecapole Moments (Debye-Ang^3)
      XXXX    -667.8363   XXXY       0.0000   XXYY    -153.7154
      XYYY       0.0000   YYYY    -218.9728   XXXZ      -6.1823
      XXYZ       0.0000   XYYZ      -3.4805   YYYZ       0.0000
      XXZZ    -124.1640   XYZZ       0.0000   YYZZ     -52.0995
      XZZZ      -9.9500   YZZZ       0.0000   ZZZZ     -77.7826
 -----------------------------------------------------------------
 Calculating analytic gradient of the SCF energy
 Gradient of SCF Energy
            1           2           3           4           5           6
    1  -0.0001371  -0.0339408   0.0339274   0.0000523  -0.0001371   0.0000355
    2   0.0000155  -0.0000000  -0.0000000  -0.0000000  -0.0000155   0.0000115
    3  -0.0001039  -0.0061067   0.0063741  -0.0000707  -0.0001039  -0.0000014
            7           8           9          10          11          12
    1   0.0000362   0.0000220   0.0000479   0.0000362   0.0000355   0.0000220
    2  -0.0000447   0.0000107   0.0000000   0.0000447  -0.0000115  -0.0000107
    3  -0.0000069   0.0000388  -0.0000498  -0.0000069  -0.0000014   0.0000388
 Max gradient component =       3.394E-02
 RMS gradient           =       8.133E-03
 Gradient time:  CPU 10.96 s  wall 0.92 s
 Geometry Optimization Parameters
   NAtoms,    NIC,     NZ,  NCons,   NDum,   NFix, NCnnct, MaxDiis
       12      75       0       1       0       0       0       0

 Cartesian Hessian Update
 Hessian Updated using BFGS Update


** CONSTRAINED OPTIMIZATION IN DELOCALIZED INTERNAL COORDINATES **
   Searching for a Minimum

   Optimization Cycle:  17

                       Coordinates (Angstroms)
     ATOM                X               Y               Z
      1  C        -1.8341115151    1.2926017890    0.1344924173
      2  C        -1.3718766812    0.0000000000   -0.4429636206
      3  Se        1.4796130694    0.0000000000    0.0852455176
      4  H         1.1872194894    0.0000000000    1.5355392923
      5  C        -1.8341115149   -1.2926017889    0.1344924174
      6  H        -1.2765614203    2.1411482165   -0.2634195411
      7  H        -2.8967873533    1.4297308307   -0.1347093505
      8  H        -1.7764201412    1.3012127582    1.2260798821
      9  H        -1.1489950187    0.0000000000   -1.5062080059
     10  H        -2.8967873531   -1.4297308307   -0.1347093503
     11  H        -1.2765614200   -2.1411482164   -0.2634195408
     12  H        -1.7764201410   -1.3012127579    1.2260798823
   Point Group: c1    Number of degrees of freedom:    30


   Energy is  -2520.389589117

              Constraints and their Current Values
                                        Value     Constraint
   Distance(Angs):        2   3             2.900000     2.900000
 Hessian Updated using BFGS Update

 16 Hessian modes will be used to form the next step
  Hessian Eigenvalues:
     0.023983    0.043498    0.093905    0.105043    0.171905    0.178826
     0.223500    0.307188    0.333604    0.344280    0.403681    0.505521
     0.717860    0.723854    0.725758    0.726384

 Minimum Search - Taking Simple RFO Step
 Searching for Lamda that Minimizes Along All modes
 Value Taken    Lamda =   0.00000000
 Step Taken.  Stepsize is  0.002634

                             Maximum     Tolerance    Cnvgd?
         Gradient           0.000112      0.000300     YES
         Displacement       0.001048      0.001200     YES
         Energy change     -0.000001      0.000001     YES


                       Distance Matrix (Angstroms)
             C (  1)   C (  2)   Se(  3)   H (  4)   C (  5)   H (  6)
   C (  2)  1.489274
   Se(  3)  3.557248  2.900000
   H (  4)  3.572421  3.234725  1.479475
   C (  5)  2.585204  1.489274  3.557248  3.572421
   H (  6)  1.090517  2.150776  3.507504  3.727061  3.501405
   H (  7)  1.104787  2.112937  4.609272  4.638208  2.934765  1.774208
   H (  8)  1.093145  2.154650  3.687331  3.251473  2.814741  1.781561
   H (  9)  2.198204  1.086354  3.072833  3.835378  2.198204  2.478974
   H ( 10)  2.934765  2.112937  4.609272  4.638208  1.104787  3.923376
   H ( 11)  3.501405  2.150776  3.507504  3.727061  1.090517  4.282296
   H ( 12)  2.814741  2.154650  3.687331  3.251473  1.093145  3.783955
             H (  7)   H (  8)   H (  9)   H ( 10)   H ( 11)
   H (  8)  1.767339
   H (  9)  2.641953  3.090666
   H ( 10)  2.859462  3.250388  2.641953
   H ( 11)  3.923376  3.783955  2.478974  1.774208
   H ( 12)  3.250388  2.602426  3.090666  1.767339  1.781561
 
 Final energy is   -2520.38958911728     


 ******************************
 **  OPTIMIZATION CONVERGED  **
 ******************************

                       Coordinates (Angstroms)
     ATOM                X               Y               Z
      1  C        -1.8341115151    1.2926017890    0.1344924173
      2  C        -1.3718766812    0.0000000000   -0.4429636206
      3  Se        1.4796130694    0.0000000000    0.0852455176
      4  H         1.1872194894    0.0000000000    1.5355392923
      5  C        -1.8341115149   -1.2926017889    0.1344924174
      6  H        -1.2765614203    2.1411482165   -0.2634195411
      7  H        -2.8967873533    1.4297308307   -0.1347093505
      8  H        -1.7764201412    1.3012127582    1.2260798821
      9  H        -1.1489950187    0.0000000000   -1.5062080059
     10  H        -2.8967873531   -1.4297308307   -0.1347093503
     11  H        -1.2765614200   -2.1411482164   -0.2634195408
     12  H        -1.7764201410   -1.3012127579    1.2260798823

Z-matrix Print:
$molecule
0 1
Se
H  1 1.479475
C  1 2.900000 2 89.095900
H  3 1.086354 1 88.655347 2 -180.000000 0
C  3 1.489274 1 103.565698 2 -63.233616 0
H  5 1.090517 3 112.036021 1 -54.421947 0
H  5 1.093145 3 112.188052 1 69.014830 0
H  5 1.104787 3 108.167484 1 -173.145831 0
C  3 1.489274 1 103.565698 2 63.233616 0
H  9 1.090517 3 112.036021 1 54.421947 0
H  9 1.093145 3 112.188052 1 -69.014830 0
H  9 1.104787 3 108.167484 1 173.145831 0
$end

PES scan, value:    2.9000 energy: -2520.3895891173
------- Summary of potential scan: ------ 
    2.9000     -2520.3895891173
----------------------------------------- 
Archival summary:
1\1\hpc0248\JobtypUnspecified\ProcedureUnspecified\6-31G**\e138\knomura\WedMar1314:56:342019WedMar1314:56:342019\0\\#,JobtypUnspecified,ProcedureUnspecified,6-31G**,\\0,1\Se\H,1,1.47947\C,1,2.9,2,89.0959\H,3,1.08635,1,88.6553,2,-180,0\C,3,1.48927,1,103.566,2,-63.2336,0\H,5,1.09052,3,112.036,1,-54.4219,0\H,5,1.09314,3,112.188,1,69.0148,0\H,5,1.10479,3,108.167,1,-173.146,0\C,3,1.48927,1,103.566,2,63.2336,0\H,9,1.09052,3,112.036,1,54.4219,0\H,9,1.09314,3,112.188,1,-69.0148,0\H,9,1.10479,3,108.167,1,173.146,0\\\@

 Total job time:  82.72s(wall), 812.24s(cpu) 
 Wed Mar 13 14:56:34 2019

        *************************************************************
        *                                                           *
        *  Thank you very much for using Q-Chem.  Have a nice day.  *
        *                                                           *
        *************************************************************


