
Running Job 1 of 1 selenium/01/C-Se.xyz.data/inputs/bond_triplet_2.9.in
qchem selenium/01/C-Se.xyz.data/inputs/bond_triplet_2.9.in_21329.0 /staging/scratch/2868765/qchem21329/ 1
/usr/usc/qchem/5.1.1/exe/qcprog.exe_s selenium/01/C-Se.xyz.data/inputs/bond_triplet_2.9.in_21329.0 /staging/scratch/2868765/qchem21329/
Check license passed

                  Welcome to Q-Chem
     A Quantum Leap Into The Future Of Chemistry


 Q-Chem 5.1, Q-Chem, Inc., Pleasanton, CA (2018)

 Yihan Shao,  Zhengting Gan,  E. Epifanovsky,  A. T. B. Gilbert,  M. Wormit,  
 J. Kussmann,  A. W. Lange,  A. Behn,  Jia Deng,  Xintian Feng,  D. Ghosh,  
 M. Goldey,  P. R. Horn,  L. D. Jacobson,  I. Kaliman,  T. Kus,  A. Landau,  
 Jie Liu,  E. I. Proynov,  R. M. Richard,  R. P. Steele,  E. J. Sundstrom,  
 H. L. Woodcock III,  P. M. Zimmerman,  D. Zuev,  B. Albrecht,  E. Alguire,  
 S. A. Baeppler,  D. Barton,  Z. Benda,  Y. A. Bernard,  E. J. Berquist,  
 K. B. Bravaya,  H. Burton,  D. Casanova,  Chun-Min Chang,  Yunqing Chen,  
 A. Chien,  K. D. Closser,  M. P. Coons,  S. Coriani,  S. Dasgupta,  
 A. L. Dempwolff,  M. Diedenhofen,  Hainam Do,  R. G. Edgar,  Po-Tung Fang,  
 S. Faraji,  S. Fatehi,  Qingguo Feng,  K. D. Fenk,  J. Fosso-Tande,  
 Qinghui Ge,  A. Ghysels,  G. Gidofalvi,  J. Gomes,  J. Gonthier,  A. Gunina,  
 D. Hait,  M. W. D. Hanson-Heine,  P. H. P. Harbach,  A. W. Hauser,  
 J. E. Herr,  E. G. Hohenstein,  Z. C. Holden,  Kerwin Hui,  B. C. Huynh,  
 T.-C. Jagau,  Hyunjun Ji,  B. Kaduk,  K. Khistyaev,  Jaehoon Kim,  
 P. Klunzinger,  K. Koh,  D. Kosenkov,  L. Koulias,  T. Kowalczyk,  
 C. M. Krauter,  A. Kunitsa,  Ka Un Lao,  A. Laurent,  K. V. Lawler,  
 Joonho Lee,  D. Lefrancois,  S. Lehtola,  D. S. Levine,  Yi-Pei Li,  
 You-Sheng Lin,  Fenglai Liu,  E. Livshits,  A. Luenser,  P. Manohar,  
 E. Mansoor,  S. F. Manzer,  Shan-Ping Mao,  Yuezhi Mao,  N. Mardirossian,  
 A. V. Marenich,  T. Markovich,  L. A. Martinez-Martinez,  S. A. Maurer,  
 N. J. Mayhall,  S. C. McKenzie,  J.-M. Mewes,  A. F. Morrison,  
 J. W. Mullinax,  K. Nanda,  T. S. Nguyen-Beck,  R. Olivares-Amaya,  
 J. A. Parkhill,  T. M. Perrine,  F. Plasser,  P. Pokhilko,  S. Prager,  
 A. Prociuk,  E. Ramos,  D. R. Rehn,  F. Rob,  M. Schneider,  N. Sergueev,  
 S. M. Sharada,  S. Sharma,  D. W. Small,  T. Stauch,  T. Stein,  
 Yu-Chuan Su,  A. J. W. Thom,  A. Tkatchenko,  T. Tsuchimochi,  N. M. Tubman,  
 L. Vogt,  M. L. Vidal,  O. Vydrov,  M. A. Watson,  J. Wenzel,  
 M. de Wergifosse,  T. A. Wesolowski,  A. White,  J. Witte,  A. Yamada,  
 Jun Yang,  K. Yao,  S. Yeganeh,  S. R. Yost,  Zhi-Qiang You,  A. Zech,  
 Igor Ying Zhang,  Xing Zhang,  Yan Zhao,  Ying Zhu,  B. R. Brooks,  
 G. K. L. Chan,  C. J. Cramer,  M. S. Gordon,  W. J. Hehre,  A. Klamt,  
 M. W. Schmidt,  C. D. Sherrill,  D. G. Truhlar,  A. Aspuru-Guzik,  R. Baer,  
 A. T. Bell,  N. A. Besley,  Jeng-Da Chai,  A. E. DePrince, III,  
 R. A. DiStasio Jr.,  A. Dreuw,  B. D. Dunietz,  T. R. Furlani,  
 Chao-Ping Hsu,  Yousung Jung,  Jing Kong,  D. S. Lambrecht,  WanZhen Liang,  
 C. Ochsenfeld,  V. A. Rassolov,  L. V. Slipchenko,  J. E. Subotnik,  
 T. Van Voorhis,  J. M. Herbert,  A. I. Krylov,  P. M. W. Gill,  M. Head-Gordon

 Contributors to earlier versions of Q-Chem not listed above: 
 R. D. Adamson,  B. Austin,  J. Baker,  G. J. O. Beran,  K. Brandhorst,  
 S. T. Brown,  E. F. C. Byrd,  A. K. Chakraborty,  C.-L. Cheng,  
 Siu Hung Chien,  D. M. Chipman,  D. L. Crittenden,  H. Dachsel,  
 R. J. Doerksen,  A. D. Dutoi,  L. Fusti-Molnar,  W. A. Goddard III,  
 A. Golubeva-Zadorozhnaya,  S. R. Gwaltney,  G. Hawkins,  A. Heyden,  
 S. Hirata,  G. Kedziora,  F. J. Keil,  C. Kelley,  Jihan Kim,  R. A. King,  
 R. Z. Khaliullin,  P. P. Korambath,  W. Kurlancheek,  A. M. Lee,  M. S. Lee,  
 S. V. Levchenko,  Ching Yeh Lin,  D. Liotard,  R. C. Lochan,  I. Lotan,  
 P. E. Maslen,  N. Nair,  D. P. O'Neill,  D. Neuhauser,  E. Neuscamman,  
 C. M. Oana,  R. Olson,  B. Peters,  R. Peverati,  P. A. Pieniazek,  
 Y. M. Rhee,  J. Ritchie,  M. A. Rohrdanz,  E. Rosta,  N. J. Russ,  
 H. F. Schaefer III,  N. E. Schultz,  N. Shenvi,  A. C. Simmonett,  A. Sodt,  
 D. Stuck,  K. S. Thanthiriwatte,  V. Vanovschi,  Tao Wang,  A. Warshel,  
 C. F. Williams,  Q. Wu,  X. Xu,  W. Zhang

 Please cite Q-Chem as follows:
 Y. Shao et al., Mol. Phys. 113, 184-215 (2015)
 DOI: 10.1080/00268976.2014.952696

 Q-Chem 5.1.1 for Intel X86 EM64T Linux

 Parts of Q-Chem use Armadillo 8.300.2 (Tropical Shenanigans).
 http://arma.sourceforge.net/

 Q-Chem begins on Wed Mar 13 15:41:19 2019  

Host: 
0

     Scratch files written to /staging/scratch/2868765/qchem21329//
 Aug318 |scratch|qcdevops|jenkins|workspace|build_RNUM 6013   
Processing $rem in /usr/usc/qchem/5.1.1/config/preferences.
 MEM_TOTAL  2000 
Input Ideriv = 2
Curr. Ideriv = -1
Max.  Ideriv = 2

Checking the input file for inconsistencies... 	...done.

--------------------------------------------------------------
User input:
--------------------------------------------------------------

$comment
potential surface scanner
$end

$rem
JOBTYPE  PES_SCAN
UNRESTRICTED TRUE
SYM_IGNORE  TRUE
GEOM_OPT_MAX_CYCLES 400
SCF_MAX_CYCLES 400
METHOD   B3LYP
BASIS   6-31G**
PDB_PRINT 2
SCF_CONVERGENCE 6
THRESH 14
SCF_PRINT 1
$end
$molecule
0 3
C -1.920604 1.303360 0.163053
C -1.254025 0.000000 -0.123768
Se 1.744042 0.000000 -0.231445
H 1.060359 0.000000 1.075564
C -1.920604 -1.303360 0.163053
H -1.216696 2.140160 0.111162
H -2.733893 1.522790 -0.551100
H -2.380125 1.301371 1.159979
H -0.469525 0.000000 -0.890037
H -2.733893 -1.522790 -0.551100
H -1.216696 -2.140160 0.111162
H -2.380125 -1.301371 1.159979
$end
$scan
stre 2 3 2.900000 2.901000 0.100000
$end
--------------------------------------------------------------
 ----------------------------------------------------------------
             Standard Nuclear Orientation (Angstroms)
    I     Atom           X                Y                Z
 ----------------------------------------------------------------
    1      C      -1.9206040000     1.3033600000     0.1630530000
    2      C      -1.2540250000     0.0000000000    -0.1237680000
    3      Se      1.7440420000     0.0000000000    -0.2314450000
    4      H       1.0603590000     0.0000000000     1.0755640000
    5      C      -1.9206040000    -1.3033600000     0.1630530000
    6      H      -1.2166960000     2.1401600000     0.1111620000
    7      H      -2.7338930000     1.5227900000    -0.5511000000
    8      H      -2.3801250000     1.3013710000     1.1599790000
    9      H      -0.4695250000     0.0000000000    -0.8900370000
   10      H      -2.7338930000    -1.5227900000    -0.5511000000
   11      H      -1.2166960000    -2.1401600000     0.1111620000
   12      H      -2.3801250000    -1.3013710000     1.1599790000
 ----------------------------------------------------------------
 Nuclear Repulsion Energy =   215.9252486194 hartrees
 There are       31 alpha and       29 beta electrons
 Requested basis set is 6-31G(d,p)
 There are 44 shells and 120 basis functions

 Total QAlloc Memory Limit   2000 MB
 Mega-Array Size       188 MB
 MEM_STATIC part       192 MB
A total of 1 constraints
  
            1
    1   1.0100000
    2   2.0100000
    3   3.0100000
    4   2.9000000
    5   2.9010000
    6   0.1000000
    7   0.0000000
    8   0.0000000
    9   0.0000000
   10   0.0000000

                       Distance Matrix (Angstroms)
             C (  1)   C (  2)   Se(  3)   H (  4)   C (  5)   H (  6)
   C (  2)  1.491758
   Se(  3)  3.909476  3.000000
   H (  4)  3.378989  2.606678  1.475024
   C (  5)  2.606720  1.491758  3.909476  3.378989
   H (  6)  1.094721  2.153339  3.669282  3.270372  3.515112
   H (  7)  1.104356  2.165990  4.740566  4.400145  3.026314  1.766812
   H (  8)  1.097736  2.147015  4.542948  3.679351  2.826596  1.776837
   H (  9)  2.216614  1.096635  2.309464  2.490810  2.216614  2.478094
   H ( 10)  3.026314  2.165990  4.740566  4.400145  1.104356  4.019662
   H ( 11)  3.515112  2.153339  3.669282  3.270372  1.094721  4.280320
   H ( 12)  2.826596  2.147015  4.542948  3.679351  1.097736  3.781233
             H (  7)   H (  8)   H (  9)   H ( 10)   H ( 11)
   H (  8)  1.761241
   H (  9)  2.749751  3.089745
   H ( 10)  3.045580  3.320968  2.749751
   H ( 11)  4.019662  3.781233  2.478094  1.766812
   H ( 12)  3.320968  2.602742  3.089745  1.761241  1.776837
 
 A cutoff of  1.0D-14 yielded    916 shell pairs
 There are      6801 function pairs
 
 -------------------------------------------------------
 OpenMP Integral Computing Module                       
 Release: version 1.0, May 2013, Q-Chem Inc. Pittsburgh 
 -------------------------------------------------------
 Integral Job Info:
 Integral job number is                      11
 Integral operator is                         1
 short-range coefficients                     0
 long-range coefficients              100000000
 Omega coefficients                           0
 if combine SR and LR in K                    0
 Integral screening is                        0
 Integral computing path is                   2
 max size of driver memory is            800000
 size of driver memory is                593474
 size of scratch memory is             15267112
 max col of scratch BK array               1296
 max len of scratch array in speh3          155
 max len of scratch index in speh4           18
 max int batch size is                      520
 min int batch size is                       52
 fixed nKL is                                52
 max L of basis functions is                  2
 order of int derivative is                   0
 number of shells is                         44
 number of basis is                         120
 number of cartesian basis is               120
 number of contracted shell pairs           916
 number of primitive shell pairs           3385
 maxK2 (contraction) of shell pair           36
 max number of K2 of shell pair               1
 max number of CS2 of shell pair             82
 max number of PS2 of shell pair            264
 mem total for path MDJ                  518460
 -------------------------------------------------------
 Smallest overlap matrix eigenvalue = 6.78E-04

 Scale SEOQF with 1.000000e-01/1.000000e-01/1.000000e+00

 Standard Electronic Orientation quadrupole field applied
 Nucleus-field energy     =     0.0000000013 hartrees
 Guess from superposition of atomic densities
 Warning:  Energy on first SCF cycle will be non-variational
 SAD guess density has 59.968191 electrons

 -----------------------------------------------------------------------
  General SCF calculation program by
  Eric Jon Sundstrom, Paul Horn, Yuezhi Mao, Dmitri Zuev, Alec White,
  David Stuck, Shaama M.S., Shane Yost, Joonho Lee, David Small,
  Daniel Levine, Susi Lehtola, Hugh Burton, Evgeny Epifanovsky
 -----------------------------------------------------------------------
 Exchange:     0.2000 Hartree-Fock + 0.0800 Slater + 0.7200 B88
 Correlation:  0.1900 VWN1RPA + 0.8100 LYP
 Using SG-1 standard quadrature grid
 using 12 threads for integral computing
 -------------------------------------------------------
 OpenMP Integral computing Module                
 Release: version 1.0, May 2013, Q-Chem Inc. Pittsburgh 
 -------------------------------------------------------
 -------------------------------------------------------
 OpenMP BLAS3 based DFT computing Module                
 Release: version 1.0, May 2013, Q-Chem Inc. Pittsburgh 
 -------------------------------------------------------
 A unrestricted SCF calculation will be
 performed using DIIS
 SCF converges when DIIS error is below 1.0e-06
 Alpha HF Exchange    Energy = -10.33974228043945
 Beta HF Exchange     Energy = -10.33974228043945
 DFT Correlation      Energy =  -3.07856886766746
 DFT Exchange         Energy = -81.98438529851435
 One-Electron (alpha) Energy = -1963.14591627651976
 One-Electron (beta)  Energy = -1963.14591627651976
 Total Coulomb        Energy = 1293.01465925230082
 ---------------------------------------
  Cycle       Energy         DIIS error
 ---------------------------------------
    1   -2523.0943634070      1.38e-01  
 Alpha HF Exchange    Energy = -10.51381390534273
 Beta HF Exchange     Energy = -10.32112154391066
 DFT Correlation      Energy =  -3.11251961277793
 DFT Exchange         Energy = -82.89880398818781
 One-Electron (alpha) Energy = -1987.58771269483282
 One-Electron (beta)  Energy = -1951.57706134761634
 Total Coulomb        Energy = 1309.85847954814017
    2   -2520.2273049238      8.86e-03  
 Alpha HF Exchange    Energy = -10.41438674417812
 Beta HF Exchange     Energy = -10.23345438168183
 DFT Correlation      Energy =  -3.07557080065593
 DFT Exchange         Energy = -82.13049361204669
 One-Electron (alpha) Energy = -1978.95446128422782
 One-Electron (beta)  Energy = -1943.45623858889962
 Total Coulomb        Energy = 1292.10738537314160
    3   -2520.2319714178      4.14e-03  
 Alpha HF Exchange    Energy = -10.49213613717541
 Beta HF Exchange     Energy = -10.30407558512284
 DFT Correlation      Energy =  -3.10230297454293
 DFT Exchange         Energy = -82.72684571808045
 One-Electron (alpha) Energy = -1985.55593174385876
 One-Electron (beta)  Energy = -1949.23631237107134
 Total Coulomb        Energy = 1305.18608309811771
    4   -2520.3062728110      2.41e-03  
 Alpha HF Exchange    Energy = -10.46688000403960
 Beta HF Exchange     Energy = -10.28058741240879
 DFT Correlation      Energy =  -3.09316955230983
 DFT Exchange         Energy = -82.52972384261871
 One-Electron (alpha) Energy = -1983.71062660282973
 One-Electron (beta)  Energy = -1947.52122668379411
 Total Coulomb        Energy = 1301.33475256626411
    5   -2520.3422129110      2.26e-04  
 Alpha HF Exchange    Energy = -10.46536697856474
 Beta HF Exchange     Energy = -10.27935795176047
 DFT Correlation      Energy =  -3.09291723673161
 DFT Exchange         Energy = -82.51911631686380
 One-Electron (alpha) Energy = -1983.47138867883359
 One-Electron (beta)  Energy = -1947.29086084291475
 Total Coulomb        Energy = 1300.85120538202364
    6   -2520.3425540029      6.71e-05  
 Alpha HF Exchange    Energy = -10.46517252653127
 Beta HF Exchange     Energy = -10.27929731855600
 DFT Correlation      Energy =  -3.09269344614261
 DFT Exchange         Energy = -82.51775724711796
 One-Electron (alpha) Energy = -1983.46516185854762
 One-Electron (beta)  Energy = -1947.28024912658020
 Total Coulomb        Energy = 1300.83250022131097
    7   -2520.3425826814      1.27e-05  
 Alpha HF Exchange    Energy = -10.46530093246403
 Beta HF Exchange     Energy = -10.27937503315092
 DFT Correlation      Energy =  -3.09270840191124
 DFT Exchange         Energy = -82.51853836298369
 One-Electron (alpha) Energy = -1983.48386294518423
 One-Electron (beta)  Energy = -1947.29026382413963
 Total Coulomb        Energy = 1300.86221623949609
    8   -2520.3425846396      6.22e-06  
 Alpha HF Exchange    Energy = -10.46528719844291
 Beta HF Exchange     Energy = -10.27938532729531
 DFT Correlation      Energy =  -3.09270237245671
 DFT Exchange         Energy = -82.51851439929418
 One-Electron (alpha) Energy = -1983.48225092671737
 One-Electron (beta)  Energy = -1947.28750079585893
 Total Coulomb        Energy = 1300.85780743298801
    9   -2520.3425849663      2.77e-06  
 Alpha HF Exchange    Energy = -10.46529375201132
 Beta HF Exchange     Energy = -10.27939151320369
 DFT Correlation      Energy =  -3.09269902530243
 DFT Exchange         Energy = -82.51855635905810
 One-Electron (alpha) Energy = -1983.48253275541606
 One-Electron (beta)  Energy = -1947.28723980654968
 Total Coulomb        Energy = 1300.85787954797320
   10   -2520.3425850428      3.99e-07  Convergence criterion met
 ---------------------------------------
 SCF time:   CPU 30.23s  wall 2.00s 
<S^2> =          2.006437130
 Alpha HF Exchange    Energy = -10.46529375201132
 Beta HF Exchange     Energy = -10.27939151320369
 DFT Correlation      Energy =  -3.09269902530243
 DFT Exchange         Energy = -82.51855635905810
 One-Electron (alpha) Energy = -1983.48253275541606
 One-Electron (beta)  Energy = -1947.28723980654968
 Total Coulomb        Energy = 1300.85787954797320
 Nuclear repulsion Energy = 215.92524862075010
 SCF   energy in the final basis set =    -2520.3425850428
 Total energy in the final basis set =    -2520.3425850428
 
 --------------------------------------------------------------
 
                    Orbital Energies (a.u.)
 --------------------------------------------------------------
 
 Alpha MOs
 -- Occupied --
******* -58.102 -52.161 -52.159 -52.156 -10.201 -10.185 -10.185
 -7.836  -5.784  -5.778  -5.766  -2.117  -2.116  -2.106  -2.103
 -2.101  -0.791  -0.701  -0.697  -0.581  -0.461  -0.436  -0.415
 -0.391  -0.384  -0.364  -0.361  -0.272  -0.246  -0.191
 -- Virtual --
  0.025   0.098   0.125   0.137   0.165   0.169   0.174   0.182
  0.209   0.236   0.263   0.279   0.301   0.309   0.459   0.479
  0.494   0.535   0.548   0.561   0.561   0.575   0.595   0.657
  0.711   0.731   0.747   0.793   0.841   0.851   0.859   0.875
  0.893   0.928   0.940   0.973   1.046   1.264   1.285   1.347
  1.393   1.535   1.540   1.670   1.803   1.806   1.861   1.883
  1.981   2.038   2.042   2.064   2.077   2.095   2.104   2.110
  2.133   2.259   2.275   2.363   2.379   2.489   2.543   2.581
  2.619   2.663   2.717   2.745   2.844   2.849   2.900   2.945
  3.151   3.195   3.341   3.417   3.439   3.449   3.491   4.175
  4.230   4.255   4.266   4.303   4.377   4.480   4.573   5.419
 89.615
 
 Beta MOs
 -- Occupied --
******* -58.101 -52.158 -52.157 -52.155 -10.186 -10.186 -10.186
 -7.833  -5.776  -5.775  -5.765  -2.111  -2.111  -2.102  -2.101
 -2.099  -0.771  -0.694  -0.669  -0.555  -0.452  -0.417  -0.408
 -0.385  -0.372  -0.357  -0.351  -0.233
 -- Virtual --
 -0.157  -0.040   0.035   0.100   0.130   0.140   0.174   0.178
  0.181   0.183   0.224   0.251   0.270   0.288   0.305   0.330
  0.493   0.497   0.505   0.547   0.569   0.576   0.577   0.608
  0.611   0.662   0.736   0.737   0.755   0.809   0.856   0.861
  0.871   0.879   0.902   0.935   0.944   0.981   1.054   1.281
  1.295   1.354   1.420   1.535   1.556   1.680   1.818   1.825
  1.887   1.910   2.006   2.043   2.048   2.069   2.074   2.101
  2.107   2.113   2.144   2.275   2.278   2.365   2.390   2.511
  2.560   2.589   2.626   2.668   2.722   2.751   2.851   2.855
  2.908   2.951   3.156   3.201   3.349   3.420   3.443   3.454
  3.499   4.198   4.242   4.268   4.269   4.316   4.383   4.480
  4.588   5.434  89.620
 --------------------------------------------------------------
 
          Ground-State Mulliken Net Atomic Charges

     Atom                 Charge (a.u.)    Spin (a.u.)
  --------------------------------------------------------
      1 C                    -0.336702      -0.073084
      2 C                    -0.092608       1.047400
      3 Se                   -0.118777       0.974326
      4 H                     0.079975      -0.026631
      5 C                    -0.336702      -0.073084
      6 H                     0.123122       0.010705
      7 H                     0.115824       0.064445
      8 H                     0.112824       0.020933
      9 H                     0.101274      -0.041091
     10 H                     0.115824       0.064445
     11 H                     0.123122       0.010705
     12 H                     0.112824       0.020933
  --------------------------------------------------------
  Sum of atomic charges =    -0.000000
  Sum of spin   charges =     2.000000

 -----------------------------------------------------------------
                    Cartesian Multipole Moments
 -----------------------------------------------------------------
    Charge (ESU x 10^10)
                 0.0000
    Dipole Moment (Debye)
         X      -1.4375      Y       0.0000      Z       0.5353
       Tot       1.5339
    Quadrupole Moments (Debye-Ang)
        XX     -39.4032     XY      -0.0000     YY     -41.2604
        XZ       0.6276     YZ       0.0000     ZZ     -38.1830
    Octopole Moments (Debye-Ang^2)
       XXX       6.6917    XXY       0.0000    XYY      -1.8108
       YYY       0.0000    XXZ       3.1972    XYZ      -0.0000
       YYZ       2.4092    XZZ       4.5309    YZZ       0.0000
       ZZZ       6.4425
    Hexadecapole Moments (Debye-Ang^3)
      XXXX    -779.1982   XXXY      -0.0000   XXYY    -178.7452
      XYYY      -0.0000   YYYY    -233.3871   XXXZ      33.3164
      XXYZ       0.0000   XYYZ      12.5088   YYYZ       0.0000
      XXZZ    -137.0230   XYZZ      -0.0000   YYZZ     -52.6333
      XZZZ      28.9797   YZZZ       0.0000   ZZZZ     -72.7205
 -----------------------------------------------------------------
 Calculating analytic gradient of the SCF energy
 Gradient of SCF Energy
            1           2           3           4           5           6
    1   0.0000167   0.0127289  -0.0126935  -0.0000534   0.0000167   0.0000045
    2  -0.0000021  -0.0000000   0.0000000   0.0000000   0.0000021  -0.0000035
    3   0.0000505  -0.0004219   0.0003511  -0.0001377   0.0000505   0.0000151
            7           8           9          10          11          12
    1  -0.0000128   0.0000203  -0.0000394  -0.0000128   0.0000045   0.0000203
    2   0.0000110  -0.0000067   0.0000000  -0.0000110   0.0000035   0.0000067
    3   0.0000410   0.0000316  -0.0000681   0.0000410   0.0000151   0.0000316
 Max gradient component =       1.273E-02
 RMS gradient           =       2.998E-03
 Gradient time:  CPU 10.96 s  wall 0.92 s
 Geometry Optimization Parameters
   NAtoms,    NIC,     NZ,  NCons,   NDum,   NFix, NCnnct, MaxDiis
       12      74       0       1       0       0       0       0


** CONSTRAINED OPTIMIZATION IN DELOCALIZED INTERNAL COORDINATES **
   Searching for a Minimum

   Optimization Cycle:   1

                       Coordinates (Angstroms)
     ATOM                X               Y               Z
      1  C        -1.9206040000    1.3033600000    0.1630530000
      2  C        -1.2540250000    0.0000000000   -0.1237680000
      3  Se        1.7440420000    0.0000000000   -0.2314450000
      4  H         1.0603590000    0.0000000000    1.0755640000
      5  C        -1.9206040000   -1.3033600000    0.1630530000
      6  H        -1.2166960000    2.1401600000    0.1111620000
      7  H        -2.7338930000    1.5227900000   -0.5511000000
      8  H        -2.3801250000    1.3013710000    1.1599790000
      9  H        -0.4695250000    0.0000000000   -0.8900370000
     10  H        -2.7338930000   -1.5227900000   -0.5511000000
     11  H        -1.2166960000   -2.1401600000    0.1111620000
     12  H        -2.3801250000   -1.3013710000    1.1599790000
   Point Group: c1    Number of degrees of freedom:    30


   Energy is  -2520.342585043

              Constraints and their Current Values
                                        Value     Constraint
   Distance(Angs):        2   3             3.000000     2.900000

 Attempting to Generate Delocalized Internal Coordinates

   Using Lagrange Multiplier Algorithm


 27 Hessian modes will be used to form the next step
  Hessian Eigenvalues:
    -0.987919    0.036023    0.045000    0.045000    0.046484    0.092364
     0.092364    0.093189    0.098580    0.160000    0.160000    0.160000
     0.160000    0.160000    0.160000    0.177654    0.209566    0.289211
     0.332049    0.332049    0.332577    0.332577    0.339337    0.339337
     0.342728    0.342728    1.012229

 Minimum Search - Taking P-RFO Step
 Searching for Lamda that Maximizes Along the Constraint modes Only
 Value Taken    Lamda =   0.02039187
 Searching for Lamda that Minimizes Along All other modes
 Value Taken    Lamda =  -0.01490753
 Step Taken.  Stepsize is  0.185658

                             Maximum     Tolerance    Cnvgd?
         Gradient            0.188973       0.000300      NO
         Displacement        0.185647       0.001200      NO
         Energy change     *********       0.000001      NO


 New Cartesian Coordinates Obtained by Inverse Iteration

 Displacement from previous Coordinates is:  0.316882
 ----------------------------------------------------------------
             Standard Nuclear Orientation (Angstroms)
    I     Atom           X                Y                Z
 ----------------------------------------------------------------
    1      C      -1.8983160494     1.3033398063     0.1578549909
    2      C      -1.2398904666     0.0000000000    -0.1473265605
    3      Se      1.6614355260     0.0000000000    -0.1974890288
    4      H       0.9676519416     0.0000000000     1.0969326703
    5      C      -1.8983160494    -1.3033398063     0.1578549909
    6      H      -1.1962412290     2.1402184947     0.0861686948
    7      H      -2.7312921130     1.5225590647    -0.5333002453
    8      H      -2.3297641955     1.3014484747     1.1672472798
    9      H      -0.4997548270     0.0000000000    -0.9115565214
   10      H      -2.7312921130    -1.5225590647    -0.5333002453
   11      H      -1.1962412290    -2.1402184947     0.0861686948
   12      H      -2.3297641955    -1.3014484747     1.1672472798
 ----------------------------------------------------------------
 Nuclear Repulsion Energy =   219.6338983895 hartrees
 There are       31 alpha and       29 beta electrons

                       Distance Matrix (Angstroms)
             C (  1)   C (  2)   Se(  3)   H (  4)   C (  5)   H (  6)
   C (  2)  1.491762
   Se(  3)  3.807466  2.901760
   H (  4)  3.285473  2.534053  1.468626
   C (  5)  2.606680  1.491762  3.807466  3.285473
   H (  6)  1.094721  2.153360  3.581524  3.206963  3.515130
   H (  7)  1.104356  2.165973  4.661224  4.319494  3.026095  1.766812
   H (  8)  1.097736  2.147021  4.414289  3.545654  2.826649  1.776834
   H (  9)  2.190504  1.063884  2.276101  2.487431  2.190504  2.461927
   H ( 10)  3.026095  2.165973  4.661224  4.319494  1.104356  4.019460
   H ( 11)  3.515130  2.153360  3.581524  3.206963  1.094721  4.280437
   H ( 12)  2.826649  2.147021  4.414289  3.545654  1.097736  3.781359
             H (  7)   H (  8)   H (  9)   H ( 10)   H ( 11)
   H (  8)  1.761243
   H (  9)  2.727824  3.060086
   H ( 10)  3.045118  3.320859  2.727824
   H ( 11)  4.019460  3.781359  2.461927  1.766812
   H ( 12)  3.320859  2.602897  3.060086  1.761243  1.776834
 
 Applying Cartesian multipole field
    Component          Value
    ---------          -----
     (2,0,0)        1.00000E-11
     (0,2,0)        2.00000E-11
     (0,0,2)       -3.00000E-10
 Nucleus-field energy     =     0.0000000014 hartrees
 Requested basis set is 6-31G(d,p)
 There are 44 shells and 120 basis functions
 A cutoff of  1.0D-14 yielded    923 shell pairs
 There are      6833 function pairs
 Smallest overlap matrix eigenvalue = 6.78E-04
 Guess from superposition of atomic densities
 Warning:  Energy on first SCF cycle will be non-variational
 SAD guess density has 59.968191 electrons

 -----------------------------------------------------------------------
  General SCF calculation program by
  Eric Jon Sundstrom, Paul Horn, Yuezhi Mao, Dmitri Zuev, Alec White,
  David Stuck, Shaama M.S., Shane Yost, Joonho Lee, David Small,
  Daniel Levine, Susi Lehtola, Hugh Burton, Evgeny Epifanovsky
 -----------------------------------------------------------------------
 Exchange:     0.2000 Hartree-Fock + 0.0800 Slater + 0.7200 B88
 Correlation:  0.1900 VWN1RPA + 0.8100 LYP
 Using SG-1 standard quadrature grid
 using 12 threads for integral computing
 -------------------------------------------------------
 OpenMP Integral computing Module                
 Release: version 1.0, May 2013, Q-Chem Inc. Pittsburgh 
 -------------------------------------------------------
 -------------------------------------------------------
 OpenMP BLAS3 based DFT computing Module                
 Release: version 1.0, May 2013, Q-Chem Inc. Pittsburgh 
 -------------------------------------------------------
 A unrestricted SCF calculation will be
 performed using DIIS
 SCF converges when DIIS error is below 1.0e-06
 Alpha HF Exchange    Energy = -10.34331833380051
 Beta HF Exchange     Energy = -10.34331833380051
 DFT Correlation      Energy =  -3.07996294992815
 DFT Exchange         Energy = -81.99170425769549
 One-Electron (alpha) Energy = -1966.83128865956769
 One-Electron (beta)  Energy = -1966.83128865956769
 Total Coulomb        Energy = 1296.66069092032717
 ---------------------------------------
  Cycle       Energy         DIIS error
 ---------------------------------------
    1   -2523.1262918832      1.38e-01  
 Alpha HF Exchange    Energy = -10.51639169152866
 Beta HF Exchange     Energy = -10.32274733599913
 DFT Correlation      Energy =  -3.11401532163232
 DFT Exchange         Energy = -82.91408942759686
 One-Electron (alpha) Energy = -1991.52575292525512
 One-Electron (beta)  Energy = -1955.13064936761430
 Total Coulomb        Energy = 1313.66668925536624
    2   -2520.2230584234      8.86e-03  
 Alpha HF Exchange    Energy = -10.41628340253647
 Beta HF Exchange     Energy = -10.23484706685442
 DFT Correlation      Energy =  -3.07697929136992
 DFT Exchange         Energy = -82.14219787648847
 One-Electron (alpha) Energy = -1982.80254747863501
 One-Electron (beta)  Energy = -1946.95167612960086
 Total Coulomb        Energy = 1295.76271711175718
    3   -2520.2279157429      4.14e-03  
 Alpha HF Exchange    Energy = -10.49430736862925
 Beta HF Exchange     Energy = -10.30537799582467
 DFT Correlation      Energy =  -3.10374477318255
 DFT Exchange         Energy = -82.73944313939951
 One-Electron (alpha) Energy = -1989.46558391492567
 One-Electron (beta)  Energy = -1952.77803791615747
 Total Coulomb        Energy = 1308.94971534785509
    4   -2520.3028813694      2.40e-03  
 Alpha HF Exchange    Energy = -10.46905282439927
 Beta HF Exchange     Energy = -10.28204194688619
 DFT Correlation      Energy =  -3.09462772953384
 DFT Exchange         Energy = -82.54282753284164
 One-Electron (alpha) Energy = -1987.60233867517491
 One-Electron (beta)  Energy = -1951.04918471707288
 Total Coulomb        Energy = 1305.06741358565432
    5   -2520.3387614494      2.26e-04  
 Alpha HF Exchange    Energy = -10.46751129055576
 Beta HF Exchange     Energy = -10.28078880412768
 DFT Correlation      Energy =  -3.09436743399185
 DFT Exchange         Energy = -82.53201909821195
 One-Electron (alpha) Energy = -1987.36317942962387
 One-Electron (beta)  Energy = -1950.81963602525389
 Total Coulomb        Energy = 1304.58450177802933
    6   -2520.3391019129      6.72e-05  
 Alpha HF Exchange    Energy = -10.46733144627682
 Beta HF Exchange     Energy = -10.28074597515174
 DFT Correlation      Energy =  -3.09414942669735
 DFT Exchange         Energy = -82.53078871007835
 One-Electron (alpha) Energy = -1987.35796989006803
 One-Electron (beta)  Energy = -1950.81023951345378
 Total Coulomb        Energy = 1304.56819646281247
    7   -2520.3391301081      1.24e-05  
 Alpha HF Exchange    Energy = -10.46745324409422
 Beta HF Exchange     Energy = -10.28082323731006
 DFT Correlation      Energy =  -3.09416402916778
 DFT Exchange         Energy = -82.53154161837502
 One-Electron (alpha) Energy = -1987.37623534745762
 One-Electron (beta)  Energy = -1950.82008065110767
 Total Coulomb        Energy = 1304.59726773284206
    8   -2520.3391320038      5.86e-06  
 Alpha HF Exchange    Energy = -10.46743972904358
 Beta HF Exchange     Energy = -10.28083530387204
 DFT Correlation      Energy =  -3.09415822411592
 DFT Exchange         Energy = -82.53152554477319
 One-Electron (alpha) Energy = -1987.37450419051811
 One-Electron (beta)  Energy = -1950.81731685308932
 Total Coulomb        Energy = 1304.59274916093182
    9   -2520.3391322936      2.77e-06  
 Alpha HF Exchange    Energy = -10.46744558269899
 Beta HF Exchange     Energy = -10.28084142442468
 DFT Correlation      Energy =  -3.09415503966099
 DFT Exchange         Energy = -82.53156471287970
 One-Electron (alpha) Energy = -1987.37483001180817
 One-Electron (beta)  Energy = -1950.81717210857460
 Total Coulomb        Energy = 1304.59297812228556
   10   -2520.3391323669      3.99e-07  Convergence criterion met
 ---------------------------------------
 SCF time:   CPU 29.80s  wall 3.00s 
<S^2> =          2.006244548
 Alpha HF Exchange    Energy = -10.46744558269899
 Beta HF Exchange     Energy = -10.28084142442468
 DFT Correlation      Energy =  -3.09415503966099
 DFT Exchange         Energy = -82.53156471287970
 One-Electron (alpha) Energy = -1987.37483001180817
 One-Electron (beta)  Energy = -1950.81717210857460
 Total Coulomb        Energy = 1304.59297812228556
 Nuclear repulsion Energy = 219.63389839085306
 SCF   energy in the final basis set =    -2520.3391323669
 Total energy in the final basis set =    -2520.3391323669
 
 --------------------------------------------------------------
 
                    Orbital Energies (a.u.)
 --------------------------------------------------------------
 
 Alpha MOs
 -- Occupied --
******* -58.101 -52.160 -52.158 -52.154 -10.198 -10.185 -10.185
 -7.835  -5.783  -5.777  -5.765  -2.116  -2.115  -2.105  -2.102
 -2.100  -0.792  -0.702  -0.697  -0.585  -0.462  -0.436  -0.415
 -0.391  -0.384  -0.366  -0.361  -0.271  -0.245  -0.188
 -- Virtual --
  0.027   0.098   0.128   0.137   0.165   0.171   0.173   0.182
  0.211   0.238   0.262   0.279   0.302   0.306   0.465   0.473
  0.494   0.535   0.549   0.562   0.564   0.581   0.603   0.661
  0.708   0.733   0.752   0.796   0.851   0.853   0.862   0.875
  0.900   0.929   0.940   0.981   1.050   1.264   1.285   1.348
  1.396   1.537   1.547   1.684   1.801   1.808   1.860   1.883
  1.998   2.038   2.043   2.064   2.078   2.096   2.108   2.111
  2.148   2.264   2.276   2.366   2.385   2.504   2.543   2.595
  2.629   2.672   2.718   2.750   2.847   2.854   2.910   2.958
  3.154   3.197   3.361   3.417   3.451   3.451   3.520   4.177
  4.235   4.260   4.269   4.316   4.380   4.481   4.581   5.424
 89.625
 
 Beta MOs
 -- Occupied --
******* -58.100 -52.157 -52.156 -52.154 -10.186 -10.186 -10.182
 -7.832  -5.775  -5.774  -5.764  -2.110  -2.109  -2.101  -2.100
 -2.097  -0.772  -0.694  -0.670  -0.560  -0.453  -0.417  -0.409
 -0.385  -0.373  -0.356  -0.353  -0.232
 -- Virtual --
 -0.156  -0.038   0.036   0.100   0.133   0.140   0.174   0.178
  0.183   0.183   0.226   0.253   0.268   0.288   0.306   0.327
  0.487   0.497   0.511   0.546   0.572   0.575   0.576   0.616
  0.618   0.667   0.734   0.736   0.762   0.811   0.857   0.863
  0.878   0.879   0.913   0.938   0.944   0.991   1.058   1.281
  1.296   1.354   1.423   1.538   1.563   1.695   1.816   1.826
  1.887   1.912   2.018   2.043   2.048   2.069   2.076   2.102
  2.112   2.113   2.160   2.279   2.282   2.369   2.397   2.523
  2.560   2.602   2.639   2.678   2.722   2.755   2.855   2.861
  2.918   2.964   3.159   3.203   3.369   3.420   3.455   3.456
  3.530   4.199   4.246   4.272   4.273   4.330   4.386   4.480
  4.596   5.439  89.630
 --------------------------------------------------------------
 
          Ground-State Mulliken Net Atomic Charges

     Atom                 Charge (a.u.)    Spin (a.u.)
  --------------------------------------------------------
      1 C                    -0.336434      -0.072975
      2 C                    -0.100313       1.041327
      3 Se                   -0.118537       0.976022
      4 H                     0.079975      -0.026279
      5 C                    -0.336434      -0.072975
      6 H                     0.123261       0.010758
      7 H                     0.115741       0.064093
      8 H                     0.112607       0.021109
      9 H                     0.108525      -0.037040
     10 H                     0.115741       0.064093
     11 H                     0.123261       0.010758
     12 H                     0.112607       0.021109
  --------------------------------------------------------
  Sum of atomic charges =     0.000000
  Sum of spin   charges =     2.000000

 -----------------------------------------------------------------
                    Cartesian Multipole Moments
 -----------------------------------------------------------------
    Charge (ESU x 10^10)
                 0.0000
    Dipole Moment (Debye)
         X      -1.4596      Y       0.0000      Z       0.5105
       Tot       1.5463
    Quadrupole Moments (Debye-Ang)
        XX     -39.5147     XY      -0.0000     YY     -41.2423
        XZ       0.5655     YZ      -0.0000     ZZ     -38.0579
    Octopole Moments (Debye-Ang^2)
       XXX      10.2538    XXY      -0.0000    XYY      -0.3910
       YYY      -0.0000    XXZ       2.4726    XYZ       0.0000
       YYZ       1.8076    XZZ       5.6104    YZZ      -0.0000
       ZZZ       5.1902
    Hexadecapole Moments (Debye-Ang^3)
      XXXX    -740.5144   XXXY       0.0000   XXYY    -171.3938
      XYYY       0.0000   YYYY    -233.4273   XXXZ      28.5556
      XXYZ      -0.0000   XYYZ      10.6843   YYYZ      -0.0000
      XXZZ    -130.6509   XYZZ       0.0000   YYZZ     -52.3689
      XZZZ      24.1678   YZZZ      -0.0000   ZZZZ     -71.2164
 -----------------------------------------------------------------
 Calculating analytic gradient of the SCF energy
 Gradient of SCF Energy
            1           2           3           4           5           6
    1   0.0004792   0.0318242  -0.0180218   0.0008447   0.0004792  -0.0001208
    2   0.0002027  -0.0000000   0.0000000   0.0000000  -0.0002027   0.0000347
    3  -0.0001523  -0.0158161   0.0021223  -0.0020834  -0.0001523   0.0000247
            7           8           9          10          11          12
    1   0.0000764   0.0001333  -0.0157834   0.0000764  -0.0001208   0.0001333
    2  -0.0001050  -0.0000716  -0.0000000   0.0001050  -0.0000347   0.0000716
    3  -0.0000378   0.0000847   0.0159388  -0.0000378   0.0000247   0.0000847
 Max gradient component =       3.182E-02
 RMS gradient           =       7.640E-03
 Gradient time:  CPU 10.98 s  wall 0.92 s
 Geometry Optimization Parameters
   NAtoms,    NIC,     NZ,  NCons,   NDum,   NFix, NCnnct, MaxDiis
       12      74       0       1       0       0       0       0

 Cartesian Hessian Update
 Hessian Updated using BFGS Update


** CONSTRAINED OPTIMIZATION IN DELOCALIZED INTERNAL COORDINATES **
   Searching for a Minimum

   Optimization Cycle:   2

                       Coordinates (Angstroms)
     ATOM                X               Y               Z
      1  C        -1.8983160494    1.3033398063    0.1578549909
      2  C        -1.2398904666    0.0000000000   -0.1473265605
      3  Se        1.6614355260    0.0000000000   -0.1974890288
      4  H         0.9676519416    0.0000000000    1.0969326703
      5  C        -1.8983160494   -1.3033398063    0.1578549909
      6  H        -1.1962412290    2.1402184947    0.0861686948
      7  H        -2.7312921130    1.5225590647   -0.5333002453
      8  H        -2.3297641955    1.3014484747    1.1672472798
      9  H        -0.4997548270    0.0000000000   -0.9115565214
     10  H        -2.7312921130   -1.5225590647   -0.5333002453
     11  H        -1.1962412290   -2.1402184947    0.0861686948
     12  H        -2.3297641955   -1.3014484747    1.1672472798
   Point Group: c1    Number of degrees of freedom:    30


   Energy is  -2520.339132367

              Constraints and their Current Values
                                        Value     Constraint
   Distance(Angs):        2   3             2.901760     2.900000
 Hessian Updated using BFGS Update

   Using Lagrange Multiplier Algorithm


 17 Hessian modes will be used to form the next step
  Hessian Eigenvalues:
    -0.971717    0.036234    0.044998    0.046484    0.092364    0.093189
     0.100322    0.160000    0.160058    0.178545    0.209687    0.332049
     0.332560    0.339337    0.342726    0.452354    1.043034

 Minimum Search - Taking P-RFO Step
 Searching for Lamda that Maximizes Along the Constraint modes Only
 Value Taken    Lamda =   0.00005327
 Searching for Lamda that Minimizes Along All other modes
 Value Taken    Lamda =  -0.00089553
 Step Taken.  Stepsize is  0.048087

                             Maximum     Tolerance    Cnvgd?
         Gradient            0.012673       0.000300      NO
         Displacement        0.031747       0.001200      NO
         Energy change      0.003453       0.000001      NO


 New Cartesian Coordinates Obtained by Inverse Iteration

 Displacement from previous Coordinates is:  0.040846
 ----------------------------------------------------------------
             Standard Nuclear Orientation (Angstroms)
    I     Atom           X                Y                Z
 ----------------------------------------------------------------
    1      C      -1.8993311359     1.3027379650     0.1595080153
    2      C      -1.2390701924     0.0000000000    -0.1454145980
    3      Se      1.6604245274     0.0000000000    -0.1995926583
    4      H       0.9619916306     0.0000000000     1.0952223593
    5      C      -1.8993311359    -1.3027379650     0.1595080153
    6      H      -1.1972983220     2.1398041944     0.0888469406
    7      H      -2.7318840110     1.5222220367    -0.5321342644
    8      H      -2.3321153599     1.3005559176     1.1683234913
    9      H      -0.4838733081     0.0000000000    -0.9228014686
   10      H      -2.7318840110    -1.5222220367    -0.5321342644
   11      H      -1.1972983220    -2.1398041944     0.0888469406
   12      H      -2.3321153599    -1.3005559176     1.1683234913
 ----------------------------------------------------------------
 Nuclear Repulsion Energy =   219.6016897530 hartrees
 There are       31 alpha and       29 beta electrons

                       Distance Matrix (Angstroms)
             C (  1)   C (  2)   Se(  3)   H (  4)   C (  5)   H (  6)
   C (  2)  1.491995
   Se(  3)  3.807616  2.900001
   H (  4)  3.280222  2.526629  1.471175
   C (  5)  2.605476  1.491995  3.807616  3.280222
   H (  6)  1.094771  2.152995  3.581695  3.202200  3.514106
   H (  7)  1.104394  2.166842  4.660485  4.313950  3.025213  1.766912
   H (  8)  1.097732  2.147580  4.416222  3.542306  2.825270  1.776912
   H (  9)  2.207270  1.083814  2.262972  2.482528  2.207270  2.472078
   H ( 10)  3.025213  2.166842  4.660485  4.313950  1.104394  4.018832
   H ( 11)  3.514106  2.152995  3.581695  3.202200  1.094771  4.279608
   H ( 12)  2.825270  2.147580  4.416222  3.542306  1.097732  3.780100
             H (  7)   H (  8)   H (  9)   H ( 10)   H ( 11)
   H (  8)  1.760826
   H (  9)  2.742869  3.079001
   H ( 10)  3.044444  3.319555  2.742869
   H ( 11)  4.018832  3.780100  2.472078  1.766912
   H ( 12)  3.319555  2.601112  3.079001  1.760826  1.776912
 
 Applying Cartesian multipole field
    Component          Value
    ---------          -----
     (2,0,0)        1.00000E-11
     (0,2,0)        2.00000E-11
     (0,0,2)       -3.00000E-10
 Nucleus-field energy     =     0.0000000013 hartrees
 Requested basis set is 6-31G(d,p)
 There are 44 shells and 120 basis functions
 A cutoff of  1.0D-14 yielded    923 shell pairs
 There are      6833 function pairs
 Smallest overlap matrix eigenvalue = 6.78E-04
 Guess from superposition of atomic densities
 Warning:  Energy on first SCF cycle will be non-variational
 SAD guess density has 59.968191 electrons

 -----------------------------------------------------------------------
  General SCF calculation program by
  Eric Jon Sundstrom, Paul Horn, Yuezhi Mao, Dmitri Zuev, Alec White,
  David Stuck, Shaama M.S., Shane Yost, Joonho Lee, David Small,
  Daniel Levine, Susi Lehtola, Hugh Burton, Evgeny Epifanovsky
 -----------------------------------------------------------------------
 Exchange:     0.2000 Hartree-Fock + 0.0800 Slater + 0.7200 B88
 Correlation:  0.1900 VWN1RPA + 0.8100 LYP
 Using SG-1 standard quadrature grid
 using 12 threads for integral computing
 -------------------------------------------------------
 OpenMP Integral computing Module                
 Release: version 1.0, May 2013, Q-Chem Inc. Pittsburgh 
 -------------------------------------------------------
 -------------------------------------------------------
 OpenMP BLAS3 based DFT computing Module                
 Release: version 1.0, May 2013, Q-Chem Inc. Pittsburgh 
 -------------------------------------------------------
 A unrestricted SCF calculation will be
 performed using DIIS
 SCF converges when DIIS error is below 1.0e-06
 Alpha HF Exchange    Energy = -10.34211282357827
 Beta HF Exchange     Energy = -10.34211282357827
 DFT Correlation      Energy =  -3.07977903054504
 DFT Exchange         Energy = -81.98903851997375
 One-Electron (alpha) Energy = -1966.81143561204044
 One-Electron (beta)  Energy = -1966.81143561204044
 Total Coulomb        Energy = 1296.65584720554762
 ---------------------------------------
  Cycle       Energy         DIIS error
 ---------------------------------------
    1   -2523.1183774619      1.38e-01  
 Alpha HF Exchange    Energy = -10.51532557613176
 Beta HF Exchange     Energy = -10.32151359946008
 DFT Correlation      Energy =  -3.11377157309232
 DFT Exchange         Energy = -82.90635744929361
 One-Electron (alpha) Energy = -1991.48594636331586
 One-Electron (beta)  Energy = -1955.14236147017596
 Total Coulomb        Energy = 1313.65963474018190
    2   -2520.2239515370      8.86e-03  
 Alpha HF Exchange    Energy = -10.41555459345108
 Beta HF Exchange     Energy = -10.23387059949834
 DFT Correlation      Energy =  -3.07677916777928
 DFT Exchange         Energy = -82.13646602100273
 One-Electron (alpha) Energy = -1982.75548768269414
 One-Electron (beta)  Energy = -1946.93128938310406
 Total Coulomb        Energy = 1295.71853586004772
    3   -2520.2292218332      4.14e-03  
 Alpha HF Exchange    Energy = -10.49353837143388
 Beta HF Exchange     Energy = -10.30445616875484
 DFT Correlation      Energy =  -3.10350459951870
 DFT Exchange         Energy = -82.73372302165482
 One-Electron (alpha) Energy = -1989.43872515610678
 One-Electron (beta)  Energy = -1952.77461525437525
 Total Coulomb        Energy = 1308.94323895972957
    4   -2520.3036338579      2.40e-03  
 Alpha HF Exchange    Energy = -10.46824171029863
 Beta HF Exchange     Energy = -10.28100405721253
 DFT Correlation      Energy =  -3.09439501321852
 DFT Exchange         Energy = -82.53656275072223
 One-Electron (alpha) Energy = -1987.57043627063126
 One-Electron (beta)  Energy = -1951.04285166426826
 Total Coulomb        Energy = 1305.05252879325735
    5   -2520.3392729188      2.29e-04  
 Alpha HF Exchange    Energy = -10.46672591721140
 Beta HF Exchange     Energy = -10.27977992109249
 DFT Correlation      Energy =  -3.09413940925813
 DFT Exchange         Energy = -82.52595486882136
 One-Electron (alpha) Energy = -1987.33011356319776
 One-Electron (beta)  Energy = -1950.81038891003050
 Total Coulomb        Energy = 1304.56578298902559
    6   -2520.3396298463      6.78e-05  
 Alpha HF Exchange    Energy = -10.46653118659636
 Beta HF Exchange     Energy = -10.27972552362422
 DFT Correlation      Energy =  -3.09391434048032
 DFT Exchange         Energy = -82.52461341614175
 One-Electron (alpha) Energy = -1987.32327113473639
 One-Electron (beta)  Energy = -1950.79932732609541
 Total Coulomb        Energy = 1304.54603424761262
    7   -2520.3396589258      1.27e-05  
 Alpha HF Exchange    Energy = -10.46665741303837
 Beta HF Exchange     Energy = -10.27980301214192
 DFT Correlation      Energy =  -3.09392885760855
 DFT Exchange         Energy = -82.52538369039573
 One-Electron (alpha) Energy = -1987.34214980362572
 One-Electron (beta)  Energy = -1950.80944979206242
 Total Coulomb        Energy = 1304.57602190037710
    8   -2520.3396609142      6.18e-06  
 Alpha HF Exchange    Energy = -10.46664335540128
 Beta HF Exchange     Energy = -10.27981427893251
 DFT Correlation      Energy =  -3.09392285039164
 DFT Exchange         Energy = -82.52536206506542
 One-Electron (alpha) Energy = -1987.34042714798238
 One-Electron (beta)  Energy = -1950.80660164564756
 Total Coulomb        Energy = 1304.57142035510560
    9   -2520.3396612341      2.79e-06  
 Alpha HF Exchange    Energy = -10.46664999912191
 Beta HF Exchange     Energy = -10.27982098449564
 DFT Correlation      Energy =  -3.09391957932609
 DFT Exchange         Energy = -82.52540619533534
 One-Electron (alpha) Energy = -1987.34078502337979
 One-Electron (beta)  Energy = -1950.80641243437617
 Total Coulomb        Energy = 1304.57164315138834
   10   -2520.3396613104      3.99e-07  Convergence criterion met
 ---------------------------------------
 SCF time:   CPU 29.04s  wall 3.00s 
<S^2> =          2.006368544
 Alpha HF Exchange    Energy = -10.46664999912191
 Beta HF Exchange     Energy = -10.27982098449564
 DFT Correlation      Energy =  -3.09391957932609
 DFT Exchange         Energy = -82.52540619533534
 One-Electron (alpha) Energy = -1987.34078502337979
 One-Electron (beta)  Energy = -1950.80641243437617
 Total Coulomb        Energy = 1304.57164315138834
 Nuclear repulsion Energy = 219.60168975426174
 SCF   energy in the final basis set =    -2520.3396613104
 Total energy in the final basis set =    -2520.3396613104
 
 --------------------------------------------------------------
 
                    Orbital Energies (a.u.)
 --------------------------------------------------------------
 
 Alpha MOs
 -- Occupied --
******* -58.100 -52.160 -52.157 -52.154 -10.200 -10.185 -10.185
 -7.834  -5.782  -5.776  -5.765  -2.115  -2.114  -2.105  -2.101
 -2.099  -0.792  -0.701  -0.697  -0.583  -0.462  -0.436  -0.415
 -0.392  -0.384  -0.366  -0.361  -0.270  -0.245  -0.189
 -- Virtual --
  0.026   0.097   0.126   0.137   0.165   0.169   0.173   0.181
  0.210   0.238   0.261   0.278   0.302   0.305   0.465   0.472
  0.494   0.535   0.549   0.562   0.564   0.581   0.603   0.661
  0.709   0.732   0.751   0.795   0.851   0.852   0.862   0.875
  0.899   0.929   0.940   0.974   1.048   1.264   1.285   1.348
  1.395   1.537   1.546   1.679   1.802   1.807   1.860   1.882
  1.986   2.038   2.042   2.064   2.078   2.096   2.109   2.111
  2.142   2.261   2.276   2.363   2.382   2.496   2.542   2.588
  2.624   2.666   2.718   2.747   2.844   2.851   2.903   2.949
  3.152   3.196   3.349   3.417   3.443   3.450   3.499   4.177
  4.235   4.261   4.270   4.318   4.381   4.480   4.581   5.425
 89.626
 
 Beta MOs
 -- Occupied --
******* -58.099 -52.156 -52.155 -52.153 -10.186 -10.186 -10.185
 -7.831  -5.775  -5.773  -5.763  -2.110  -2.109  -2.100  -2.099
 -2.097  -0.772  -0.694  -0.669  -0.558  -0.453  -0.418  -0.409
 -0.385  -0.372  -0.357  -0.353  -0.232
 -- Virtual --
 -0.155  -0.039   0.036   0.100   0.131   0.140   0.174   0.178
  0.182   0.183   0.225   0.253   0.268   0.287   0.307   0.327
  0.486   0.497   0.512   0.546   0.571   0.576   0.576   0.616
  0.618   0.667   0.735   0.736   0.762   0.811   0.856   0.862
  0.878   0.878   0.913   0.938   0.944   0.983   1.056   1.282
  1.295   1.354   1.423   1.537   1.562   1.690   1.817   1.825
  1.886   1.910   2.009   2.043   2.048   2.069   2.076   2.101
  2.112   2.113   2.153   2.278   2.279   2.366   2.394   2.517
  2.560   2.597   2.632   2.672   2.722   2.753   2.852   2.857
  2.911   2.955   3.157   3.202   3.357   3.419   3.447   3.454
  3.508   4.199   4.246   4.273   4.273   4.331   4.387   4.480
  4.595   5.439  89.631
 --------------------------------------------------------------
 
          Ground-State Mulliken Net Atomic Charges

     Atom                 Charge (a.u.)    Spin (a.u.)
  --------------------------------------------------------
      1 C                    -0.336050      -0.072899
      2 C                    -0.100272       1.045797
      3 Se                   -0.120541       0.971710
      4 H                     0.079669      -0.026388
      5 C                    -0.336050      -0.072899
      6 H                     0.123747       0.010859
      7 H                     0.115981       0.064055
      8 H                     0.113045       0.021325
      9 H                     0.107699      -0.037798
     10 H                     0.115981       0.064055
     11 H                     0.123747       0.010859
     12 H                     0.113045       0.021325
  --------------------------------------------------------
  Sum of atomic charges =     0.000000
  Sum of spin   charges =     2.000000

 -----------------------------------------------------------------
                    Cartesian Multipole Moments
 -----------------------------------------------------------------
    Charge (ESU x 10^10)
                -0.0000
    Dipole Moment (Debye)
         X      -1.5069      Y       0.0000      Z       0.5143
       Tot       1.5922
    Quadrupole Moments (Debye-Ang)
        XX     -39.5162     XY      -0.0000     YY     -41.2385
        XZ       0.5365     YZ       0.0000     ZZ     -38.0759
    Octopole Moments (Debye-Ang^2)
       XXX      10.0378    XXY       0.0000    XYY      -0.4434
       YYY      -0.0000    XXZ       2.5271    XYZ       0.0000
       YYZ       1.8573    XZZ       5.5995    YZZ       0.0000
       ZZZ       5.2579
    Hexadecapole Moments (Debye-Ang^3)
      XXXX    -740.3204   XXXY      -0.0000   XXYY    -171.2122
      XYYY       0.0000   YYYY    -233.1681   XXXZ      28.7851
      XXYZ       0.0000   XYYZ      10.7851   YYYZ      -0.0000
      XXZZ    -130.6731   XYZZ      -0.0000   YYZZ     -52.3874
      XZZZ      24.4879   YZZZ       0.0000   ZZZZ     -71.5173
 -----------------------------------------------------------------
 Calculating analytic gradient of the SCF energy
 Gradient of SCF Energy
            1           2           3           4           5           6
    1   0.0000420   0.0231476  -0.0175315   0.0003739   0.0000420  -0.0000243
    2  -0.0000654   0.0000000   0.0000000  -0.0000000   0.0000654  -0.0000053
    3   0.0003991  -0.0069556   0.0013083  -0.0012556   0.0003991  -0.0000272
            7           8           9          10          11          12
    1  -0.0000039   0.0000041  -0.0060260  -0.0000039  -0.0000243   0.0000041
    2  -0.0000219   0.0001032   0.0000000   0.0000219   0.0000053  -0.0001032
    3   0.0000101   0.0000398   0.0060594   0.0000101  -0.0000272   0.0000398
 Max gradient component =       2.315E-02
 RMS gradient           =       5.186E-03
 Gradient time:  CPU 10.97 s  wall 0.92 s
 Geometry Optimization Parameters
   NAtoms,    NIC,     NZ,  NCons,   NDum,   NFix, NCnnct, MaxDiis
       12      74       0       1       0       0       0       0

 Cartesian Hessian Update
 Hessian Updated using BFGS Update


** CONSTRAINED OPTIMIZATION IN DELOCALIZED INTERNAL COORDINATES **
   Searching for a Minimum

   Optimization Cycle:   3

                       Coordinates (Angstroms)
     ATOM                X               Y               Z
      1  C        -1.8993311359    1.3027379650    0.1595080153
      2  C        -1.2390701924    0.0000000000   -0.1454145980
      3  Se        1.6604245274    0.0000000000   -0.1995926583
      4  H         0.9619916306    0.0000000000    1.0952223593
      5  C        -1.8993311359   -1.3027379650    0.1595080153
      6  H        -1.1972983220    2.1398041944    0.0888469406
      7  H        -2.7318840110    1.5222220367   -0.5321342644
      8  H        -2.3321153599    1.3005559176    1.1683234913
      9  H        -0.4838733081    0.0000000000   -0.9228014686
     10  H        -2.7318840110   -1.5222220367   -0.5321342644
     11  H        -1.1972983220   -2.1398041944    0.0888469406
     12  H        -2.3321153599   -1.3005559176    1.1683234913
   Point Group: c1    Number of degrees of freedom:    30


   Energy is  -2520.339661310

              Constraints and their Current Values
                                        Value     Constraint
   Distance(Angs):        2   3             2.900001     2.900000
 Hessian Updated using BFGS Update

   Using Lagrange Multiplier Algorithm


 18 Hessian modes will be used to form the next step
  Hessian Eigenvalues:
    -0.964126    0.036262    0.044996    0.046459    0.092271    0.093189
     0.096691    0.159812    0.160000    0.160181    0.176396    0.209701
     0.298447    0.332058    0.333560    0.339340    0.342729    1.050945

 Minimum Search - Taking P-RFO Step
 Searching for Lamda that Maximizes Along the Constraint modes Only
 Value Taken    Lamda =   0.00000033
 Searching for Lamda that Minimizes Along All other modes
 Value Taken    Lamda =  -0.00021160
 Step Taken.  Stepsize is  0.031361

                             Maximum     Tolerance    Cnvgd?
         Gradient            0.004968       0.000300      NO
         Displacement        0.021821       0.001200      NO
         Energy change     -0.000529       0.000001      NO


 New Cartesian Coordinates Obtained by Inverse Iteration

 Displacement from previous Coordinates is:  0.023202
 ----------------------------------------------------------------
             Standard Nuclear Orientation (Angstroms)
    I     Atom           X                Y                Z
 ----------------------------------------------------------------
    1      C      -1.9002463893     1.3030554502     0.1601186007
    2      C      -1.2397795766     0.0000000000    -0.1417261854
    3      Se      1.6595622071     0.0000000000    -0.2035240103
    4      H       0.9626379537     0.0000000000     1.0956464769
    5      C      -1.9002463893    -1.3030554502     0.1601186007
    6      H      -1.1980401402     2.1401402801     0.0910519962
    7      H      -2.7317484398     1.5225090055    -0.5327328589
    8      H      -2.3343918146     1.2998241838     1.1683185991
    9      H      -0.4753520165     0.0000000000    -0.9274069554
   10      H      -2.7317484398    -1.5225090055    -0.5327328589
   11      H      -1.1980401402    -2.1401402801     0.0910519962
   12      H      -2.3343918146    -1.2998241838     1.1683185991
 ----------------------------------------------------------------
 Nuclear Repulsion Energy =   219.5491908374 hartrees
 There are       31 alpha and       29 beta electrons

                       Distance Matrix (Angstroms)
             C (  1)   C (  2)   Se(  3)   H (  4)   C (  5)   H (  6)
   C (  2)  1.491737
   Se(  3)  3.808205  2.900000
   H (  4)  3.281657  2.526209  1.474296
   C (  5)  2.606111  1.491737  3.808205  3.281657
   H (  6)  1.094794  2.153167  3.582299  3.202802  3.514749
   H (  7)  1.104354  2.167231  4.659401  4.314875  3.025765  1.767155
   H (  8)  1.097707  2.145678  4.418502  3.544747  2.824877  1.777056
   H (  9)  2.216075  1.096195  2.254299  2.482048  2.216075  2.477849
   H ( 10)  3.025765  2.167231  4.659401  4.314875  1.104354  4.019499
   H ( 11)  3.514749  2.153167  3.582299  3.202802  1.094794  4.280281
   H ( 12)  2.824877  2.145678  4.418502  3.544747  1.097707  3.779571
             H (  7)   H (  8)   H (  9)   H ( 10)   H ( 11)
   H (  8)  1.760982
   H (  9)  2.750477  3.088307
   H ( 10)  3.045018  3.319192  2.750477
   H ( 11)  4.019499  3.779571  2.477849  1.767155
   H ( 12)  3.319192  2.599648  3.088307  1.760982  1.777056
 
 Applying Cartesian multipole field
    Component          Value
    ---------          -----
     (2,0,0)        1.00000E-11
     (0,2,0)        2.00000E-11
     (0,0,2)       -3.00000E-10
 Nucleus-field energy     =     0.0000000012 hartrees
 Requested basis set is 6-31G(d,p)
 There are 44 shells and 120 basis functions
 A cutoff of  1.0D-14 yielded    923 shell pairs
 There are      6833 function pairs
 Smallest overlap matrix eigenvalue = 6.78E-04
 Guess from superposition of atomic densities
 Warning:  Energy on first SCF cycle will be non-variational
 SAD guess density has 59.968191 electrons

 -----------------------------------------------------------------------
  General SCF calculation program by
  Eric Jon Sundstrom, Paul Horn, Yuezhi Mao, Dmitri Zuev, Alec White,
  David Stuck, Shaama M.S., Shane Yost, Joonho Lee, David Small,
  Daniel Levine, Susi Lehtola, Hugh Burton, Evgeny Epifanovsky
 -----------------------------------------------------------------------
 Exchange:     0.2000 Hartree-Fock + 0.0800 Slater + 0.7200 B88
 Correlation:  0.1900 VWN1RPA + 0.8100 LYP
 Using SG-1 standard quadrature grid
 using 12 threads for integral computing
 -------------------------------------------------------
 OpenMP Integral computing Module                
 Release: version 1.0, May 2013, Q-Chem Inc. Pittsburgh 
 -------------------------------------------------------
 -------------------------------------------------------
 OpenMP BLAS3 based DFT computing Module                
 Release: version 1.0, May 2013, Q-Chem Inc. Pittsburgh 
 -------------------------------------------------------
 A unrestricted SCF calculation will be
 performed using DIIS
 SCF converges when DIIS error is below 1.0e-06
 Alpha HF Exchange    Energy = -10.34140313742920
 Beta HF Exchange     Energy = -10.34140313742920
 DFT Correlation      Energy =  -3.07965519334088
 DFT Exchange         Energy = -81.98743241429042
 One-Electron (alpha) Energy = -1966.76641270003120
 One-Electron (beta)  Energy = -1966.76641270003120
 Total Coulomb        Energy = 1296.62003539105217
 ---------------------------------------
  Cycle       Energy         DIIS error
 ---------------------------------------
    1   -2523.1134930529      1.38e-01  
 Alpha HF Exchange    Energy = -10.51468930669844
 Beta HF Exchange     Energy = -10.32072593244880
 DFT Correlation      Energy =  -3.11362565885573
 DFT Exchange         Energy = -82.90166916994740
 One-Electron (alpha) Energy = -1991.42776167387660
 One-Electron (beta)  Energy = -1955.12618338638072
 Total Coulomb        Energy = 1313.63126744325768
    2   -2520.2241968463      8.86e-03  
 Alpha HF Exchange    Energy = -10.41507846928972
 Beta HF Exchange     Energy = -10.23322292819545
 DFT Correlation      Energy =  -3.07664148942608
 DFT Exchange         Energy = -82.13273570312515
 One-Electron (alpha) Energy = -1982.68395766852382
 One-Electron (beta)  Energy = -1946.88512495791588
 Total Coulomb        Energy = 1295.64779309301116
    3   -2520.2297772849      4.14e-03  
 Alpha HF Exchange    Energy = -10.49308603073066
 Beta HF Exchange     Energy = -10.30387284774444
 DFT Correlation      Energy =  -3.10335085766854
 DFT Exchange         Energy = -82.73028363805315
 One-Electron (alpha) Energy = -1989.38950140773272
 One-Electron (beta)  Energy = -1952.74655961709482
 Total Coulomb        Energy = 1308.91352477375449
    4   -2520.3039387867      2.40e-03  
 Alpha HF Exchange    Energy = -10.46774106429270
 Beta HF Exchange     Energy = -10.28033357497324
 DFT Correlation      Energy =  -3.09424597883969
 DFT Exchange         Energy = -82.53265676513786
 One-Electron (alpha) Energy = -1987.51419490155013
 One-Electron (beta)  Energy = -1951.00988982572653
 Total Coulomb        Energy = 1305.01049280897269
    5   -2520.3393784629      2.30e-04  
 Alpha HF Exchange    Energy = -10.46624696175526
 Beta HF Exchange     Energy = -10.27913386139312
 DFT Correlation      Energy =  -3.09399231886001
 DFT Exchange         Energy = -82.52221455490145
 One-Electron (alpha) Energy = -1987.27353875322160
 One-Electron (beta)  Energy = -1950.77559852850027
 Total Coulomb        Energy = 1304.52178880439146
    6   -2520.3397453356      6.84e-05  
 Alpha HF Exchange    Energy = -10.46604407027530
 Beta HF Exchange     Energy = -10.27907336488962
 DFT Correlation      Energy =  -3.09376305521935
 DFT Exchange         Energy = -82.52081219533306
 One-Electron (alpha) Energy = -1987.26592335730311
 One-Electron (beta)  Energy = -1950.76367790934250
 Total Coulomb        Energy = 1304.50032792859110
    7   -2520.3397751852      1.29e-05  
 Alpha HF Exchange    Energy = -10.46617297459279
 Beta HF Exchange     Energy = -10.27915103828372
 DFT Correlation      Energy =  -3.09377748783054
 DFT Exchange         Energy = -82.52159300572319
 One-Electron (alpha) Energy = -1987.28521538169070
 One-Electron (beta)  Energy = -1950.77394777043105
 Total Coulomb        Energy = 1304.53088957990053
    8   -2520.3397772400      6.36e-06  
 Alpha HF Exchange    Energy = -10.46615854227937
 Beta HF Exchange     Energy = -10.27916176159968
 DFT Correlation      Energy =  -3.09377133908217
 DFT Exchange         Energy = -82.52156754450603
 One-Electron (alpha) Energy = -1987.28349230148319
 One-Electron (beta)  Energy = -1950.77102157643958
 Total Coulomb        Energy = 1304.52620464886809
    9   -2520.3397775779      2.81e-06  
 Alpha HF Exchange    Energy = -10.46616578334493
 Beta HF Exchange     Energy = -10.27916885429797
 DFT Correlation      Energy =  -3.09376802195387
 DFT Exchange         Energy = -82.52161523951730
 One-Electron (alpha) Energy = -1987.28389388445430
 One-Electron (beta)  Energy = -1950.77081203524062
 Total Coulomb        Energy = 1304.52645532403585
   10   -2520.3397776562      4.01e-07  Convergence criterion met
 ---------------------------------------
 SCF time:   CPU 29.80s  wall 2.00s 
<S^2> =          2.006449298
 Alpha HF Exchange    Energy = -10.46616578334493
 Beta HF Exchange     Energy = -10.27916885429797
 DFT Correlation      Energy =  -3.09376802195387
 DFT Exchange         Energy = -82.52161523951730
 One-Electron (alpha) Energy = -1987.28389388445430
 One-Electron (beta)  Energy = -1950.77081203524062
 Total Coulomb        Energy = 1304.52645532403585
 Nuclear repulsion Energy = 219.54919083860750
 SCF   energy in the final basis set =    -2520.3397776562
 Total energy in the final basis set =    -2520.3397776562
 
 --------------------------------------------------------------
 
                    Orbital Energies (a.u.)
 --------------------------------------------------------------
 
 Alpha MOs
 -- Occupied --
******* -58.100 -52.159 -52.157 -52.153 -10.202 -10.186 -10.186
 -7.834  -5.782  -5.776  -5.764  -2.115  -2.114  -2.104  -2.101
 -2.099  -0.792  -0.701  -0.697  -0.582  -0.462  -0.437  -0.416
 -0.392  -0.383  -0.366  -0.362  -0.268  -0.244  -0.189
 -- Virtual --
  0.026   0.097   0.125   0.137   0.165   0.168   0.173   0.181
  0.210   0.237   0.261   0.278   0.302   0.305   0.466   0.472
  0.494   0.536   0.549   0.563   0.563   0.581   0.603   0.661
  0.709   0.732   0.751   0.795   0.850   0.852   0.862   0.874
  0.898   0.929   0.940   0.969   1.046   1.265   1.285   1.348
  1.396   1.536   1.546   1.676   1.804   1.807   1.860   1.882
  1.980   2.037   2.042   2.064   2.077   2.095   2.108   2.110
  2.138   2.259   2.275   2.362   2.380   2.492   2.543   2.584
  2.621   2.662   2.717   2.744   2.843   2.848   2.899   2.944
  3.151   3.195   3.339   3.416   3.439   3.449   3.491   4.176
  4.236   4.262   4.270   4.319   4.382   4.480   4.580   5.425
 89.626
 
 Beta MOs
 -- Occupied --
******* -58.099 -52.156 -52.155 -52.153 -10.187 -10.187 -10.186
 -7.831  -5.774  -5.773  -5.763  -2.109  -2.108  -2.100  -2.099
 -2.097  -0.772  -0.694  -0.668  -0.556  -0.453  -0.418  -0.409
 -0.385  -0.372  -0.357  -0.353  -0.232
 -- Virtual --
 -0.154  -0.039   0.035   0.100   0.130   0.140   0.174   0.178
  0.180   0.183   0.224   0.252   0.268   0.287   0.307   0.327
  0.486   0.497   0.512   0.547   0.570   0.576   0.576   0.616
  0.618   0.667   0.735   0.736   0.762   0.811   0.856   0.861
  0.877   0.878   0.912   0.938   0.944   0.978   1.054   1.283
  1.295   1.354   1.424   1.536   1.562   1.687   1.819   1.826
  1.886   1.909   2.004   2.043   2.048   2.068   2.075   2.101
  2.112   2.113   2.149   2.276   2.279   2.365   2.391   2.513
  2.560   2.593   2.628   2.668   2.721   2.750   2.850   2.854
  2.908   2.951   3.157   3.201   3.348   3.419   3.443   3.453
  3.498   4.199   4.247   4.274   4.274   4.332   4.388   4.480
  4.595   5.440  89.631
 --------------------------------------------------------------
 
          Ground-State Mulliken Net Atomic Charges

     Atom                 Charge (a.u.)    Spin (a.u.)
  --------------------------------------------------------
      1 C                    -0.335864      -0.072780
      2 C                    -0.099747       1.048850
      3 Se                   -0.121942       0.968409
      4 H                     0.079235      -0.026484
      5 C                    -0.335864      -0.072780
      6 H                     0.124212       0.010947
      7 H                     0.116158       0.064092
      8 H                     0.113303       0.021473
      9 H                     0.106836      -0.038239
     10 H                     0.116158       0.064092
     11 H                     0.124212       0.010947
     12 H                     0.113303       0.021473
  --------------------------------------------------------
  Sum of atomic charges =    -0.000000
  Sum of spin   charges =     2.000000

 -----------------------------------------------------------------
                    Cartesian Multipole Moments
 -----------------------------------------------------------------
    Charge (ESU x 10^10)
                 0.0000
    Dipole Moment (Debye)
         X      -1.5390      Y       0.0000      Z       0.5171
       Tot       1.6236
    Quadrupole Moments (Debye-Ang)
        XX     -39.5142     XY       0.0000     YY     -41.2290
        XZ       0.5291     YZ      -0.0000     ZZ     -38.0895
    Octopole Moments (Debye-Ang^2)
       XXX       9.9359    XXY      -0.0000    XYY      -0.4718
       YYY       0.0000    XXZ       2.5832    XYZ      -0.0000
       YYZ       1.9232    XZZ       5.6011    YZZ      -0.0000
       ZZZ       5.4025
    Hexadecapole Moments (Debye-Ang^3)
      XXXX    -740.4029   XXXY       0.0000   XXYY    -171.1625
      XYYY       0.0000   YYYY    -233.0709   XXXZ      29.2157
      XXYZ       0.0000   XYYZ      10.9644   YYYZ       0.0000
      XXZZ    -130.7190   XYZZ       0.0000   YYZZ     -52.4470
      XZZZ      24.9179   YZZZ       0.0000   ZZZZ     -71.7862
 -----------------------------------------------------------------
 Calculating analytic gradient of the SCF energy
 Gradient of SCF Energy
            1           2           3           4           5           6
    1   0.0000409   0.0176110  -0.0168763  -0.0001811   0.0000409  -0.0000132
    2  -0.0000481  -0.0000000  -0.0000000  -0.0000000   0.0000481   0.0000578
    3   0.0003299  -0.0013173   0.0003249  -0.0002203   0.0003299  -0.0000322
            7           8           9          10          11          12
    1  -0.0000227   0.0000646  -0.0006927  -0.0000227  -0.0000132   0.0000646
    2   0.0000205  -0.0000164   0.0000000  -0.0000205  -0.0000578   0.0000164
    3   0.0000339   0.0000008   0.0005476   0.0000339  -0.0000322   0.0000008
 Max gradient component =       1.761E-02
 RMS gradient           =       4.075E-03
 Gradient time:  CPU 10.77 s  wall 0.90 s
 Geometry Optimization Parameters
   NAtoms,    NIC,     NZ,  NCons,   NDum,   NFix, NCnnct, MaxDiis
       12      74       0       1       0       0       0       0

 Cartesian Hessian Update
 Hessian Updated using BFGS Update


** CONSTRAINED OPTIMIZATION IN DELOCALIZED INTERNAL COORDINATES **
   Searching for a Minimum

   Optimization Cycle:   4

                       Coordinates (Angstroms)
     ATOM                X               Y               Z
      1  C        -1.9002463893    1.3030554502    0.1601186007
      2  C        -1.2397795766    0.0000000000   -0.1417261854
      3  Se        1.6595622071    0.0000000000   -0.2035240103
      4  H         0.9626379537    0.0000000000    1.0956464769
      5  C        -1.9002463893   -1.3030554502    0.1601186007
      6  H        -1.1980401402    2.1401402801    0.0910519962
      7  H        -2.7317484398    1.5225090055   -0.5327328589
      8  H        -2.3343918146    1.2998241838    1.1683185991
      9  H        -0.4753520165    0.0000000000   -0.9274069554
     10  H        -2.7317484398   -1.5225090055   -0.5327328589
     11  H        -1.1980401402   -2.1401402801    0.0910519962
     12  H        -2.3343918146   -1.2998241838    1.1683185991
   Point Group: c1    Number of degrees of freedom:    30


   Energy is  -2520.339777656

              Constraints and their Current Values
                                        Value     Constraint
   Distance(Angs):        2   3             2.900000     2.900000
 Hessian Updated using BFGS Update

 16 Hessian modes will be used to form the next step
  Hessian Eigenvalues:
     0.036354    0.044979    0.045584    0.088542    0.092898    0.093199
     0.159814    0.160025    0.160702    0.178564    0.207772    0.293738
     0.332076    0.333847    0.339491    0.342861

 Minimum Search - Taking Simple RFO Step
 Searching for Lamda that Minimizes Along All modes
 Value Taken    Lamda =  -0.00000700
 Step Taken.  Stepsize is  0.009584

                             Maximum     Tolerance    Cnvgd?
         Gradient           0.000529      0.000300      NO
         Displacement       0.005221      0.001200      NO
         Energy change     -0.000116      0.000001      NO


 New Cartesian Coordinates Obtained by Inverse Iteration

 Displacement from previous Coordinates is:  0.013643
 ----------------------------------------------------------------
             Standard Nuclear Orientation (Angstroms)
    I     Atom           X                Y                Z
 ----------------------------------------------------------------
    1      C      -1.9008966664     1.3032208058     0.1602518771
    2      C      -1.2399539955     0.0000000000    -0.1394853904
    3      Se      1.6592855695     0.0000000000    -0.2059059788
    4      H       0.9673927635     0.0000000000     1.0959757094
    5      C      -1.9008966664    -1.3032208058     0.1602518771
    6      H      -1.1983102517     2.1399459800     0.0917587798
    7      H      -2.7314359070     1.5221770687    -0.5338521862
    8      H      -2.3364861508     1.3007974073     1.1679257485
    9      H      -0.4742513857     0.0000000000    -0.9262507788
   10      H      -2.7314359070    -1.5221770687    -0.5338521862
   11      H      -1.1983102517    -2.1399459800     0.0917587798
   12      H      -2.3364861508    -1.3007974073     1.1679257485
 ----------------------------------------------------------------
 Nuclear Repulsion Energy =   219.5327366709 hartrees
 There are       31 alpha and       29 beta electrons

                       Distance Matrix (Angstroms)
             C (  1)   C (  2)   Se(  3)   H (  4)   C (  5)   H (  6)
   C (  2)  1.491668
   Se(  3)  3.808852  2.900000
   H (  4)  3.286495  2.529574  1.474317
   C (  5)  2.606442  1.491668  3.808852  3.286495
   H (  6)  1.094727  2.152807  3.582433  3.205946  3.514785
   H (  7)  1.104318  2.167272  4.658649  4.319108  3.025632  1.767343
   H (  8)  1.097794  2.145642  4.421050  3.551460  2.825961  1.777006
   H (  9)  2.216797  1.097862  2.251861  2.483493  2.216797  2.477897
   H ( 10)  3.025632  2.167272  4.658649  4.319108  1.104318  4.019081
   H ( 11)  3.514785  2.152807  3.582433  3.205946  1.094727  4.279892
   H ( 12)  2.825961  2.145642  4.421050  3.551460  1.097794  3.780515
             H (  7)   H (  8)   H (  9)   H ( 10)   H ( 11)
   H (  8)  1.760978
   H (  9)  2.750615  3.089590
   H ( 10)  3.044354  3.319822  2.750615
   H ( 11)  4.019081  3.780515  2.477897  1.767343
   H ( 12)  3.319822  2.601595  3.089590  1.760978  1.777006
 
 Applying Cartesian multipole field
    Component          Value
    ---------          -----
     (2,0,0)        1.00000E-11
     (0,2,0)        2.00000E-11
     (0,0,2)       -3.00000E-10
 Nucleus-field energy     =     0.0000000012 hartrees
 Requested basis set is 6-31G(d,p)
 There are 44 shells and 120 basis functions
 A cutoff of  1.0D-14 yielded    923 shell pairs
 There are      6833 function pairs
 Smallest overlap matrix eigenvalue = 6.78E-04
 Guess from superposition of atomic densities
 Warning:  Energy on first SCF cycle will be non-variational
 SAD guess density has 59.968191 electrons

 -----------------------------------------------------------------------
  General SCF calculation program by
  Eric Jon Sundstrom, Paul Horn, Yuezhi Mao, Dmitri Zuev, Alec White,
  David Stuck, Shaama M.S., Shane Yost, Joonho Lee, David Small,
  Daniel Levine, Susi Lehtola, Hugh Burton, Evgeny Epifanovsky
 -----------------------------------------------------------------------
 Exchange:     0.2000 Hartree-Fock + 0.0800 Slater + 0.7200 B88
 Correlation:  0.1900 VWN1RPA + 0.8100 LYP
 Using SG-1 standard quadrature grid
 using 12 threads for integral computing
 -------------------------------------------------------
 OpenMP Integral computing Module                
 Release: version 1.0, May 2013, Q-Chem Inc. Pittsburgh 
 -------------------------------------------------------
 -------------------------------------------------------
 OpenMP BLAS3 based DFT computing Module                
 Release: version 1.0, May 2013, Q-Chem Inc. Pittsburgh 
 -------------------------------------------------------
 A unrestricted SCF calculation will be
 performed using DIIS
 SCF converges when DIIS error is below 1.0e-06
 Alpha HF Exchange    Energy = -10.34133915905467
 Beta HF Exchange     Energy = -10.34133915905467
 DFT Correlation      Energy =  -3.07963871684861
 DFT Exchange         Energy = -81.98728880158708
 One-Electron (alpha) Energy = -1966.75068734104207
 One-Electron (beta)  Energy = -1966.75068734104207
 Total Coulomb        Energy = 1296.60510211820019
 ---------------------------------------
  Cycle       Energy         DIIS error
 ---------------------------------------
    1   -2523.1131417283      1.38e-01  
 Alpha HF Exchange    Energy = -10.51463008674598
 Beta HF Exchange     Energy = -10.32061920909419
 DFT Correlation      Energy =  -3.11361007964911
 DFT Exchange         Energy = -82.90114033061764
 One-Electron (alpha) Energy = -1991.40920129092297
 One-Electron (beta)  Energy = -1955.11763580747152
 Total Coulomb        Energy = 1313.61987903507998
    2   -2520.2242210973      8.86e-03  
 Alpha HF Exchange    Energy = -10.41504044742772
 Beta HF Exchange     Energy = -10.23313879587520
 DFT Correlation      Energy =  -3.07662626724351
 DFT Exchange         Energy = -82.13234248137196
 One-Electron (alpha) Energy = -1982.66303266486352
 One-Electron (beta)  Energy = -1946.87123896429966
 Total Coulomb        Energy = 1295.62881873865717
    3   -2520.2298642103      4.13e-03  
 Alpha HF Exchange    Energy = -10.49304858195720
 Beta HF Exchange     Energy = -10.30379996888419
 DFT Correlation      Energy =  -3.10333181779300
 DFT Exchange         Energy = -82.72992355501674
 One-Electron (alpha) Energy = -1989.37233392113876
 One-Electron (beta)  Energy = -1952.73530748858161
 Total Coulomb        Energy = 1308.90102918174534
    4   -2520.3039794795      2.40e-03  
 Alpha HF Exchange    Energy = -10.46769762712346
 Beta HF Exchange     Energy = -10.28024677823498
 DFT Correlation      Energy =  -3.09422864356264
 DFT Exchange         Energy = -82.53223199665845
 One-Electron (alpha) Energy = -1987.49581583635131
 One-Electron (beta)  Energy = -1950.99801743880812
 Total Coulomb        Energy = 1304.99611917674156
    5   -2520.3393824718      2.30e-04  
 Alpha HF Exchange    Energy = -10.46620641670911
 Beta HF Exchange     Energy = -10.27905148754411
 DFT Correlation      Energy =  -3.09397510581489
 DFT Exchange         Energy = -82.52181528063493
 One-Electron (alpha) Energy = -1987.25515108210539
 One-Electron (beta)  Energy = -1950.76337259316529
 Total Coulomb        Energy = 1304.50708477617445
    6   -2520.3397505177      6.85e-05  
 Alpha HF Exchange    Energy = -10.46600246524462
 Beta HF Exchange     Energy = -10.27899027313869
 DFT Correlation      Energy =  -3.09374528060104
 DFT Exchange         Energy = -82.52040525093216
 One-Electron (alpha) Energy = -1987.24744719823025
 One-Electron (beta)  Energy = -1950.75135916416616
[...]
         Gradient           0.000080      0.000300     YES
         Displacement       0.003786      0.001200      NO
         Energy change     -0.000001      0.000001      NO


 New Cartesian Coordinates Obtained by Inverse Iteration

 Displacement from previous Coordinates is:  0.003656
 ----------------------------------------------------------------
             Standard Nuclear Orientation (Angstroms)
    I     Atom           X                Y                Z
 ----------------------------------------------------------------
    1      C      -1.9220167389     1.3034342202     0.1633030959
    2      C      -1.2453161355    -0.0000000045    -0.0974884405
    3      Se      1.6489828555    -0.0000000067    -0.2792440481
    4      H       1.1561432077     0.0000000382     1.1050824132
    5      C      -1.9220167501    -1.3034342208     0.1633030887
    6      H      -1.2193288575     2.1416780156     0.1214368951
    7      H      -2.7192679292     1.5138563803    -0.5711815545
    8      H      -2.4040974381     1.3064441039     1.1495235699
    9      H      -0.4521729516    -0.0000000160    -0.8580119028
   10      H      -2.7192679396    -1.5138563808    -0.5711815619
   11      H      -1.2193288732    -2.1416780200     0.1214368858
   12      H      -2.4040974498    -1.3064441125     1.1495235593
 ----------------------------------------------------------------
 Nuclear Repulsion Energy =   219.2115039671 hartrees
 There are       31 alpha and       29 beta electrons

                       Distance Matrix (Angstroms)
             C (  1)   C (  2)   Se(  3)   H (  4)   C (  5)   H (  6)
   C (  2)  1.491602
   Se(  3)  3.827117  2.900000
   H (  4)  3.472889  2.685737  1.469439
   C (  5)  2.606868  1.491602  3.827117  3.472889
   H (  6)  1.094612  2.152995  3.602019  3.346223  3.516294
   H (  7)  1.104244  2.165336  4.632343  4.485581  3.018643  1.767399
   H (  8)  1.097744  2.145835  4.491729  3.792636  2.831342  1.777148
   H (  9)  2.214151  1.098850  2.179410  2.537798  2.214151  2.476819
   H ( 10)  3.018643  2.165336  4.632343  4.485581  1.104244  4.011542
   H ( 11)  3.516294  2.152995  3.602019  3.346223  1.094612  4.283356
   H ( 12)  2.831342  2.145835  4.491729  3.792636  1.097744  3.788164
             H (  7)   H (  8)   H (  9)   H ( 10)   H ( 11)
   H (  8)  1.761584
   H (  9)  2.741122  3.089823
   H ( 10)  3.027713  3.318773  2.741122
   H ( 11)  4.011542  3.788164  2.476819  1.767399
   H ( 12)  3.318773  2.612888  3.089823  1.761584  1.777148
 
 Applying Cartesian multipole field
    Component          Value
    ---------          -----
     (2,0,0)        1.00000E-11
     (0,2,0)        2.00000E-11
     (0,0,2)       -3.00000E-10
 Requested basis set is 6-31G(d,p)
 There are 44 shells and 120 basis functions
 A cutoff of  1.0D-14 yielded    919 shell pairs
 There are      6819 function pairs
 Smallest overlap matrix eigenvalue = 6.78E-04
 Guess from superposition of atomic densities
 Warning:  Energy on first SCF cycle will be non-variational
 SAD guess density has 59.968191 electrons

 -----------------------------------------------------------------------
  General SCF calculation program by
  Eric Jon Sundstrom, Paul Horn, Yuezhi Mao, Dmitri Zuev, Alec White,
  David Stuck, Shaama M.S., Shane Yost, Joonho Lee, David Small,
  Daniel Levine, Susi Lehtola, Hugh Burton, Evgeny Epifanovsky
 -----------------------------------------------------------------------
 Exchange:     0.2000 Hartree-Fock + 0.0800 Slater + 0.7200 B88
 Correlation:  0.1900 VWN1RPA + 0.8100 LYP
 Using SG-1 standard quadrature grid
 using 12 threads for integral computing
 -------------------------------------------------------
 OpenMP Integral computing Module                
 Release: version 1.0, May 2013, Q-Chem Inc. Pittsburgh 
 -------------------------------------------------------
 -------------------------------------------------------
 OpenMP BLAS3 based DFT computing Module                
 Release: version 1.0, May 2013, Q-Chem Inc. Pittsburgh 
 -------------------------------------------------------
 A unrestricted SCF calculation will be
 performed using DIIS
 SCF converges when DIIS error is below 1.0e-06
 Alpha HF Exchange    Energy = -10.34201427671684
 Beta HF Exchange     Energy = -10.34201427671684
 DFT Correlation      Energy =  -3.07964114593298
 DFT Exchange         Energy = -81.98905578691432
 One-Electron (alpha) Energy = -1966.42606502541071
 One-Electron (beta)  Energy = -1966.42606502541071
 Total Coulomb        Energy = 1296.27334874188364
 ---------------------------------------
  Cycle       Energy         DIIS error
 ---------------------------------------
    1   -2523.1200028280      1.38e-01  
 Alpha HF Exchange    Energy = -10.51502655407016
 Beta HF Exchange     Energy = -10.32014660638278
 DFT Correlation      Energy =  -3.11370148183004
 DFT Exchange         Energy = -82.90162076599890
 One-Electron (alpha) Energy = -1991.02136423883780
 One-Electron (beta)  Energy = -1954.91386614440830
 Total Coulomb        Energy = 1313.34947106950494
    2   -2520.2247507548      8.85e-03  
 Alpha HF Exchange    Energy = -10.41555845873627
 Beta HF Exchange     Energy = -10.23286795158576
 DFT Correlation      Energy =  -3.07675230969521
 DFT Exchange         Energy = -82.13405424652687
 One-Electron (alpha) Energy = -1982.25097604187977
 One-Electron (beta)  Energy = -1946.62686963963642
 Total Coulomb        Energy = 1295.29482836660577
    3   -2520.2307463142      4.13e-03  
 Alpha HF Exchange    Energy = -10.49346775842602
 Beta HF Exchange     Energy = -10.30358447145809
 DFT Correlation      Energy =  -3.10340650958213
 DFT Exchange         Energy = -82.73119475791881
 One-Electron (alpha) Energy = -1988.99745782412583
 One-Electron (beta)  Energy = -1952.50637242006815
 Total Coulomb        Energy = 1308.61963013562990
    4   -2520.3043496387      2.40e-03  
 Alpha HF Exchange    Energy = -10.46810863135293
 Beta HF Exchange     Energy = -10.27992785233283
 DFT Correlation      Energy =  -3.09432850700212
 DFT Exchange         Energy = -82.53326228031970
 One-Electron (alpha) Energy = -1987.10558496139652
 One-Electron (beta)  Energy = -1950.76746657499825
 Total Coulomb        Energy = 1304.69764245329270
    5   -2520.3395323869      2.29e-04  
 Alpha HF Exchange    Energy = -10.46662218100150
 Beta HF Exchange     Energy = -10.27877207834425
 DFT Correlation      Energy =  -3.09407050811096
 DFT Exchange         Energy = -82.52297756737794
 One-Electron (alpha) Energy = -1986.86483927873473
 One-Electron (beta)  Energy = -1950.52745971218246
 Total Coulomb        Energy = 1304.20333723243266
    6   -2520.3399001261      6.92e-05  
 Alpha HF Exchange    Energy = -10.46641682952571
 Beta HF Exchange     Energy = -10.27871037214320
 DFT Correlation      Energy =  -3.09384003224530
 DFT Exchange         Energy = -82.52155912639869
 One-Electron (alpha) Energy = -1986.85763198036534
 One-Electron (beta)  Energy = -1950.51641779713577
 Total Coulomb        Energy = 1304.18314154160248
    7   -2520.3399306290      1.30e-05  
 Alpha HF Exchange    Energy = -10.46654339556019
 Beta HF Exchange     Energy = -10.27878749013644
 DFT Correlation      Energy =  -3.09385425753158
 DFT Exchange         Energy = -82.52232965939699
 One-Electron (alpha) Energy = -1986.87685023458585
 One-Electron (beta)  Energy = -1950.52664737894997
 Total Coulomb        Energy = 1304.21357576154833
    8   -2520.3399326874      6.33e-06  
 Alpha HF Exchange    Energy = -10.46652858492392
 Beta HF Exchange     Energy = -10.27879867453955
 DFT Correlation      Energy =  -3.09384812381027
 DFT Exchange         Energy = -82.52230413449291
 One-Electron (alpha) Energy = -1986.87513645223021
 One-Electron (beta)  Energy = -1950.52378078280276
 Total Coulomb        Energy = 1304.20895976579391
    9   -2520.3399330198      2.80e-06  
 Alpha HF Exchange    Energy = -10.46653589657361
 Beta HF Exchange     Energy = -10.27880635567220
 DFT Correlation      Energy =  -3.09384493369569
 DFT Exchange         Energy = -82.52235434743839
 One-Electron (alpha) Energy = -1986.87558797961492
 One-Electron (beta)  Energy = -1950.52360212108647
 Total Coulomb        Energy = 1304.20929456998033
   10   -2520.3399330969      4.01e-07  Convergence criterion met
 ---------------------------------------
 SCF time:   CPU 28.68s  wall 3.00s 
<S^2> =          2.006469660
 Alpha HF Exchange    Energy = -10.46653589657361
 Beta HF Exchange     Energy = -10.27880635567220
 DFT Correlation      Energy =  -3.09384493369569
 DFT Exchange         Energy = -82.52235434743839
 One-Electron (alpha) Energy = -1986.87558797961492
 One-Electron (beta)  Energy = -1950.52360212108647
 Total Coulomb        Energy = 1304.20929456998033
 Nuclear repulsion Energy = 219.21150396722678
 SCF   energy in the final basis set =    -2520.3399330969
 Total energy in the final basis set =    -2520.3399330969
 
 --------------------------------------------------------------
 
                    Orbital Energies (a.u.)
 --------------------------------------------------------------
 
 Alpha MOs
 -- Occupied --
******* -58.099 -52.158 -52.156 -52.152 -10.203 -10.186 -10.186
 -7.833  -5.780  -5.775  -5.763  -2.114  -2.112  -2.103  -2.099
 -2.098  -0.793  -0.701  -0.698  -0.583  -0.463  -0.437  -0.416
 -0.392  -0.385  -0.366  -0.362  -0.264  -0.244  -0.192
 -- Virtual --
  0.028   0.097   0.128   0.137   0.165   0.168   0.173   0.181
  0.212   0.235   0.261   0.277   0.302   0.306   0.464   0.473
  0.493   0.536   0.550   0.566   0.567   0.592   0.598   0.657
  0.711   0.732   0.753   0.791   0.848   0.851   0.861   0.873
  0.901   0.926   0.939   0.976   1.039   1.263   1.286   1.347
  1.401   1.538   1.547   1.670   1.801   1.810   1.861   1.882
  1.987   2.037   2.041   2.062   2.080   2.094   2.097   2.108
  2.127   2.259   2.275   2.359   2.375   2.486   2.544   2.595
  2.611   2.660   2.716   2.740   2.844   2.847   2.898   2.942
  3.151   3.195   3.335   3.416   3.440   3.448   3.486   4.168
  4.239   4.270   4.275   4.326   4.385   4.480   4.576   5.429
 89.633
 
 Beta MOs
 -- Occupied --
******* -58.098 -52.155 -52.154 -52.152 -10.187 -10.187 -10.187
 -7.830  -5.773  -5.772  -5.762  -2.108  -2.107  -2.098  -2.098
 -2.096  -0.773  -0.695  -0.669  -0.556  -0.453  -0.418  -0.409
 -0.386  -0.374  -0.358  -0.352  -0.231
 -- Virtual --
 -0.151  -0.040   0.036   0.100   0.133   0.140   0.173   0.177
  0.182   0.183   0.226   0.252   0.268   0.287   0.306   0.326
  0.488   0.497   0.511   0.546   0.572   0.576   0.578   0.613
  0.628   0.662   0.736   0.737   0.764   0.808   0.857   0.862
  0.874   0.877   0.914   0.934   0.943   0.986   1.047   1.281
  1.296   1.353   1.430   1.538   1.562   1.681   1.818   1.829
  1.887   1.909   2.014   2.042   2.047   2.067   2.078   2.100
  2.101   2.111   2.137   2.275   2.278   2.362   2.386   2.508
  2.562   2.604   2.619   2.666   2.720   2.746   2.852   2.854
  2.907   2.949   3.156   3.201   3.344   3.419   3.445   3.453
  3.493   4.191   4.250   4.273   4.286   4.338   4.392   4.479
  4.590   5.443  89.638
 --------------------------------------------------------------
 
          Ground-State Mulliken Net Atomic Charges

     Atom                 Charge (a.u.)    Spin (a.u.)
  --------------------------------------------------------
      1 C                    -0.337502      -0.071766
      2 C                    -0.090596       1.065047
      3 Se                   -0.127765       0.947194
      4 H                     0.077309      -0.023872
      5 C                    -0.337502      -0.071766
      6 H                     0.124892       0.010851
      7 H                     0.116355       0.064329
      8 H                     0.114256       0.022114
      9 H                     0.105053      -0.039424
     10 H                     0.116355       0.064329
     11 H                     0.124892       0.010851
     12 H                     0.114256       0.022114
  --------------------------------------------------------
  Sum of atomic charges =    -0.000000
  Sum of spin   charges =     2.000000

 -----------------------------------------------------------------
                    Cartesian Multipole Moments
 -----------------------------------------------------------------
    Charge (ESU x 10^10)
                -0.0000
    Dipole Moment (Debye)
         X      -1.5597      Y       0.0000      Z       0.5717
       Tot       1.6612
    Quadrupole Moments (Debye-Ang)
        XX     -39.3098     XY       0.0000     YY     -41.1855
        XZ       0.7935     YZ       0.0000     ZZ     -38.1269
    Octopole Moments (Debye-Ang^2)
       XXX      10.6017    XXY       0.0000    XYY      -0.1671
       YYY       0.0000    XXZ       4.2707    XYZ       0.0000
       YYZ       3.3108    XZZ       5.9352    YZZ       0.0000
       ZZZ       8.4317
    Hexadecapole Moments (Debye-Ang^3)
      XXXX    -747.3949   XXXY      -0.0000   XXYY    -172.1419
      XYYY       0.0000   YYYY    -232.8422   XXXZ      36.8853
      XXYZ       0.0000   XYYZ      13.6709   YYYZ      -0.0000
      XXZZ    -131.7379   XYZZ      -0.0000   YYZZ     -53.0104
      XZZZ      32.3493   YZZZ      -0.0000   ZZZZ     -74.6692
 -----------------------------------------------------------------
 Calculating analytic gradient of the SCF energy
 Gradient of SCF Energy
            1           2           3           4           5           6
    1   0.0000249   0.0170962  -0.0171481   0.0000218   0.0000249   0.0000040
    2  -0.0000029  -0.0000000   0.0000000  -0.0000000   0.0000029  -0.0000024
    3   0.0000344  -0.0011079   0.0009906   0.0000979   0.0000344   0.0000108
            7           8           9          10          11          12
    1  -0.0000019   0.0000004  -0.0000247  -0.0000019   0.0000040   0.0000004
    2   0.0000075  -0.0000022  -0.0000000  -0.0000075   0.0000024   0.0000022
    3   0.0000114   0.0000094  -0.0001124   0.0000114   0.0000108   0.0000094
 Max gradient component =       1.715E-02
 RMS gradient           =       4.043E-03
 Gradient time:  CPU 10.83 s  wall 0.91 s
 Geometry Optimization Parameters
   NAtoms,    NIC,     NZ,  NCons,   NDum,   NFix, NCnnct, MaxDiis
       12      74       0       1       0       0       0       0

 Cartesian Hessian Update
 Hessian Updated using BFGS Update


** CONSTRAINED OPTIMIZATION IN DELOCALIZED INTERNAL COORDINATES **
   Searching for a Minimum

   Optimization Cycle:  18

                       Coordinates (Angstroms)
     ATOM                X               Y               Z
      1  C        -1.9220167389    1.3034342202    0.1633030959
      2  C        -1.2453161355    0.0000000000   -0.0974884405
      3  Se        1.6489828555   -0.0000000067   -0.2792440481
      4  H         1.1561432077    0.0000000382    1.1050824132
      5  C        -1.9220167501   -1.3034342208    0.1633030887
      6  H        -1.2193288575    2.1416780156    0.1214368951
      7  H        -2.7192679292    1.5138563803   -0.5711815545
      8  H        -2.4040974381    1.3064441039    1.1495235699
      9  H        -0.4521729516   -0.0000000160   -0.8580119028
     10  H        -2.7192679396   -1.5138563808   -0.5711815619
     11  H        -1.2193288732   -2.1416780200    0.1214368858
     12  H        -2.4040974498   -1.3064441125    1.1495235593
   Point Group: c1    Number of degrees of freedom:    30


   Energy is  -2520.339933097

              Constraints and their Current Values
                                        Value     Constraint
   Distance(Angs):        2   3             2.900000     2.900000
 Hessian Updated using BFGS Update

 16 Hessian modes will be used to form the next step
  Hessian Eigenvalues:
     0.004735    0.011826    0.012940    0.044295    0.092983    0.093743
     0.159108    0.160189    0.161477    0.213778    0.225371    0.331966
     0.333092    0.339128    0.342678    0.469302

 Minimum Search - Taking Simple RFO Step
 Searching for Lamda that Minimizes Along All modes
 Value Taken    Lamda =   0.00000000
 Step Taken.  Stepsize is  0.009716

                             Maximum     Tolerance    Cnvgd?
         Gradient           0.000095      0.000300     YES
         Displacement       0.006778      0.001200      NO
         Energy change     -0.000000      0.000001     YES


                       Distance Matrix (Angstroms)
             C (  1)   C (  2)   Se(  3)   H (  4)   C (  5)   H (  6)
   C (  2)  1.491602
   Se(  3)  3.827117  2.900000
   H (  4)  3.472889  2.685737  1.469439
   C (  5)  2.606868  1.491602  3.827117  3.472889
   H (  6)  1.094612  2.152995  3.602019  3.346223  3.516294
   H (  7)  1.104244  2.165336  4.632343  4.485581  3.018643  1.767399
   H (  8)  1.097744  2.145835  4.491729  3.792636  2.831342  1.777148
   H (  9)  2.214151  1.098850  2.179410  2.537798  2.214151  2.476819
   H ( 10)  3.018643  2.165336  4.632343  4.485581  1.104244  4.011542
   H ( 11)  3.516294  2.152995  3.602019  3.346223  1.094612  4.283356
   H ( 12)  2.831342  2.145835  4.491729  3.792636  1.097744  3.788164
             H (  7)   H (  8)   H (  9)   H ( 10)   H ( 11)
   H (  8)  1.761584
   H (  9)  2.741122  3.089823
   H ( 10)  3.027713  3.318773  2.741122
   H ( 11)  4.011542  3.788164  2.476819  1.767399
   H ( 12)  3.318773  2.612888  3.089823  1.761584  1.777148
 
 Final energy is   -2520.33993309687     


 ******************************
 **  OPTIMIZATION CONVERGED  **
 ******************************

                       Coordinates (Angstroms)
     ATOM                X               Y               Z
      1  C        -1.9220167389    1.3034342202    0.1633030959
      2  C        -1.2453161355    0.0000000000   -0.0974884405
      3  Se        1.6489828555   -0.0000000067   -0.2792440481
      4  H         1.1561432077    0.0000000382    1.1050824132
      5  C        -1.9220167501   -1.3034342208    0.1633030887
      6  H        -1.2193288575    2.1416780156    0.1214368951
      7  H        -2.7192679292    1.5138563803   -0.5711815545
      8  H        -2.4040974381    1.3064441039    1.1495235699
      9  H        -0.4521729516   -0.0000000160   -0.8580119028
     10  H        -2.7192679396   -1.5138563808   -0.5711815619
     11  H        -1.2193288732   -2.1416780200    0.1214368858
     12  H        -2.4040974498   -1.3064441125    1.1495235593

Z-matrix Print:
$molecule
0 3
Se
H  1 1.469439
H  1 2.179410 2 85.803889
C  3 1.098850 1 120.802434 2 -0.000000 0
C  4 1.491602 3 116.645365 1 -102.128591 0
H  5 1.094612 4 111.793430 3 37.736607 0
H  5 1.097744 4 111.020797 3 158.809999 0
H  5 1.104244 4 112.195706 3 -82.456285 0
C  4 1.491602 3 116.645366 1 102.128589 0
H  9 1.094612 4 111.793431 3 -37.736607 0
H  9 1.097744 4 111.020796 3 -158.810000 0
H  9 1.104244 4 112.195705 3 82.456285 0
$end

PES scan, value:    2.9000 energy: -2520.3399330969
------- Summary of potential scan: ------ 
    2.9000     -2520.3399330969
----------------------------------------- 
Archival summary:
1\1\hpc0248\JobtypUnspecified\ProcedureUnspecified\6-31G**\e138(3)\knomura\WedMar1315:42:282019WedMar1315:42:282019\0\\#,JobtypUnspecified,ProcedureUnspecified,6-31G**,\\0,3\Se\H,1,1.46944\H,1,2.17941,2,85.8039\C,3,1.09885,1,120.802,2,-0,0\C,4,1.4916,3,116.645,1,-102.129,0\H,5,1.09461,4,111.793,3,37.7366,0\H,5,1.09774,4,111.021,3,158.81,0\H,5,1.10424,4,112.196,3,-82.4563,0\C,4,1.4916,3,116.645,1,102.129,0\H,9,1.09461,4,111.793,3,-37.7366,0\H,9,1.09774,4,111.021,3,-158.81,0\H,9,1.10424,4,112.196,3,82.4563,0\\\@

 Total job time:  68.92s(wall), 804.14s(cpu) 
 Wed Mar 13 15:42:28 2019

        *************************************************************
        *                                                           *
        *  Thank you very much for using Q-Chem.  Have a nice day.  *
        *                                                           *
        *************************************************************


