
Running Job 1 of 1 halogens/Flourine/04/F_1_4.xyz.data/inputs/bond_singlet_1.9.in
qchem halogens/Flourine/04/F_1_4.xyz.data/inputs/bond_singlet_1.9.in_7833.0 /staging/scratch/2868761/qchem7833/ 1
/usr/usc/qchem/5.1.1/exe/qcprog.exe_s halogens/Flourine/04/F_1_4.xyz.data/inputs/bond_singlet_1.9.in_7833.0 /staging/scratch/2868761/qchem7833/
Check license passed

                  Welcome to Q-Chem
     A Quantum Leap Into The Future Of Chemistry


 Q-Chem 5.1, Q-Chem, Inc., Pleasanton, CA (2018)

 Yihan Shao,  Zhengting Gan,  E. Epifanovsky,  A. T. B. Gilbert,  M. Wormit,  
 J. Kussmann,  A. W. Lange,  A. Behn,  Jia Deng,  Xintian Feng,  D. Ghosh,  
 M. Goldey,  P. R. Horn,  L. D. Jacobson,  I. Kaliman,  T. Kus,  A. Landau,  
 Jie Liu,  E. I. Proynov,  R. M. Richard,  R. P. Steele,  E. J. Sundstrom,  
 H. L. Woodcock III,  P. M. Zimmerman,  D. Zuev,  B. Albrecht,  E. Alguire,  
 S. A. Baeppler,  D. Barton,  Z. Benda,  Y. A. Bernard,  E. J. Berquist,  
 K. B. Bravaya,  H. Burton,  D. Casanova,  Chun-Min Chang,  Yunqing Chen,  
 A. Chien,  K. D. Closser,  M. P. Coons,  S. Coriani,  S. Dasgupta,  
 A. L. Dempwolff,  M. Diedenhofen,  Hainam Do,  R. G. Edgar,  Po-Tung Fang,  
 S. Faraji,  S. Fatehi,  Qingguo Feng,  K. D. Fenk,  J. Fosso-Tande,  
 Qinghui Ge,  A. Ghysels,  G. Gidofalvi,  J. Gomes,  J. Gonthier,  A. Gunina,  
 D. Hait,  M. W. D. Hanson-Heine,  P. H. P. Harbach,  A. W. Hauser,  
 J. E. Herr,  E. G. Hohenstein,  Z. C. Holden,  Kerwin Hui,  B. C. Huynh,  
 T.-C. Jagau,  Hyunjun Ji,  B. Kaduk,  K. Khistyaev,  Jaehoon Kim,  
 P. Klunzinger,  K. Koh,  D. Kosenkov,  L. Koulias,  T. Kowalczyk,  
 C. M. Krauter,  A. Kunitsa,  Ka Un Lao,  A. Laurent,  K. V. Lawler,  
 Joonho Lee,  D. Lefrancois,  S. Lehtola,  D. S. Levine,  Yi-Pei Li,  
 You-Sheng Lin,  Fenglai Liu,  E. Livshits,  A. Luenser,  P. Manohar,  
 E. Mansoor,  S. F. Manzer,  Shan-Ping Mao,  Yuezhi Mao,  N. Mardirossian,  
 A. V. Marenich,  T. Markovich,  L. A. Martinez-Martinez,  S. A. Maurer,  
 N. J. Mayhall,  S. C. McKenzie,  J.-M. Mewes,  A. F. Morrison,  
 J. W. Mullinax,  K. Nanda,  T. S. Nguyen-Beck,  R. Olivares-Amaya,  
 J. A. Parkhill,  T. M. Perrine,  F. Plasser,  P. Pokhilko,  S. Prager,  
 A. Prociuk,  E. Ramos,  D. R. Rehn,  F. Rob,  M. Schneider,  N. Sergueev,  
 S. M. Sharada,  S. Sharma,  D. W. Small,  T. Stauch,  T. Stein,  
 Yu-Chuan Su,  A. J. W. Thom,  A. Tkatchenko,  T. Tsuchimochi,  N. M. Tubman,  
 L. Vogt,  M. L. Vidal,  O. Vydrov,  M. A. Watson,  J. Wenzel,  
 M. de Wergifosse,  T. A. Wesolowski,  A. White,  J. Witte,  A. Yamada,  
 Jun Yang,  K. Yao,  S. Yeganeh,  S. R. Yost,  Zhi-Qiang You,  A. Zech,  
 Igor Ying Zhang,  Xing Zhang,  Yan Zhao,  Ying Zhu,  B. R. Brooks,  
 G. K. L. Chan,  C. J. Cramer,  M. S. Gordon,  W. J. Hehre,  A. Klamt,  
 M. W. Schmidt,  C. D. Sherrill,  D. G. Truhlar,  A. Aspuru-Guzik,  R. Baer,  
 A. T. Bell,  N. A. Besley,  Jeng-Da Chai,  A. E. DePrince, III,  
 R. A. DiStasio Jr.,  A. Dreuw,  B. D. Dunietz,  T. R. Furlani,  
 Chao-Ping Hsu,  Yousung Jung,  Jing Kong,  D. S. Lambrecht,  WanZhen Liang,  
 C. Ochsenfeld,  V. A. Rassolov,  L. V. Slipchenko,  J. E. Subotnik,  
 T. Van Voorhis,  J. M. Herbert,  A. I. Krylov,  P. M. W. Gill,  M. Head-Gordon

 Contributors to earlier versions of Q-Chem not listed above: 
 R. D. Adamson,  B. Austin,  J. Baker,  G. J. O. Beran,  K. Brandhorst,  
 S. T. Brown,  E. F. C. Byrd,  A. K. Chakraborty,  C.-L. Cheng,  
 Siu Hung Chien,  D. M. Chipman,  D. L. Crittenden,  H. Dachsel,  
 R. J. Doerksen,  A. D. Dutoi,  L. Fusti-Molnar,  W. A. Goddard III,  
 A. Golubeva-Zadorozhnaya,  S. R. Gwaltney,  G. Hawkins,  A. Heyden,  
 S. Hirata,  G. Kedziora,  F. J. Keil,  C. Kelley,  Jihan Kim,  R. A. King,  
 R. Z. Khaliullin,  P. P. Korambath,  W. Kurlancheek,  A. M. Lee,  M. S. Lee,  
 S. V. Levchenko,  Ching Yeh Lin,  D. Liotard,  R. C. Lochan,  I. Lotan,  
 P. E. Maslen,  N. Nair,  D. P. O'Neill,  D. Neuhauser,  E. Neuscamman,  
 C. M. Oana,  R. Olson,  B. Peters,  R. Peverati,  P. A. Pieniazek,  
 Y. M. Rhee,  J. Ritchie,  M. A. Rohrdanz,  E. Rosta,  N. J. Russ,  
 H. F. Schaefer III,  N. E. Schultz,  N. Shenvi,  A. C. Simmonett,  A. Sodt,  
 D. Stuck,  K. S. Thanthiriwatte,  V. Vanovschi,  Tao Wang,  A. Warshel,  
 C. F. Williams,  Q. Wu,  X. Xu,  W. Zhang

 Please cite Q-Chem as follows:
 Y. Shao et al., Mol. Phys. 113, 184-215 (2015)
 DOI: 10.1080/00268976.2014.952696

 Q-Chem 5.1.1 for Intel X86 EM64T Linux

 Parts of Q-Chem use Armadillo 8.300.2 (Tropical Shenanigans).
 http://arma.sourceforge.net/

 Q-Chem begins on Wed Mar 13 20:22:32 2019  

Host: 
0

     Scratch files written to /staging/scratch/2868761/qchem7833//
 Aug318 |scratch|qcdevops|jenkins|workspace|build_RNUM 6013   
Processing $rem in /usr/usc/qchem/5.1.1/config/preferences.
 MEM_TOTAL  2000 
Input Ideriv = 2
Curr. Ideriv = -1
Max.  Ideriv = 2

Checking the input file for inconsistencies... 	...done.

--------------------------------------------------------------
User input:
--------------------------------------------------------------

$comment
potential surface scanner
$end

$rem
JOBTYPE  PES_SCAN
UNRESTRICTED TRUE
SYM_IGNORE  TRUE
GEOM_OPT_MAX_CYCLES 400
SCF_MAX_CYCLES 400
METHOD   B3LYP
BASIS   6-31G**
PDB_PRINT 2
SCF_CONVERGENCE 6
THRESH 14
SCF_PRINT 1
$end
$molecule
0 1
F 1.653000 0.625500 0.402200
F -1.644300 0.642100 -0.389000
C -0.000400 -0.990500 -0.008200
C 1.108500 -0.129500 -0.588600
C -1.116800 -0.147700 0.583700
H -0.406500 -1.626400 -0.802200
H 0.409700 -1.637700 0.774300
H 1.902400 -0.751100 -1.012100
H 0.736700 0.544900 -1.365600
H -0.753700 0.499900 1.387100
H -1.917900 -0.780700 0.975600
$end
$scan
stre 1 4 1.900000 1.901000 0.100000
$end
--------------------------------------------------------------
 ----------------------------------------------------------------
             Standard Nuclear Orientation (Angstroms)
    I     Atom           X                Y                Z
 ----------------------------------------------------------------
    1      F       1.6530000000     0.6255000000     0.4022000000
    2      F      -1.6443000000     0.6421000000    -0.3890000000
    3      C      -0.0004000000    -0.9905000000    -0.0082000000
    4      C       1.1085000000    -0.1295000000    -0.5886000000
    5      C      -1.1168000000    -0.1477000000     0.5837000000
    6      H      -0.4065000000    -1.6264000000    -0.8022000000
    7      H       0.4097000000    -1.6377000000     0.7743000000
    8      H       1.9024000000    -0.7511000000    -1.0121000000
    9      H       0.7367000000     0.5449000000    -1.3656000000
   10      H      -0.7537000000     0.4999000000     1.3871000000
   11      H      -1.9179000000    -0.7807000000     0.9756000000
 ----------------------------------------------------------------
 Nuclear Repulsion Energy =   190.1955158025 hartrees
 There are       21 alpha and       21 beta electrons
 Requested basis set is 6-31G(d,p)
 There are 38 shells and 105 basis functions

 Total QAlloc Memory Limit   2000 MB
 Mega-Array Size       188 MB
 MEM_STATIC part       192 MB
A total of 1 constraints
  
            1
    1   1.0100000
    2   1.0100000
    3   4.0100000
    4   1.9000000
    5   1.9010000
    6   0.1000000
    7   0.0000000
    8   0.0000000
    9   0.0000000
   10   0.0000000

                       Distance Matrix (Angstroms)
             F (  1)   F (  2)   C (  3)   C (  4)   C (  5)   H (  6)
   F (  2)  3.390938
   C (  3)  2.348109  2.347935
   C (  4)  1.359481  2.865853  1.519159
   C (  5)  2.881418  1.359480  1.518883  2.515269
   H (  6)  3.280728  2.617055  1.095318  2.140458  2.147510
   H (  7)  2.608894  3.281718  1.095151  2.149531  2.141642  1.775292
   H (  8)  1.989340  3.861132  2.164665  1.093625  3.467887  2.478150
   H (  9)  1.992792  2.575336  2.177913  1.093974  2.777576  2.517711
   H ( 10)  2.603461  1.991964  2.176147  2.786992  1.093928  3.071601
   H ( 11)  3.880401  1.990314  2.165337  3.468412  1.093634  2.481957
             H (  7)   H (  8)   H (  9)   H ( 10)
   H (  8)  2.491072
   H (  9)  3.074060  1.778605
   H ( 10)  2.509653  3.791573  3.130603
   H ( 11)  2.488512  4.306567  3.779594  1.778941
 
 A cutoff of  1.0D-14 yielded    725 shell pairs
 There are      5676 function pairs
 
 -------------------------------------------------------
 OpenMP Integral Computing Module                       
 Release: version 1.0, May 2013, Q-Chem Inc. Pittsburgh 
 -------------------------------------------------------
 Integral Job Info:
 Integral job number is                      11
 Integral operator is                         1
 short-range coefficients                     0
 long-range coefficients              100000000
 Omega coefficients                           0
 if combine SR and LR in K                    0
 Integral screening is                        0
 Integral computing path is                   2
 max size of driver memory is            800000
 size of driver memory is                593474
 size of scratch memory is              2361544
 max col of scratch BK array               1296
 max len of scratch array in speh3          155
 max len of scratch index in speh4           18
 max int batch size is                      520
 min int batch size is                       52
 fixed nKL is                                52
 max L of basis functions is                  2
 order of int derivative is                   0
 number of shells is                         38
 number of basis is                         105
 number of cartesian basis is               105
 number of contracted shell pairs           725
 number of primitive shell pairs           2680
 maxK2 (contraction) of shell pair           36
 max number of K2 of shell pair               1
 max number of CS2 of shell pair             62
 max number of PS2 of shell pair            240
 mem total for path MDJ                  520332
 -------------------------------------------------------
 Smallest overlap matrix eigenvalue = 4.39E-03

 Scale SEOQF with 1.000000e-01/1.000000e-01/1.000000e+00

 Standard Electronic Orientation quadrupole field applied
 Nucleus-field energy     =    -0.0000000109 hartrees
 Guess from superposition of atomic densities
 Warning:  Energy on first SCF cycle will be non-variational
 SAD guess density has 42.000000 electrons

 -----------------------------------------------------------------------
  General SCF calculation program by
  Eric Jon Sundstrom, Paul Horn, Yuezhi Mao, Dmitri Zuev, Alec White,
  David Stuck, Shaama M.S., Shane Yost, Joonho Lee, David Small,
  Daniel Levine, Susi Lehtola, Hugh Burton, Evgeny Epifanovsky
 -----------------------------------------------------------------------
 Exchange:     0.2000 Hartree-Fock + 0.0800 Slater + 0.7200 B88
 Correlation:  0.1900 VWN1RPA + 0.8100 LYP
 Using SG-1 standard quadrature grid
 using 12 threads for integral computing
 -------------------------------------------------------
 OpenMP Integral computing Module                
 Release: version 1.0, May 2013, Q-Chem Inc. Pittsburgh 
 -------------------------------------------------------
 -------------------------------------------------------
 OpenMP BLAS3 based DFT computing Module                
 Release: version 1.0, May 2013, Q-Chem Inc. Pittsburgh 
 -------------------------------------------------------
 A unrestricted SCF calculation will be
 performed using DIIS
 SCF converges when DIIS error is below 1.0e-06
 Alpha HF Exchange    Energy =  -3.79219641934457
 Beta HF Exchange     Energy =  -3.79219641934457
 DFT Correlation      Energy =  -1.85879329074375
 DFT Exchange         Energy = -29.67681125428696
 One-Electron (alpha) Energy = -405.51083861826299
 One-Electron (beta)  Energy = -405.51083861826299
 Total Coulomb        Energy = 341.69489423099253
 ---------------------------------------
  Cycle       Energy         DIIS error
 ---------------------------------------
    1    -318.2512645976      3.25e-02  
 Alpha HF Exchange    Energy =  -3.82150038249867
 Beta HF Exchange     Energy =  -3.82150038249867
 DFT Correlation      Energy =  -1.88288377010562
 DFT Exchange         Energy = -30.36291032250502
 One-Electron (alpha) Energy = -408.82544418972861
 One-Electron (beta)  Energy = -408.82544418972856
 Total Coulomb        Energy = 349.79392189568824
    2    -317.5502455497      3.37e-03  
 Alpha HF Exchange    Energy =  -3.75287455517670
 Beta HF Exchange     Energy =  -3.75287455517670
 DFT Correlation      Energy =  -1.86211657221998
 DFT Exchange         Energy = -29.81365988097232
 One-Electron (alpha) Energy = -405.50313710974336
 One-Electron (beta)  Energy = -405.50313710974342
 Total Coulomb        Energy = 342.44271026110584
    3    -317.5495737303      3.57e-03  
 Alpha HF Exchange    Energy =  -3.78883937525139
 Beta HF Exchange     Energy =  -3.78883937525139
 DFT Correlation      Energy =  -1.87266856115013
 DFT Exchange         Energy = -30.09801249064311
 One-Electron (alpha) Energy = -407.28348123202431
 One-Electron (beta)  Energy = -407.28348123202431
 Total Coulomb        Energy = 346.31637152729246
    4    -317.6034349474      3.65e-04  
 Alpha HF Exchange    Energy =  -3.78705912334068
 Beta HF Exchange     Energy =  -3.78705912334068
 DFT Correlation      Energy =  -1.87266396305432
 DFT Exchange         Energy = -30.08593059115352
 One-Electron (alpha) Energy = -407.25121486493333
 One-Electron (beta)  Energy = -407.25121486493356
 Total Coulomb        Energy = 346.23579261989045
    5    -317.6038341192      1.67e-04  
 Alpha HF Exchange    Energy =  -3.78742998803092
 Beta HF Exchange     Energy =  -3.78742998803092
 DFT Correlation      Energy =  -1.87249502972186
 DFT Exchange         Energy = -30.08790129102438
 One-Electron (alpha) Energy = -407.22779260606399
 One-Electron (beta)  Energy = -407.22779260606393
 Total Coulomb        Energy = 346.19137395818939
    6    -317.6039517591      3.09e-05  
 Alpha HF Exchange    Energy =  -3.78737202840534
 Beta HF Exchange     Energy =  -3.78737202840534
 DFT Correlation      Energy =  -1.87251313542746
 DFT Exchange         Energy = -30.08750962084947
 One-Electron (alpha) Energy = -407.23149128785303
 One-Electron (beta)  Energy = -407.23149128785292
 Total Coulomb        Energy = 346.19827762179932
    7    -317.6039559754      5.99e-06  
 Alpha HF Exchange    Energy =  -3.78739971475427
 Beta HF Exchange     Energy =  -3.78739971475427
 DFT Correlation      Energy =  -1.87252313351092
 DFT Exchange         Energy = -30.08774018918832
 One-Electron (alpha) Energy = -407.23309582278375
 One-Electron (beta)  Energy = -407.23309582278364
 Total Coulomb        Energy = 346.20178246708832
    8    -317.6039561390      1.39e-06  
 Alpha HF Exchange    Energy =  -3.78739424123215
 Beta HF Exchange     Energy =  -3.78739424123216
 DFT Correlation      Energy =  -1.87252103045701
 DFT Exchange         Energy = -30.08769503089510
 One-Electron (alpha) Energy = -407.23269194936739
 One-Electron (beta)  Energy = -407.23269194936756
 Total Coulomb        Energy = 346.20091650199112
    9    -317.6039561489      1.85e-07  Convergence criterion met
 ---------------------------------------
 SCF time:   CPU 21.81s  wall 2.00s 
<S^2> =          0.000000000
 Alpha HF Exchange    Energy =  -3.78739424123215
 Beta HF Exchange     Energy =  -3.78739424123216
 DFT Correlation      Energy =  -1.87252103045701
 DFT Exchange         Energy = -30.08769503089510
 One-Electron (alpha) Energy = -407.23269194936739
 One-Electron (beta)  Energy = -407.23269194936756
 Total Coulomb        Energy = 346.20091650199112
 Nuclear repulsion Energy = 190.19551579163829
 SCF   energy in the final basis set =     -317.6039561489
 Total energy in the final basis set =     -317.6039561489
 
 --------------------------------------------------------------
 
                    Orbital Energies (a.u.)
 --------------------------------------------------------------
 
 Alpha MOs
 -- Occupied --
-24.673 -24.673 -10.256 -10.256 -10.195  -1.192  -1.189  -0.791
 -0.688  -0.604  -0.512  -0.511  -0.487  -0.482  -0.443  -0.432
 -0.392  -0.346  -0.337  -0.319  -0.317
 -- Virtual --
  0.093   0.127   0.128   0.139   0.161   0.178   0.179   0.202
  0.225   0.247   0.509   0.526   0.545   0.549   0.583   0.614
  0.648   0.686   0.781   0.785   0.843   0.852   0.870   0.905
  0.910   0.956   1.077   1.131   1.191   1.224   1.293   1.324
  1.362   1.390   1.434   1.472   1.477   1.587   1.662   1.756
  1.761   1.766   1.822   1.845   1.901   1.961   1.968   1.998
  2.017   2.024   2.046   2.053   2.086   2.130   2.180   2.200
  2.262   2.302   2.325   2.374   2.428   2.497   2.621   2.645
  2.715   2.753   2.791   2.867   2.891   2.893   2.931   3.047
  3.074   3.254   3.258   3.291   3.395   3.489   3.520   4.203
  4.236   4.389   4.502   4.656
 
 Beta MOs
 -- Occupied --
-24.673 -24.673 -10.256 -10.256 -10.195  -1.192  -1.189  -0.791
 -0.688  -0.604  -0.512  -0.511  -0.487  -0.482  -0.443  -0.432
 -0.392  -0.346  -0.337  -0.319  -0.317
 -- Virtual --
  0.093   0.127   0.128   0.139   0.161   0.178   0.179   0.202
  0.225   0.247   0.509   0.526   0.545   0.549   0.583   0.614
  0.648   0.686   0.781   0.785   0.843   0.852   0.870   0.905
  0.910   0.956   1.077   1.131   1.191   1.224   1.293   1.324
  1.362   1.390   1.434   1.472   1.477   1.587   1.662   1.756
  1.761   1.766   1.822   1.845   1.901   1.961   1.968   1.998
  2.017   2.024   2.046   2.053   2.086   2.130   2.180   2.200
  2.262   2.302   2.325   2.374   2.428   2.497   2.621   2.645
  2.715   2.753   2.791   2.867   2.891   2.893   2.931   3.047
  3.074   3.254   3.258   3.291   3.395   3.489   3.520   4.203
  4.236   4.389   4.502   4.656
 --------------------------------------------------------------
 
          Ground-State Mulliken Net Atomic Charges

     Atom                 Charge (a.u.)    Spin (a.u.)
  --------------------------------------------------------
      1 F                    -0.313295       0.000000
      2 F                    -0.312930      -0.000000
      3 C                    -0.254908      -0.000000
      4 C                     0.141348       0.000000
      5 C                     0.141246       0.000000
      6 H                     0.109074      -0.000000
      7 H                     0.109623       0.000000
      8 H                     0.086687       0.000000
      9 H                     0.103177      -0.000000
     10 H                     0.102872       0.000000
     11 H                     0.087104       0.000000
  --------------------------------------------------------
  Sum of atomic charges =     0.000000
  Sum of spin   charges =    -0.000000

 -----------------------------------------------------------------
                    Cartesian Multipole Moments
 -----------------------------------------------------------------
    Charge (ESU x 10^10)
                 0.0000
    Dipole Moment (Debye)
         X      -0.0222      Y      -1.7856      Z      -0.0202
       Tot       1.7858
    Quadrupole Moments (Debye-Ang)
        XX     -31.8135     XY       0.0493     YY     -29.0678
        XZ      -2.9382     YZ      -0.0205     ZZ     -27.8071
    Octopole Moments (Debye-Ang^2)
       XXX      -0.0793    XXY      -1.9909    XYY       0.0501
       YYY       8.9520    XXZ      -0.0267    XYZ      -0.8704
       YYZ       0.0360    XZZ       0.0156    YZZ       3.0249
       ZZZ       0.1118
    Hexadecapole Moments (Debye-Ang^3)
      XXXX    -300.2160   XXXY      -0.0676   XXYY     -67.9195
      XYYY      -0.1806   YYYY    -110.4447   XXXZ       5.6897
      XXYZ      -0.0112   XYYZ       4.2268   YYYZ      -0.0673
      XXZZ     -61.9420   XYZZ      -0.0872   YYZZ     -30.5219
      XZZZ      12.8683   YZZZ       0.0740   ZZZZ     -83.8743
 -----------------------------------------------------------------
 Calculating analytic gradient of the SCF energy
 Gradient of SCF Energy
            1           2           3           4           5           6
    1  -0.0108825   0.0107693   0.0003339   0.0046129  -0.0049679   0.0006417
    2  -0.0161536  -0.0165731  -0.0013125   0.0121849   0.0121817   0.0013189
    3  -0.0202190   0.0198089   0.0006062   0.0133394  -0.0134905  -0.0003276
            7           8           9          10          11
    1  -0.0008016  -0.0006963   0.0030199  -0.0027671   0.0007378
    2   0.0012504   0.0025231   0.0010580   0.0009935   0.0025287
    3   0.0004145   0.0030196   0.0017199  -0.0019672  -0.0029042
 Max gradient component =       2.022E-02
 RMS gradient           =       8.417E-03
 Gradient time:  CPU 8.57 s  wall 0.77 s
 Geometry Optimization Parameters
   NAtoms,    NIC,     NZ,  NCons,   NDum,   NFix, NCnnct, MaxDiis
       11      68       0       1       0       0       0       0


** CONSTRAINED OPTIMIZATION IN DELOCALIZED INTERNAL COORDINATES **
   Searching for a Minimum

   Optimization Cycle:   1

                       Coordinates (Angstroms)
     ATOM                X               Y               Z
      1  F         1.6530000000    0.6255000000    0.4022000000
      2  F        -1.6443000000    0.6421000000   -0.3890000000
      3  C        -0.0004000000   -0.9905000000   -0.0082000000
      4  C         1.1085000000   -0.1295000000   -0.5886000000
      5  C        -1.1168000000   -0.1477000000    0.5837000000
      6  H        -0.4065000000   -1.6264000000   -0.8022000000
      7  H         0.4097000000   -1.6377000000    0.7743000000
      8  H         1.9024000000   -0.7511000000   -1.0121000000
      9  H         0.7367000000    0.5449000000   -1.3656000000
     10  H        -0.7537000000    0.4999000000    1.3871000000
     11  H        -1.9179000000   -0.7807000000    0.9756000000
   Point Group: c1    Number of degrees of freedom:    27


   Energy is   -317.603956149

              Constraints and their Current Values
                                        Value     Constraint
   Distance(Angs):        1   4             1.359481     1.900000

 Attempting to Generate Delocalized Internal Coordinates
**WARNING** Constraint Gradient Reduced for constraint   1

   Using Lagrange Multiplier Algorithm


 28 Hessian modes will be used to form the next step
  Hessian Eigenvalues:
    -0.769322    0.045000    0.045000    0.069368    0.078807    0.084194
     0.084289    0.084960    0.085014    0.102109    0.130955    0.160000
     0.160000    0.160000    0.160000    0.219882    0.223371    0.223398
     0.304477    0.304744    0.342052    0.342241    0.343574    0.343626
     0.343960    0.343970    0.530528    1.299846

 Minimum Search - Taking P-RFO Step
 Searching for Lamda that Maximizes Along the Constraint modes Only
 Value Taken    Lamda =   0.05879845


 ********************************************
 ** ERROR IN DETERMINING Lamda IN CONFormD **
 ********************************************


 ** Scaling Hessian by  2.613264 **


 28 Hessian modes will be used to form the next step
  Hessian Eigenvalues:
    -0.523569    0.117597    0.117597    0.181276    0.205943    0.220021
     0.220268    0.222023    0.222163    0.266838    0.342221    0.418122
     0.418122    0.418122    0.418122    0.574609    0.583728    0.583798
     0.795679    0.796376    0.893873    0.894366    0.897849    0.897986
     0.898859    0.898886    1.386409    1.909970

 Minimum Search - Taking P-RFO Step
 Searching for Lamda that Maximizes Along the Constraint modes Only
 Value Taken    Lamda =   0.10210765
 Searching for Lamda that Minimizes Along All other modes
 Value Taken    Lamda =  -0.01481970
 Step Taken.  Stepsize is  0.265196

                             Maximum     Tolerance    Cnvgd?
         Gradient            0.300000       0.000300      NO
         Displacement        0.318364       0.001200      NO
         Energy change     *********       0.000001      NO


 New Cartesian Coordinates Obtained by Inverse Iteration

 Displacement from previous Coordinates is:  0.253342
 ----------------------------------------------------------------
             Standard Nuclear Orientation (Angstroms)
    I     Atom           X                Y                Z
 ----------------------------------------------------------------
    1      F       1.7131578477     0.6978181741     0.4811808512
    2      F      -1.6582384590     0.6472170621    -0.3976487362
    3      C      -0.0066345262    -0.9961276942    -0.0150153787
    4      C       1.1050230295    -0.1404986164    -0.6019440339
    5      C      -1.1215356812    -0.1496975012     0.5790350239
    6      H      -0.4184374846    -1.6350395755    -0.8042580776
    7      H       0.4065972364    -1.6430385473     0.7666845684
    8      H       1.8926146812    -0.7689304772    -1.0317486814
    9      H       0.7217379289     0.5266506546    -1.3809209865
   10      H      -0.7445239300     0.4941451059     1.3804436328
   11      H      -1.9190606427    -0.7836985849     0.9813918180
 ----------------------------------------------------------------
 Nuclear Repulsion Energy =   186.2410336313 hartrees
 There are       21 alpha and       21 beta electrons

                       Distance Matrix (Angstroms)
             F (  1)   F (  2)   C (  3)   C (  4)   C (  5)   H (  6)
   F (  2)  3.484425
   C (  3)  2.464417  2.361098
   C (  4)  1.498587  2.880598  1.520648
   C (  5)  2.960295  1.370049  1.520640  2.520389
   H (  6)  3.411492  2.628903  1.095762  2.143715  2.148043
   H (  7)  2.695964  3.296132  1.095586  2.149086  2.144871  1.774431
   H (  8)  2.114831  3.875063  2.166221  1.095427  3.473208  2.478479
   H (  9)  2.116515  2.577915  2.171423  1.094898  2.774262  2.511064
   H ( 10)  2.624949  2.004973  2.170875  2.784503  1.094955  3.068009
   H ( 11)  3.954506  2.004320  2.166870  3.473578  1.095397  2.482981
             H (  7)   H (  8)   H (  9)   H ( 10)
   H (  8)  2.491320
   H (  9)  3.069051  1.780844
   H ( 10)  2.503864  3.790585  3.126678
   H ( 11)  2.488624  4.310664  3.777745  1.780916
 
 Applying Cartesian multipole field
    Component          Value
    ---------          -----
     (2,0,0)        1.00000E-11
     (0,2,0)        2.00000E-11
     (0,0,2)       -3.00000E-10
 Nucleus-field energy     =    -0.0000000116 hartrees
 Requested basis set is 6-31G(d,p)
 There are 38 shells and 105 basis functions
 A cutoff of  1.0D-14 yielded    723 shell pairs
 There are      5663 function pairs
 Smallest overlap matrix eigenvalue = 4.58E-03
 Guess from superposition of atomic densities
 Warning:  Energy on first SCF cycle will be non-variational
 SAD guess density has 42.000000 electrons

 -----------------------------------------------------------------------
  General SCF calculation program by
  Eric Jon Sundstrom, Paul Horn, Yuezhi Mao, Dmitri Zuev, Alec White,
  David Stuck, Shaama M.S., Shane Yost, Joonho Lee, David Small,
  Daniel Levine, Susi Lehtola, Hugh Burton, Evgeny Epifanovsky
 -----------------------------------------------------------------------
 Exchange:     0.2000 Hartree-Fock + 0.0800 Slater + 0.7200 B88
 Correlation:  0.1900 VWN1RPA + 0.8100 LYP
 Using SG-1 standard quadrature grid
 using 12 threads for integral computing
 -------------------------------------------------------
 OpenMP Integral computing Module                
 Release: version 1.0, May 2013, Q-Chem Inc. Pittsburgh 
 -------------------------------------------------------
 -------------------------------------------------------
 OpenMP BLAS3 based DFT computing Module                
 Release: version 1.0, May 2013, Q-Chem Inc. Pittsburgh 
 -------------------------------------------------------
 A unrestricted SCF calculation will be
 performed using DIIS
 SCF converges when DIIS error is below 1.0e-06
 Alpha HF Exchange    Energy =  -3.77394114474319
 Beta HF Exchange     Energy =  -3.77394114474319
 DFT Correlation      Energy =  -1.85409264291755
 DFT Exchange         Energy = -29.63752299720922
 One-Electron (alpha) Energy = -401.64112714056625
 One-Electron (beta)  Energy = -401.64112714056625
 Total Coulomb        Energy = 338.01582444697067
 ---------------------------------------
  Cycle       Energy         DIIS error
 ---------------------------------------
    1    -318.0648941441      3.06e-02  
 Alpha HF Exchange    Energy =  -3.81466431029914
 Beta HF Exchange     Energy =  -3.81466431029914
 DFT Correlation      Energy =  -1.87815699370976
 DFT Exchange         Energy = -30.31669220828873
 One-Electron (alpha) Energy = -404.94888358743668
 One-Electron (beta)  Energy = -404.94888358743668
 Total Coulomb        Energy = 345.93524055359370
    2    -317.5456708242      3.43e-03  
 Alpha HF Exchange    Energy =  -3.74218243371477
 Beta HF Exchange     Energy =  -3.74218243371476
 DFT Correlation      Energy =  -1.85748691266230
 DFT Exchange         Energy = -29.74315489919113
 One-Electron (alpha) Energy = -401.66740059832290
 One-Electron (beta)  Energy = -401.66740059832279
 Total Coulomb        Energy = 338.64071923442845
    3    -317.5380550218      3.93e-03  
 Alpha HF Exchange    Energy =  -3.78113138495754
 Beta HF Exchange     Energy =  -3.78113138495754
 DFT Correlation      Energy =  -1.86775700485945
 DFT Exchange         Energy = -30.04634821031598
 One-Electron (alpha) Energy = -403.39317776030413
 One-Electron (beta)  Energy = -403.39317776030396
 Total Coulomb        Energy = 342.42307173998944
    4    -317.5986181460      5.60e-04  
 Alpha HF Exchange    Energy =  -3.77943018925104
 Beta HF Exchange     Energy =  -3.77943018925104
 DFT Correlation      Energy =  -1.86816095763391
 DFT Exchange         Energy = -30.03647266270505
 One-Electron (alpha) Energy = -403.42753235804889
 One-Electron (beta)  Energy = -403.42753235804889
 Total Coulomb        Energy = 342.47786612893304
    5    -317.5996589663      2.45e-04  
 Alpha HF Exchange    Energy =  -3.77963292380425
 Beta HF Exchange     Energy =  -3.77963292380425
 DFT Correlation      Energy =  -1.86790706702712
 DFT Exchange         Energy = -30.03690634259732
 One-Electron (alpha) Energy = -403.38672025362564
 One-Electron (beta)  Energy = -403.38672025362564
 Total Coulomb        Energy = 342.39656160416843
    6    -317.5999245406      2.96e-05  
 Alpha HF Exchange    Energy =  -3.77964710187408
 Beta HF Exchange     Energy =  -3.77964710187408
 DFT Correlation      Energy =  -1.86790452204927
 DFT Exchange         Energy = -30.03693550786586
 One-Electron (alpha) Energy = -403.38797318654014
 One-Electron (beta)  Energy = -403.38797318654014
 Total Coulomb        Energy = 342.39911952259303
    7    -317.5999274644      1.52e-05  
 Alpha HF Exchange    Energy =  -3.77965467938154
 Beta HF Exchange     Energy =  -3.77965467938154
 DFT Correlation      Energy =  -1.86791965282164
 DFT Exchange         Energy = -30.03704028416627
 One-Electron (alpha) Energy = -403.39030802382177
 One-Electron (beta)  Energy = -403.39030802382166
 Total Coulomb        Energy = 342.40392335385627
    8    -317.5999283698      2.30e-06  
 Alpha HF Exchange    Energy =  -3.77966194468819
 Beta HF Exchange     Energy =  -3.77966194468819
 DFT Correlation      Energy =  -1.86792067635202
 DFT Exchange         Energy = -30.03709645687382
 One-Electron (alpha) Energy = -403.39045438903207
 One-Electron (beta)  Energy = -403.39045438903202
 Total Coulomb        Energy = 342.40428779253580
    9    -317.5999283884      7.45e-07  Convergence criterion met
 ---------------------------------------
 SCF time:   CPU 21.95s  wall 2.00s 
<S^2> =          0.000000000
 Alpha HF Exchange    Energy =  -3.77966194468819
 Beta HF Exchange     Energy =  -3.77966194468819
 DFT Correlation      Energy =  -1.86792067635202
 DFT Exchange         Energy = -30.03709645687382
 One-Electron (alpha) Energy = -403.39045438903207
 One-Electron (beta)  Energy = -403.39045438903202
 Total Coulomb        Energy = 342.40428779253580
 Nuclear repulsion Energy = 186.24103361971211
 SCF   energy in the final basis set =     -317.5999283884
 Total energy in the final basis set =     -317.5999283884
 
 --------------------------------------------------------------
 
                    Orbital Energies (a.u.)
 --------------------------------------------------------------
 
 Alpha MOs
 -- Occupied --
-24.675 -24.659 -10.266 -10.259 -10.203  -1.188  -1.136  -0.797
 -0.692  -0.603  -0.506  -0.505  -0.478  -0.461  -0.429  -0.418
 -0.390  -0.346  -0.339  -0.324  -0.323
 -- Virtual --
  0.072   0.098   0.125   0.128   0.155   0.161   0.173   0.194
  0.219   0.241   0.497   0.516   0.537   0.540   0.576   0.612
  0.646   0.681   0.774   0.788   0.837   0.851   0.859   0.898
  0.906   0.955   1.073   1.137   1.187   1.218   1.299   1.328
  1.353   1.387   1.430   1.479   1.480   1.592   1.650   1.752
  1.768   1.771   1.807   1.854   1.866   1.915   1.931   1.954
  1.967   2.002   2.011   2.038   2.075   2.109   2.154   2.170
  2.236   2.280   2.311   2.350   2.418   2.478   2.593   2.619
  2.672   2.709   2.770   2.821   2.837   2.874   2.906   2.978
  3.052   3.248   3.260   3.283   3.386   3.480   3.517   4.048
  4.205   4.350   4.495   4.641
 
 Beta MOs
 -- Occupied --
-24.675 -24.659 -10.266 -10.259 -10.203  -1.188  -1.136  -0.797
 -0.692  -0.603  -0.506  -0.505  -0.478  -0.461  -0.429  -0.418
 -0.390  -0.346  -0.339  -0.324  -0.323
 -- Virtual --
  0.072   0.098   0.125   0.128   0.155   0.161   0.173   0.194
  0.219   0.241   0.497   0.516   0.537   0.540   0.576   0.612
  0.646   0.681   0.774   0.788   0.837   0.851   0.859   0.898
  0.906   0.955   1.073   1.137   1.187   1.218   1.299   1.328
  1.353   1.387   1.430   1.479   1.480   1.592   1.650   1.752
  1.768   1.771   1.807   1.854   1.866   1.915   1.931   1.954
  1.967   2.002   2.011   2.038   2.075   2.109   2.154   2.170
  2.236   2.280   2.311   2.350   2.418   2.478   2.593   2.619
  2.672   2.709   2.770   2.821   2.837   2.874   2.906   2.978
  3.052   3.248   3.260   3.283   3.386   3.480   3.517   4.048
  4.205   4.350   4.495   4.641
 --------------------------------------------------------------
 
          Ground-State Mulliken Net Atomic Charges

     Atom                 Charge (a.u.)    Spin (a.u.)
  --------------------------------------------------------
      1 F                    -0.350866       0.000000
      2 F                    -0.316300      -0.000000
      3 C                    -0.249060       0.000000
      4 C                     0.112015      -0.000000
      5 C                     0.140629       0.000000
      6 H                     0.115528      -0.000000
      7 H                     0.116916      -0.000000
      8 H                     0.107549      -0.000000
      9 H                     0.124192      -0.000000
     10 H                     0.110553       0.000000
     11 H                     0.088845       0.000000
  --------------------------------------------------------
  Sum of atomic charges =     0.000000
  Sum of spin   charges =     0.000000

 -----------------------------------------------------------------
                    Cartesian Multipole Moments
 -----------------------------------------------------------------
    Charge (ESU x 10^10)
                 0.0000
    Dipole Moment (Debye)
         X      -0.2818      Y      -2.1557      Z      -0.3410
       Tot       2.2006
    Quadrupole Moments (Debye-Ang)
        XX     -32.4744     XY      -0.4095     YY     -29.0599
        XZ      -3.4902     YZ      -0.0516     ZZ     -27.5435
    Octopole Moments (Debye-Ang^2)
       XXX      -1.8897    XXY      -3.3573    XYY      -0.3966
       YYY       7.4314    XXZ      -0.9880    XYZ      -0.8763
       YYZ      -0.3663    XZZ      -0.0730    YZZ       2.5812
       ZZZ      -1.0236
    Hexadecapole Moments (Debye-Ang^3)
      XXXX    -311.0028   XXXY      -3.9891   XXYY     -70.0062
      XYYY      -2.8441   YYYY    -113.3557   XXXZ       1.3525
      XXYZ      -0.3457   XYYZ       3.1036   YYYZ      -1.4415
      XXZZ     -63.3256   XYZZ      -1.0823   YYZZ     -31.1862
      XZZZ       9.5524   YZZZ      -1.3855   ZZZZ     -85.2748
 -----------------------------------------------------------------
 Calculating analytic gradient of the SCF energy
 Gradient of SCF Energy
            1           2           3           4           5           6
    1   0.0217190   0.0069110  -0.0044209  -0.0144083  -0.0034143  -0.0009909
    2   0.0289732  -0.0105857  -0.0075870  -0.0162378   0.0087866   0.0003701
    3   0.0373062   0.0131975  -0.0053357  -0.0249210  -0.0110039   0.0009493
            7           8           9          10          11
    1   0.0002732  -0.0027566  -0.0013827  -0.0019742   0.0004448
    2   0.0010851  -0.0035016  -0.0033073   0.0007518   0.0012526
    3   0.0004476  -0.0040270  -0.0051102  -0.0002075  -0.0012951
 Max gradient component =       3.731E-02
 RMS gradient           =       1.172E-02
 Gradient time:  CPU 8.25 s  wall 0.73 s
 Geometry Optimization Parameters
   NAtoms,    NIC,     NZ,  NCons,   NDum,   NFix, NCnnct, MaxDiis
       11      68       0       1       0       0       0       0

 Cartesian Hessian Update
 Hessian Updated using BFGS Update


** CONSTRAINED OPTIMIZATION IN DELOCALIZED INTERNAL COORDINATES **
   Searching for a Minimum

   Optimization Cycle:   2

                       Coordinates (Angstroms)
     ATOM                X               Y               Z
      1  F         1.7131578477    0.6978181741    0.4811808512
      2  F        -1.6582384590    0.6472170621   -0.3976487362
      3  C        -0.0066345262   -0.9961276942   -0.0150153787
      4  C         1.1050230295   -0.1404986164   -0.6019440339
      5  C        -1.1215356812   -0.1496975012    0.5790350239
      6  H        -0.4184374846   -1.6350395755   -0.8042580776
      7  H         0.4065972364   -1.6430385473    0.7666845684
      8  H         1.8926146812   -0.7689304772   -1.0317486814
      9  H         0.7217379289    0.5266506546   -1.3809209865
     10  H        -0.7445239300    0.4941451059    1.3804436328
     11  H        -1.9190606427   -0.7836985849    0.9813918180
   Point Group: c1    Number of degrees of freedom:    27


   Energy is   -317.599928388

              Constraints and their Current Values
                                        Value     Constraint
   Distance(Angs):        1   4             1.498587     1.900000
 Hessian Updated using BFGS Update
**WARNING** Constraint Gradient Reduced for constraint   1

   Using Lagrange Multiplier Algorithm


 26 Hessian modes will be used to form the next step
  Hessian Eigenvalues:
    -0.859325    0.117596    0.117597    0.181326    0.205932    0.220252
     0.220439    0.221948    0.227112    0.266878    0.342583    0.417794
     0.422112    0.574570    0.583768    0.584910    0.796165    0.797575
     0.893861    0.894369    0.897886    0.898135    0.898734    0.900229
     1.156253    1.395500

 Minimum Search - Taking P-RFO Step
 Searching for Lamda that Maximizes Along the Constraint modes Only
 Value Taken    Lamda =   0.00328370
 Searching for Lamda that Minimizes Along All other modes
 Value Taken    Lamda =  -0.12460403
 Step Taken.  Stepsize is  0.281363

                             Maximum     Tolerance    Cnvgd?
         Gradient            0.300000       0.000300      NO
         Displacement        0.274464       0.001200      NO
         Energy change      0.004028       0.000001      NO


 New Cartesian Coordinates Obtained by Inverse Iteration

 Displacement from previous Coordinates is:  0.237692
 ----------------------------------------------------------------
             Standard Nuclear Orientation (Angstroms)
    I     Atom           X                Y                Z
 ----------------------------------------------------------------
    1      F       1.7578374764     0.7601192580     0.5631248445
    2      F      -1.6718335362     0.6503433337    -0.4090583187
    3      C      -0.0139086124    -1.0035786783    -0.0217638439
    4      C       1.0923132623    -0.1610062911    -0.6246342885
    5      C      -1.1238857123    -0.1511529374     0.5761791186
    6      H      -0.4305097636    -1.6469195360    -0.8056515734
    7      H       0.4034585985    -1.6481384461     0.7600184512
    8      H       1.8906643104    -0.7762638429    -1.0495352414
    9      H       0.7127522147     0.5160880996    -1.3937666587
   10      H      -0.7276533502     0.4917574062     1.3696181598
   11      H      -1.9185348876    -0.7824483656     0.9926693506
 ----------------------------------------------------------------
 Nuclear Repulsion Energy =   182.9457239996 hartrees
 There are       21 alpha and       21 beta electrons

                       Distance Matrix (Angstroms)
             F (  1)   F (  2)   C (  3)   C (  4)   C (  5)   H (  6)
   F (  2)  3.566488
   C (  3)  2.567452  2.373641
   C (  4)  1.643827  2.888818  1.515621
   C (  5)  3.022402  1.383234  1.521911  2.520632
   H (  6)  3.529341  2.641134  1.096323  2.135344  2.151173
   H (  7)  2.769985  3.310075  1.095827  2.145541  2.146519  1.773930
   H (  8)  2.231320  3.890605  2.176094  1.093822  3.481555  2.491058
   H (  9)  2.231855  2.583394  2.172513  1.092743  2.774732  2.516253
   H ( 10)  2.626807  2.019979  2.163656  2.777665  1.095390  3.064968
   H ( 11)  4.009955  2.019553  2.169234  3.473769  1.097026  2.489074
             H (  7)   H (  8)   H (  9)   H ( 10)
   H (  8)  2.499286
   H (  9)  3.068930  1.782174
   H ( 10)  2.496033  3.783618  3.116353
   H ( 11)  2.489016  4.322110  3.782188  1.784346
 
 Applying Cartesian multipole field
    Component          Value
    ---------          -----
     (2,0,0)        1.00000E-11
     (0,2,0)        2.00000E-11
     (0,0,2)       -3.00000E-10
 Nucleus-field energy     =    -0.0000000126 hartrees
 Requested basis set is 6-31G(d,p)
 There are 38 shells and 105 basis functions
 A cutoff of  1.0D-14 yielded    721 shell pairs
 There are      5651 function pairs
 Smallest overlap matrix eigenvalue = 4.69E-03
 Guess from superposition of atomic densities
 Warning:  Energy on first SCF cycle will be non-variational
 SAD guess density has 42.000000 electrons

 -----------------------------------------------------------------------
  General SCF calculation program by
  Eric Jon Sundstrom, Paul Horn, Yuezhi Mao, Dmitri Zuev, Alec White,
  David Stuck, Shaama M.S., Shane Yost, Joonho Lee, David Small,
  Daniel Levine, Susi Lehtola, Hugh Burton, Evgeny Epifanovsky
 -----------------------------------------------------------------------
 Exchange:     0.2000 Hartree-Fock + 0.0800 Slater + 0.7200 B88
 Correlation:  0.1900 VWN1RPA + 0.8100 LYP
 Using SG-1 standard quadrature grid
 using 12 threads for integral computing
 -------------------------------------------------------
 OpenMP Integral computing Module                
 Release: version 1.0, May 2013, Q-Chem Inc. Pittsburgh 
 -------------------------------------------------------
 -------------------------------------------------------
 OpenMP BLAS3 based DFT computing Module                
 Release: version 1.0, May 2013, Q-Chem Inc. Pittsburgh 
 -------------------------------------------------------
 A unrestricted SCF calculation will be
 performed using DIIS
 SCF converges when DIIS error is below 1.0e-06
 Alpha HF Exchange    Energy =  -3.76085760797297
 Beta HF Exchange     Energy =  -3.76085760797297
 DFT Correlation      Energy =  -1.85010282961694
 DFT Exchange         Energy = -29.60939204827724
 One-Electron (alpha) Energy = -398.39157931432192
 One-Electron (beta)  Energy = -398.39157931432192
 Total Coulomb        Energy = 334.88406037634724
 ---------------------------------------
  Cycle       Energy         DIIS error
 ---------------------------------------
    1    -317.9345843591      2.95e-02  
 Alpha HF Exchange    Energy =  -3.81157932441089
 Beta HF Exchange     Energy =  -3.81157932441089
 DFT Correlation      Energy =  -1.87461004801782
 DFT Exchange         Energy = -30.29819284634157
 One-Electron (alpha) Energy = -401.74678111124155
 One-Electron (beta)  Energy = -401.74678111124160
 Total Coulomb        Energy = 342.82198569122903
    2    -317.5218140874      3.63e-03  
 Alpha HF Exchange    Energy =  -3.72978993602385
 Beta HF Exchange     Energy =  -3.72978993602385
 DFT Correlation      Energy =  -1.85305227030341
 DFT Exchange         Energy = -29.66227747461521
 One-Electron (alpha) Energy = -398.33555815685168
 One-Electron (beta)  Energy = -398.33555815685173
 Total Coulomb        Energy = 335.21447692948004
    3    -317.4858250142      4.99e-03  
 Alpha HF Exchange    Energy =  -3.77465812358314
 Beta HF Exchange     Energy =  -3.77465812358314
 DFT Correlation      Energy =  -1.86333293244883
 DFT Exchange         Energy = -30.00331023274222
 One-Electron (alpha) Energy = -400.06043169550031
 One-Electron (beta)  Energy = -400.06043169550031
 Total Coulomb        Energy = 339.01349142404837
    4    -317.5776073923      9.61e-04  
 Alpha HF Exchange    Energy =  -3.77399740213674
 Beta HF Exchange     Energy =  -3.77399740213674
 DFT Correlation      Energy =  -1.86445479654662
 DFT Exchange         Energy = -30.00406250201044
 One-Electron (alpha) Energy = -400.21440264326776
 One-Electron (beta)  Energy = -400.21440264326770
 Total Coulomb        Energy = 339.31808066074558
    5    -317.5815127416      2.72e-04  
 Alpha HF Exchange    Energy =  -3.77388263929692
 Beta HF Exchange     Energy =  -3.77388263929692
 DFT Correlation      Energy =  -1.86419112758383
 DFT Exchange         Energy = -30.00216968007666
 One-Electron (alpha) Energy = -400.16604188989874
 One-Electron (beta)  Energy = -400.16604188989857
 Total Coulomb        Energy = 339.21865217776940
    6    -317.5818337013      4.68e-05  
 Alpha HF Exchange    Energy =  -3.77398497306426
 Beta HF Exchange     Energy =  -3.77398497306427
 DFT Correlation      Energy =  -1.86416148810466
 DFT Exchange         Energy = -30.00268987657408
 One-Electron (alpha) Energy = -400.16386463937948
 One-Electron (beta)  Energy = -400.16386463937977
 Total Coulomb        Energy = 339.21498625544172
    7    -317.5818403471      2.47e-05  
 Alpha HF Exchange    Energy =  -3.77397893481905
 Beta HF Exchange     Energy =  -3.77397893481905
 DFT Correlation      Energy =  -1.86418423566039
 DFT Exchange         Energy = -30.00271732974223
 One-Electron (alpha) Energy = -400.16746054957372
 One-Electron (beta)  Energy = -400.16746054957383
 Total Coulomb        Energy = 339.22221378030423
    8    -317.5818427669      2.86e-06  
 Alpha HF Exchange    Energy =  -3.77399254409749
 Beta HF Exchange     Energy =  -3.77399254409749
 DFT Correlation      Energy =  -1.86418741559893
 DFT Exchange         Energy = -30.00282638141243
 One-Electron (alpha) Energy = -400.16797337967580
 One-Electron (beta)  Energy = -400.16797337967586
 Total Coulomb        Energy = 339.22337885799300
    9    -317.5818427996      9.36e-07  Convergence criterion met
 ---------------------------------------
 SCF time:   CPU 21.49s  wall 1.00s 
<S^2> =          0.000000000
 Alpha HF Exchange    Energy =  -3.77399254409749
 Beta HF Exchange     Energy =  -3.77399254409749
 DFT Correlation      Energy =  -1.86418741559893
 DFT Exchange         Energy = -30.00282638141243
 One-Electron (alpha) Energy = -400.16797337967580
 One-Electron (beta)  Energy = -400.16797337967586
 Total Coulomb        Energy = 339.22337885799300
 Nuclear repulsion Energy = 182.94572398700075
 SCF   energy in the final basis set =     -317.5818427996
 Total energy in the final basis set =     -317.5818427996
 
 --------------------------------------------------------------
 
                    Orbital Energies (a.u.)
 --------------------------------------------------------------
 
 Alpha MOs
 -- Occupied --
-24.676 -24.644 -10.275 -10.263 -10.210  -1.185  -1.094  -0.805
 -0.696  -0.605  -0.505  -0.503  -0.476  -0.443  -0.423  -0.405
 -0.384  -0.340  -0.336  -0.326  -0.324
 -- Virtual --
  0.017   0.090   0.120   0.123   0.151   0.156   0.167   0.189
  0.214   0.237   0.493   0.512   0.532   0.536   0.570   0.611
  0.642   0.678   0.768   0.787   0.832   0.851   0.852   0.895
  0.901   0.954   1.067   1.137   1.186   1.216   1.295   1.330
  1.345   1.384   1.425   1.479   1.488   1.603   1.629   1.714
  1.750   1.763   1.801   1.831   1.873   1.890   1.912   1.941
  1.945   1.989   1.999   2.026   2.059   2.098   2.128   2.152
  2.211   2.265   2.300   2.330   2.404   2.453   2.559   2.594
  2.638   2.676   2.753   2.763   2.800   2.863   2.891   2.917
  3.040   3.242   3.262   3.277   3.380   3.476   3.511   3.911
  4.185   4.326   4.478   4.626
 
 Beta MOs
 -- Occupied --
-24.676 -24.644 -10.275 -10.263 -10.210  -1.185  -1.094  -0.805
 -0.696  -0.605  -0.505  -0.503  -0.476  -0.443  -0.423  -0.405
 -0.384  -0.340  -0.336  -0.326  -0.324
 -- Virtual --
  0.017   0.090   0.120   0.123   0.151   0.156   0.167   0.189
  0.214   0.237   0.493   0.512   0.532   0.536   0.570   0.611
  0.642   0.678   0.768   0.787   0.832   0.851   0.852   0.895
  0.901   0.954   1.067   1.137   1.186   1.216   1.295   1.330
  1.345   1.384   1.425   1.479   1.488   1.603   1.629   1.714
  1.750   1.763   1.801   1.831   1.873   1.890   1.912   1.941
  1.945   1.989   1.999   2.026   2.059   2.098   2.128   2.152
  2.211   2.265   2.300   2.330   2.404   2.453   2.559   2.594
  2.638   2.676   2.753   2.763   2.800   2.863   2.891   2.917
  3.040   3.242   3.262   3.277   3.380   3.476   3.511   3.911
  4.185   4.326   4.478   4.626
 --------------------------------------------------------------
 
          Ground-State Mulliken Net Atomic Charges

     Atom                 Charge (a.u.)    Spin (a.u.)
  --------------------------------------------------------
      1 F                    -0.364245      -0.000000
      2 F                    -0.320408       0.000000
      3 C                    -0.245551      -0.000000
      4 C                     0.070485       0.000000
      5 C                     0.138716       0.000000
      6 H                     0.121848      -0.000000
      7 H                     0.124469       0.000000
      8 H                     0.123592      -0.000000
      9 H                     0.140308       0.000000
     10 H                     0.119242      -0.000000
     11 H                     0.091542       0.000000
  --------------------------------------------------------
  Sum of atomic charges =    -0.000000
  Sum of spin   charges =    -0.000000

 -----------------------------------------------------------------
                    Cartesian Multipole Moments
 -----------------------------------------------------------------
    Charge (ESU x 10^10)
                 0.0000
    Dipole Moment (Debye)
         X      -0.5264      Y      -2.5169      Z      -0.6473
       Tot       2.6516
    Quadrupole Moments (Debye-Ang)
        XX     -33.0755     XY      -0.8437     YY     -29.0505
        XZ      -4.0967     YZ      -0.1402     ZZ     -27.3260
    Octopole Moments (Debye-Ang^2)
       XXX      -3.2412    XXY      -4.5985    XYY      -0.7689
       YYY       6.2135    XXZ      -1.9721    XYZ      -0.9790
       YYZ      -0.7371    XZZ      -0.1328    YZZ       2.1986
       ZZZ      -2.0134
    Hexadecapole Moments (Debye-Ang^3)
      XXXX    -319.2284   XXXY      -7.4916   XXYY     -71.8552
      XYYY      -5.1605   YYYY    -116.3476   XXXZ      -3.3695
      XXYZ      -0.9777   XYYZ       1.9159   YYYZ      -3.1054
      XXZZ     -64.6043   XYZZ      -1.9363   YYZZ     -32.0360
      XZZZ       6.1180   YZZZ      -3.0852   ZZZZ     -87.7612
 -----------------------------------------------------------------
 Calculating analytic gradient of the SCF energy
 Gradient of SCF Energy
            1           2           3           4           5           6
    1   0.0342811   0.0027403  -0.0062271  -0.0208203  -0.0013158  -0.0014021
    2   0.0464937  -0.0041594  -0.0099377  -0.0268790   0.0046201   0.0001177
    3   0.0594603   0.0056354  -0.0080942  -0.0387764  -0.0067080   0.0016390
            7           8           9          10          11
    1   0.0007417  -0.0043638  -0.0025352  -0.0010837  -0.0000153
    2   0.0009119  -0.0050143  -0.0064126   0.0002509   0.0000087
    3   0.0006443  -0.0075298  -0.0076499   0.0011982   0.0001810
 Max gradient component =       5.946E-02
 RMS gradient           =       1.747E-02
 Gradient time:  CPU 8.38 s  wall 0.72 s
 Geometry Optimization Parameters
   NAtoms,    NIC,     NZ,  NCons,   NDum,   NFix, NCnnct, MaxDiis
       11      68       0       1       0       0       0       0

 Cartesian Hessian Update
 Hessian Updated using BFGS Update


** CONSTRAINED OPTIMIZATION IN DELOCALIZED INTERNAL COORDINATES **
   Searching for a Minimum

   Optimization Cycle:   3

                       Coordinates (Angstroms)
     ATOM                X               Y               Z
      1  F         1.7578374764    0.7601192580    0.5631248445
      2  F        -1.6718335362    0.6503433337   -0.4090583187
      3  C        -0.0139086124   -1.0035786783   -0.0217638439
      4  C         1.0923132623   -0.1610062911   -0.6246342885
      5  C        -1.1238857123   -0.1511529374    0.5761791186
      6  H        -0.4305097636   -1.6469195360   -0.8056515734
      7  H         0.4034585985   -1.6481384461    0.7600184512
      8  H         1.8906643104   -0.7762638429   -1.0495352414
      9  H         0.7127522147    0.5160880996   -1.3937666587
     10  H        -0.7276533502    0.4917574062    1.3696181598
     11  H        -1.9185348876   -0.7824483656    0.9926693506
   Point Group: c1    Number of degrees of freedom:    27


   Energy is   -317.581842800

              Constraints and their Current Values
                                        Value     Constraint
   Distance(Angs):        1   4             1.643827     1.900000
 Hessian Updated using BFGS Update
**WARNING** Constraint Gradient Reduced for constraint   1

   Using Lagrange Multiplier Algorithm


 27 Hessian modes will be used to form the next step
  Hessian Eigenvalues:
    -0.938033    0.117597    0.117597    0.181338    0.205936    0.220241
     0.220423    0.221949    0.230062    0.266877    0.342650    0.417404
     0.418123    0.422549    0.574609    0.583675    0.584816    0.794776
     0.797248    0.893797    0.894387    0.897555    0.898086    0.898633
     0.899971    1.069588    1.398972

 Minimum Search - Taking P-RFO Step
 Searching for Lamda that Maximizes Along the Constraint modes Only
 Value Taken    Lamda =   0.02776857
 Searching for Lamda that Minimizes Along All other modes
 Value Taken    Lamda =  -0.06549287
 Calculated Step too Large.  Step scaled by  0.967421
 Step Taken.  Stepsize is  0.300000

                             Maximum     Tolerance    Cnvgd?
         Gradient            0.300000       0.000300      NO
         Displacement        0.276343       0.001200      NO
         Energy change      0.018086       0.000001      NO


 New Cartesian Coordinates Obtained by Inverse Iteration

 Displacement from previous Coordinates is:  0.231935
 ----------------------------------------------------------------
             Standard Nuclear Orientation (Angstroms)
    I     Atom           X                Y                Z
 ----------------------------------------------------------------
    1      F       1.7844429529     0.8113431239     0.6479492536
    2      F      -1.6818067283     0.6493729550    -0.4215864441
    3      C      -0.0213564309    -1.0127012136    -0.0287562115
    4      C       1.0716104177    -0.1885419725    -0.6545173935
    5      C      -1.1222887693    -0.1516759533     0.5742438367
    6      H      -0.4430363069    -1.6621152961    -0.8063249526
    7      H       0.4018098309    -1.6533761418     0.7529648008
    8      H       1.8938782613    -0.7758413428    -1.0646266313
    9      H       0.7057317574     0.5135120458    -1.4029414580
   10      H      -0.7035462424     0.4942311044     1.3529559396
   11      H      -1.9147387426    -0.7754073088     1.0078392604
 ----------------------------------------------------------------
 Nuclear Repulsion Energy =   180.4247082842 hartrees
 There are       21 alpha and       21 beta electrons

                       Distance Matrix (Angstroms)
             F (  1)   F (  2)   C (  3)   C (  4)   C (  5)   H (  6)
   F (  2)  3.631119
   C (  3)  2.654426  2.381995
   C (  4)  1.790061  2.887501  1.505122
   C (  5)  3.062993  1.395141  1.522178  2.514837
   H (  6)  3.632434  2.650576  1.097345  2.118636  2.156103
   H (  7)  2.827993  3.320193  1.095729  2.139013  2.147073  1.773478
   H (  8)  2.337530  3.902597  2.190263  1.090520  3.488946  2.512642
   H (  9)  2.336338  2.584929  2.178616  1.089443  2.773697  2.531595
   H ( 10)  2.605319  2.032256  2.155309  2.765377  1.094958  3.062709
   H ( 11)  4.041193  2.031628  2.171574  3.467870  1.097735  2.498670
             H (  7)   H (  8)   H (  9)   H ( 10)
   H (  8)  2.509975
   H (  9)  3.071759  1.785660
   H ( 10)  2.488778  3.768873  3.095385
   H ( 11)  2.490419  4.335975  3.786825  1.788316
 
 Applying Cartesian multipole field
    Component          Value
    ---------          -----
     (2,0,0)        1.00000E-11
     (0,2,0)        2.00000E-11
     (0,0,2)       -3.00000E-10
 Nucleus-field energy     =    -0.0000000139 hartrees
 Requested basis set is 6-31G(d,p)
 There are 38 shells and 105 basis functions
 A cutoff of  1.0D-14 yielded    721 shell pairs
 There are      5651 function pairs
 Smallest overlap matrix eigenvalue = 4.76E-03
 Guess from superposition of atomic densities
 Warning:  Energy on first SCF cycle will be non-variational
 SAD guess density has 42.000000 electrons

 -----------------------------------------------------------------------
  General SCF calculation program by
  Eric Jon Sundstrom, Paul Horn, Yuezhi Mao, Dmitri Zuev, Alec White,
  David Stuck, Shaama M.S., Shane Yost, Joonho Lee, David Small,
  Daniel Levine, Susi Lehtola, Hugh Burton, Evgeny Epifanovsky
 -----------------------------------------------------------------------
 Exchange:     0.2000 Hartree-Fock + 0.0800 Slater + 0.7200 B88
 Correlation:  0.1900 VWN1RPA + 0.8100 LYP
 Using SG-1 standard quadrature grid
 using 12 threads for integral computing
 -------------------------------------------------------
 OpenMP Integral computing Module                
 Release: version 1.0, May 2013, Q-Chem Inc. Pittsburgh 
 -------------------------------------------------------
 -------------------------------------------------------
 OpenMP BLAS3 based DFT computing Module                
 Release: version 1.0, May 2013, Q-Chem Inc. Pittsburgh 
 -------------------------------------------------------
 A unrestricted SCF calculation will be
 performed using DIIS
 SCF converges when DIIS error is below 1.0e-06
 Alpha HF Exchange    Energy =  -3.75265610515598
 Beta HF Exchange     Energy =  -3.75265610515598
 DFT Correlation      Energy =  -1.84700995594397
 DFT Exchange         Energy = -29.59167949931437
 One-Electron (alpha) Energy = -395.89074628272670
 One-Electron (beta)  Energy = -395.89074628272670
 Total Coulomb        Energy = 332.44583965071956
 ---------------------------------------
  Cycle       Energy         DIIS error
 ---------------------------------------
    1    -317.8549463100      2.89e-02  
 Alpha HF Exchange    Energy =  -3.81199221237837
 Beta HF Exchange     Energy =  -3.81199221237837
 DFT Correlation      Energy =  -1.87231347358941
 DFT Exchange         Energy = -30.30342154923907
 One-Electron (alpha) Energy = -399.33360942831058
 One-Electron (beta)  Energy = -399.33360942831052
 Total Coulomb        Energy = 340.55552047873499
    2    -317.4867095552      3.99e-03  
 Alpha HF Exchange    Energy =  -3.71547035083500
 Beta HF Exchange     Energy =  -3.71547035083500
 DFT Correlation      Energy =  -1.84879935329906
 DFT Exchange         Energy = -29.56706997620552
 One-Electron (alpha) Energy = -395.62141929440031
 One-Electron (beta)  Energy = -395.62141929440020
 Total Coulomb        Energy = 332.30543132120272
    3    -317.3595090285      7.08e-03  
 Alpha HF Exchange    Energy =  -3.76888043509233
 Beta HF Exchange     Energy =  -3.76888043509233
 DFT Correlation      Energy =  -1.85954723705536
 DFT Exchange         Energy = -29.96376755357633
 One-Electron (alpha) Energy = -397.41550778106676
 One-Electron (beta)  Energy = -397.41550778106665
 Total Coulomb        Energy = 336.21739945869513
    4    -317.5499834940      1.41e-03  
 Alpha HF Exchange    Energy =  -3.77031033909169
 Beta HF Exchange     Energy =  -3.77031033909170
 DFT Correlation      Energy =  -1.86169206083292
 DFT Exchange         Energy = -29.98444531978796
 One-Electron (alpha) Energy = -397.73915013552227
 One-Electron (beta)  Energy = -397.73915013552266
 Total Coulomb        Energy = 336.88092375102519
    5    -317.5594263085      3.13e-04  
 Alpha HF Exchange    Energy =  -3.77004818466801
 Beta HF Exchange     Energy =  -3.77004818466801
 DFT Correlation      Energy =  -1.86146848628290
 DFT Exchange         Energy = -29.98164042315079
 One-Electron (alpha) Energy = -397.69274740488555
 One-Electron (beta)  Energy = -397.69274740488578
 Total Coulomb        Energy = 336.78417335117575
    6    -317.5598184671      8.56e-05  
 Alpha HF Exchange    Energy =  -3.77026094143491
 Beta HF Exchange     Energy =  -3.77026094143490
 DFT Correlation      Energy =  -1.86141027098817
 DFT Exchange         Energy = -29.98274542261165
 One-Electron (alpha) Energy = -397.68716575845377
 One-Electron (beta)  Energy = -397.68716575845360
 Total Coulomb        Energy = 336.77445514186826
    7    -317.5598456812      3.11e-05  
 Alpha HF Exchange    Energy =  -3.77027065369924
 Beta HF Exchange     Energy =  -3.77027065369923
 DFT Correlation      Energy =  -1.86143959838229
 DFT Exchange         Energy = -29.98287782403718
 One-Electron (alpha) Energy = -397.69208257409406
 One-Electron (beta)  Energy = -397.69208257409400
 Total Coulomb        Energy = 336.78446606610021
    8    -317.5598495416      4.23e-06  
 Alpha HF Exchange    Energy =  -3.77029599031082
 Beta HF Exchange     Energy =  -3.77029599031082
 DFT Correlation      Energy =  -1.86144549446662
 DFT Exchange         Energy = -29.98307588656634
 One-Electron (alpha) Energy = -397.69304960261906
 One-Electron (beta)  Energy = -397.69304960261911
 Total Coulomb        Energy = 336.78665468251580
    9    -317.5598496141      1.38e-06  
 Alpha HF Exchange    Energy =  -3.77029346730930
 Beta HF Exchange     Energy =  -3.77029346730930
 DFT Correlation      Energy =  -1.86144416579603
 DFT Exchange         Energy = -29.98304957488504
 One-Electron (alpha) Energy = -397.69279520208556
 One-Electron (beta)  Energy = -397.69279520208562
 Total Coulomb        Energy = 336.78611318550833
   10    -317.5598496237      1.59e-07  Convergence criterion met
 ---------------------------------------
 SCF time:   CPU 23.78s  wall 2.00s 
<S^2> =         -0.000000000
 Alpha HF Exchange    Energy =  -3.77029346730930
 Beta HF Exchange     Energy =  -3.77029346730930
 DFT Correlation      Energy =  -1.86144416579603
 DFT Exchange         Energy = -29.98304957488504
 One-Electron (alpha) Energy = -397.69279520208556
 One-Electron (beta)  Energy = -397.69279520208562
 Total Coulomb        Energy = 336.78611318550833
 Nuclear repulsion Energy = 180.42470827028026
 SCF   energy in the final basis set =     -317.5598496237
 Total energy in the final basis set =     -317.5598496237
 
 --------------------------------------------------------------
 
                    Orbital Energies (a.u.)
 --------------------------------------------------------------
 
 Alpha MOs
 -- Occupied --
-24.677 -24.627 -10.283 -10.266 -10.217  -1.182  -1.063  -0.812
 -0.701  -0.609  -0.507  -0.504  -0.477  -0.437  -0.423  -0.402
 -0.368  -0.339  -0.336  -0.317  -0.314
 -- Virtual --
 -0.030   0.087   0.113   0.121   0.148   0.152   0.162   0.186
  0.211   0.235   0.489   0.510   0.526   0.538   0.565   0.611
  0.635   0.675   0.761   0.785   0.830   0.846   0.852   0.894
  0.898   0.953   1.061   1.136   1.187   1.219   1.276   1.330
  1.338   1.379   1.417   1.470   1.489   1.594   1.611   1.701
  1.736   1.756   1.800   1.836   1.869   1.897   1.914   1.930
  1.942   1.982   1.991   2.021   2.036   2.093   2.109   2.142
  2.194   2.255   2.292   2.317   2.388   2.430   2.529   2.577
  2.606   2.654   2.666   2.756   2.785   2.854   2.876   2.892
  3.030   3.235   3.256   3.272   3.375   3.476   3.504   3.823
  4.166   4.305   4.460   4.616
 
 Beta MOs
 -- Occupied --
-24.677 -24.627 -10.283 -10.266 -10.217  -1.182  -1.063  -0.812
 -0.701  -0.609  -0.507  -0.504  -0.477  -0.437  -0.423  -0.402
 -0.368  -0.339  -0.336  -0.317  -0.314
 -- Virtual --
 -0.030   0.087   0.113   0.121   0.148   0.152   0.162   0.186
  0.211   0.235   0.489   0.510   0.526   0.538   0.565   0.611
  0.635   0.675   0.761   0.785   0.830   0.846   0.852   0.894
  0.898   0.953   1.061   1.136   1.187   1.219   1.276   1.330
  1.338   1.379   1.417   1.470   1.489   1.594   1.611   1.701
  1.736   1.756   1.800   1.836   1.869   1.897   1.914   1.930
  1.942   1.982   1.991   2.021   2.036   2.093   2.109   2.142
  2.194   2.255   2.292   2.317   2.388   2.430   2.529   2.577
  2.606   2.654   2.666   2.756   2.785   2.854   2.876   2.892
  3.030   3.235   3.256   3.272   3.375   3.476   3.504   3.823
  4.166   4.305   4.460   4.616
 --------------------------------------------------------------
 
          Ground-State Mulliken Net Atomic Charges

     Atom                 Charge (a.u.)    Spin (a.u.)
  --------------------------------------------------------
      1 F                    -0.371104      -0.000000
      2 F                    -0.324050       0.000000
      3 C                    -0.243539      -0.000000
      4 C                     0.031603      -0.000000
      5 C                     0.136213       0.000000
      6 H                     0.127768       0.000000
      7 H                     0.131912       0.000000
      8 H                     0.136081       0.000000
      9 H                     0.152733       0.000000
     10 H                     0.128069       0.000000
     11 H                     0.094313      -0.000000
  --------------------------------------------------------
  Sum of atomic charges =    -0.000000
  Sum of spin   charges =     0.000000

 -----------------------------------------------------------------
                    Cartesian Multipole Moments
 -----------------------------------------------------------------
    Charge (ESU x 10^10)
                 0.0000
    Dipole Moment (Debye)
         X      -0.7482      Y      -2.8532      Z      -0.9559
       Tot       3.1007
    Quadrupole Moments (Debye-Ang)
        XX     -33.5656     XY      -1.2577     YY     -29.0254
        XZ      -4.7350     YZ      -0.2842     ZZ     -27.1814
    Octopole Moments (Debye-Ang^2)
       XXX      -4.1030    XXY      -5.6454    XYY      -1.0703
       YYY       5.3220    XXZ      -3.0065    XYZ      -1.1872
       YYZ      -1.1164    XZZ      -0.1999    YZZ       1.8802
       ZZZ      -2.9285
    Hexadecapole Moments (Debye-Ang^3)
      XXXX    -323.6820   XXXY     -10.5385   XXYY     -73.2312
      XYYY      -7.0875   YYYY    -119.1662   XXXZ      -8.3462
      XXYZ      -1.8892   XYYZ       0.6651   YYYZ      -5.0565
      XXZZ     -65.6778   XYZZ      -2.6762   YYZZ     -33.0371
      XZZZ       2.6088   YZZZ      -5.0548   ZZZZ     -91.2824
 -----------------------------------------------------------------
 Calculating analytic gradient of the SCF energy
 Gradient of SCF Energy
            1           2           3           4           5           6
    1   0.0364201  -0.0005766  -0.0061562  -0.0225768   0.0008128  -0.0009501
    2   0.0501663   0.0008655  -0.0093299  -0.0307518   0.0007851   0.0002048
    3   0.0646735  -0.0005605  -0.0086791  -0.0422178  -0.0022311   0.0017225
            7           8           9          10          11
    1   0.0007223  -0.0050635  -0.0018394  -0.0004628  -0.0003298
    2   0.0008510  -0.0040209  -0.0077690  -0.0002821  -0.0007189
    3   0.0008420  -0.0087001  -0.0078534   0.0018795   0.0011246
 Max gradient component =       6.467E-02
 RMS gradient           =       1.885E-02
 Gradient time:  CPU 8.45 s  wall 0.74 s
 Geometry Optimization Parameters
   NAtoms,    NIC,     NZ,  NCons,   NDum,   NFix, NCnnct, MaxDiis
       11      68       0       1       0       0       0       0

 Cartesian Hessian Update
 Hessian Updated using BFGS Update


** CONSTRAINED OPTIMIZATION IN DELOCALIZED INTERNAL COORDINATES **
   Searching for a Minimum

   Optimization Cycle:   4

                       Coordinates (Angstroms)
     ATOM                X               Y               Z
      1  F         1.7844429529    0.8113431239    0.6479492536
      2  F        -1.6818067283    0.6493729550   -0.4215864441
      3  C        -0.0213564309   -1.0127012136   -0.0287562115
      4  C         1.0716104177   -0.1885419725   -0.6545173935
      5  C        -1.1222887693   -0.1516759533    0.5742438367
      6  H        -0.4430363069   -1.6621152961   -0.8063249526
      7  H         0.4018098309   -1.6533761418    0.7529648008
      8  H         1.8938782613   -0.7758413428   -1.0646266313
      9  H         0.7057317574    0.5135120458   -1.4029414580
     10  H        -0.7035462424    0.4942311044    1.3529559396
     11  H        -1.9147387426   -0.7754073088    1.0078392604
   Point Group: c1    Number of degrees of freedom:    27


   Energy is   -317.559849624

              Constraints and their Current Values
                                        Value     Constraint
   Distance(Angs):        1   4             1.790061     1.900000
 Hessian Updated using BFGS Update

   Using Lagrange Multiplier Algorithm


 28 Hessian modes will be used to form the next step
  Hessian Eigenvalues:
    -0.968296    0.117596    0.117603    0.181304    0.205919    0.219322
     0.220304    0.221676    0.226271    0.266809    0.342530    0.416880
     0.418123    0.418147    0.420101    0.575123    0.581645    0.583920
     0.788788    0.796771    0.893565    0.894387    0.897805    0.898198
     0.898916    0.899850    1.051437    1.427963

 Minimum Search - Taking P-RFO Step
 Searching for Lamda that Maximizes Along the Constraint modes Only
 Value Taken    Lamda =   0.01658600
 Searching for Lamda that Minimizes Along All other modes
 Value Taken    Lamda =  -0.03069779
 Step Taken.  Stepsize is  0.246811

                             Maximum     Tolerance    Cnvgd?
         Gradient            0.207754       0.000300      NO
         Displacement        0.202507       0.001200      NO
         Energy change      0.021993       0.000001      NO


 New Cartesian Coordinates Obtained by Inverse Iteration

 Displacement from previous Coordinates is:  0.183200
 ----------------------------------------------------------------
             Standard Nuclear Orientation (Angstroms)
    I     Atom           X                Y                Z
 ----------------------------------------------------------------
    1      F       1.7858192063     0.8378460259     0.7138259020
    2      F      -1.6854268120     0.6440513761    -0.4319815117
    3      C      -0.0264381314    -1.0210690173    -0.0345427294
    4      C       1.0500330652    -0.2141345755    -0.6831036521
    5      C      -1.1167896569    -0.1506708576     0.5728137941
    6      H      -0.4537583703    -1.6768969326    -0.8056223617
    7      H       0.4035822941    -1.6578724398     0.7461228350
    8      H       1.9002169994    -0.7699505051    -1.0719931705
    9      H       0.6992088990     0.5196942725    -1.4042397855
   10      H      -0.6779767128     0.5018144110     1.3333839918
   11      H      -1.9077707808    -0.7640117578     1.0225366880
 ----------------------------------------------------------------
 Nuclear Repulsion Energy =   179.1746409893 hartrees
 There are       21 alpha and       21 beta electrons

                       Distance Matrix (Angstroms)
             F (  1)   F (  2)   C (  3)   C (  4)   C (  5)   H (  6)
   F (  2)  3.660598
   C (  3)  2.701832  2.383868
   C (  4)  1.897223  2.877896  1.493508
   C (  5)  3.069558  1.401622  1.521625  2.505290
   H (  6)  3.694369  2.653943  1.098761  2.101446  2.160801
   H (  7)  2.853109  3.324266  1.095388  2.131893  2.147842  1.772938
   H (  8)  2.405670  3.907155  2.202581  1.087648  3.491594  2.536672
   H (  9)  2.401696  2.578224  2.185540  1.087023  2.766944  2.551997
   H ( 10)  2.562628  2.037573  2.148232  2.750422  1.093966  3.061438
   H ( 11)  4.037804  2.036591  2.173225  3.458349  1.097310  2.507923
             H (  7)   H (  8)   H (  9)   H ( 10)
   H (  8)  2.516717
   H (  9)  3.074614  1.793319
   H ( 10)  2.485738  3.748374  3.064563
   H ( 11)  2.493541  4.346017  3.785959  1.792020
 
 Applying Cartesian multipole field
    Component          Value
    ---------          -----
     (2,0,0)        1.00000E-11
     (0,2,0)        2.00000E-11
     (0,0,2)       -3.00000E-10
 Nucleus-field energy     =    -0.0000000150 hartrees
 Requested basis set is 6-31G(d,p)
 There are 38 shells and 105 basis functions
 A cutoff of  1.0D-14 yielded    721 shell pairs
 There are      5651 function pairs
 Smallest overlap matrix eigenvalue = 4.79E-03
 Guess from superposition of atomic densities
 Warning:  Energy on first SCF cycle will be non-variational
 SAD guess density has 42.000000 electrons

 -----------------------------------------------------------------------
  General SCF calculation program by
  Eric Jon Sundstrom, Paul Horn, Yuezhi Mao, Dmitri Zuev, Alec White,
  David Stuck, Shaama M.S., Shane Yost, Joonho Lee, David Small,
  Daniel Levine, Susi Lehtola, Hugh Burton, Evgeny Epifanovsky
 -----------------------------------------------------------------------
 Exchange:     0.2000 Hartree-Fock + 0.0800 Slater + 0.7200 B88
 Correlation:  0.1900 VWN1RPA + 0.8100 LYP
 Using SG-1 standard quadrature grid
 using 12 threads for integral computing
 -------------------------------------------------------
 OpenMP Integral computing Module                
 Release: version 1.0, May 2013, Q-Chem Inc. Pittsburgh 
 -------------------------------------------------------
 -------------------------------------------------------
 OpenMP BLAS3 based DFT computing Module                
 Release: version 1.0, May 2013, Q-Chem Inc. Pittsburgh 
 -------------------------------------------------------
 A unrestricted SCF calculation will be
 performed using DIIS
 SCF converges when DIIS error is below 1.0e-06
 Alpha HF Exchange    Energy =  -3.74935893567439
 Beta HF Exchange     Energy =  -3.74935893567439
 DFT Correlation      Energy =  -1.84539954203999
 DFT Exchange         Energy = -29.58447059954230
 One-Electron (alpha) Energy = -394.64417968843725
 One-Electron (beta)  Energy = -394.64417968843725
 Total Coulomb        Energy = 331.21864079638704
 ---------------------------------------
  Cycle       Energy         DIIS error
 ---------------------------------------
    1    -317.8236656192      2.87e-02  
 Alpha HF Exchange    Energy =  -3.81430935158662
 Beta HF Exchange     Energy =  -3.81430935158662
 DFT Correlation      Energy =  -1.87145021966823
 DFT Exchange         Energy = -30.31987757426643
 One-Electron (alpha) Energy = -398.17487064807284
 One-Electron (beta)  Energy = -398.17487064807290
 Total Coulomb        Energy = 339.53890574432398
    2    -317.4561410747      4.33e-03  
 Alpha HF Exchange    Energy =  -3.70462044373709
 Beta HF Exchange     Energy =  -3.70462044373710
 DFT Correlation      Energy =  -1.84581548919136
 DFT Exchange         Energy = -29.48997718915542
 One-Electron (alpha) Energy = -394.12982470822749
 One-Electron (beta)  Energy = -394.12982470822772
 Total Coulomb        Energy = 330.65682153560039
    3    -317.1732204724      9.31e-03  
 Alpha HF Exchange    Energy =  -3.76536492351320
 Beta HF Exchange     Energy =  -3.76536492351320
 DFT Correlation      Energy =  -1.85739451356742
 DFT Exchange         Energy = -29.93892113919589
 One-Electron (alpha) Energy = -396.05345184851166
 One-Electron (beta)  Energy = -396.05345184851160
 Total Coulomb        Energy = 334.73004171674290
    4    -317.5292665058      1.70e-03  
 Alpha HF Exchange    Energy =  -3.76872216551083
 Beta HF Exchange     Energy =  -3.76872216551084
 DFT Correlation      Energy =  -1.86040794454073
 DFT Exchange         Energy = -29.97816250694642
 One-Electron (alpha) Energy = -396.52025496518303
 One-Electron (beta)  Energy = -396.52025496518343
 Total Coulomb        Energy = 335.69827025273747
    5    -317.5436134859      4.03e-04  
 Alpha HF Exchange    Energy =  -3.76831069360890
 Beta HF Exchange     Energy =  -3.76831069360890
 DFT Correlation      Energy =  -1.86016289918651
 DFT Exchange         Energy = -29.97422840569883
 One-Electron (alpha) Energy = -396.46777615117378
 One-Electron (beta)  Energy = -396.46777615117389
 Total Coulomb        Energy = 335.58769693675919
    6    -317.5442270834      1.32e-04  
 Alpha HF Exchange    Energy =  -3.76864919259086
 Beta HF Exchange     Energy =  -3.76864919259086
 DFT Correlation      Energy =  -1.86008388612715
 DFT Exchange         Energy = -29.97599601641944
 One-Electron (alpha) Energy = -396.46007167394419
 One-Electron (beta)  Energy = -396.46007167394419
 Total Coulomb        Energy = 335.57458308739280
    7    -317.5442975740      4.06e-05  
 Alpha HF Exchange    Energy =  -3.76870368858518
 Beta HF Exchange     Energy =  -3.76870368858519
 DFT Correlation      Energy =  -1.86011971138791
 DFT Exchange         Energy = -29.97640334295861
 One-Electron (alpha) Energy = -396.46624521038348
 One-Electron (beta)  Energy = -396.46624521038353
 Total Coulomb        Energy = 335.58747567571919
    8    -317.5443042023      8.29e-06  
 Alpha HF Exchange    Energy =  -3.76875547016474
 Beta HF Exchange     Energy =  -3.76875547016474
 DFT Correlation      Energy =  -1.86012983636549
 DFT Exchange         Energy = -29.97678533359757
 One-Electron (alpha) Energy = -396.46788733329555
 One-Electron (beta)  Energy = -396.46788733329566
 Total Coulomb        Energy = 335.59125532883189
    9    -317.5443044738      2.69e-06  
 Alpha HF Exchange    Energy =  -3.76875710542355
 Beta HF Exchange     Energy =  -3.76875710542355
 DFT Correlation      Energy =  -1.86012866877683
 DFT Exchange         Energy = -29.97678117064457
 One-Electron (alpha) Energy = -396.46763591360724
 One-Electron (beta)  Energy = -396.46763591360724
 Total Coulomb        Energy = 335.59075039265514
   10    -317.5443045106      2.30e-07  Convergence criterion met
 ---------------------------------------
 SCF time:   CPU 23.71s  wall 2.00s 
<S^2> =         -0.000000000
 Alpha HF Exchange    Energy =  -3.76875710542355
 Beta HF Exchange     Energy =  -3.76875710542355
 DFT Correlation      Energy =  -1.86012866877683
 DFT Exchange         Energy = -29.97678117064457
 One-Electron (alpha) Energy = -396.46763591360724
 One-Electron (beta)  Energy = -396.46763591360724
 Total Coulomb        Energy = 335.59075039265514
 Nuclear repulsion Energy = 179.17464097425690
 SCF   energy in the final basis set =     -317.5443045106
 Total energy in the final basis set =     -317.5443045106
 
 --------------------------------------------------------------
 
                    Orbital Energies (a.u.)
 --------------------------------------------------------------
 
 Alpha MOs
 -- Occupied --
-24.677 -24.613 -10.287 -10.268 -10.221  -1.180  -1.044  -0.818
 -0.704  -0.612  -0.510  -0.505  -0.479  -0.436  -0.425  -0.405
 -0.352  -0.341  -0.335  -0.305  -0.304
 -- Virtual --
 -0.056   0.085   0.109   0.119   0.147   0.151   0.159   0.185
  0.209   0.235   0.484   0.510   0.523   0.541   0.563   0.613
  0.629   0.674   0.755   0.783   0.829   0.844   0.854   0.890
[...]
   Distance(Angs):        1   4             1.899999     1.900000
 Hessian Updated using BFGS Update

 26 Hessian modes will be used to form the next step
  Hessian Eigenvalues:
     0.004193    0.039165    0.045086    0.117445    0.157179    0.192001
     0.212600    0.219955    0.226043    0.267774    0.360333    0.403244
     0.415509    0.421674    0.520238    0.562496    0.579585    0.719564
     0.760317    0.820154    0.881698    0.894336    0.897921    0.898084
     0.899007    1.235396

 Minimum Search - Taking Simple RFO Step
 Searching for Lamda that Minimizes Along All modes
 Value Taken    Lamda =   0.00000000
 Step Taken.  Stepsize is  0.004806

                             Maximum     Tolerance    Cnvgd?
         Gradient           0.000320      0.000300      NO
         Displacement       0.003310      0.001200      NO
         Energy change     -0.000001      0.000001     YES


 New Cartesian Coordinates Obtained by Inverse Iteration

 Displacement from previous Coordinates is:  0.003880
 ----------------------------------------------------------------
             Standard Nuclear Orientation (Angstroms)
    I     Atom           X                Y                Z
 ----------------------------------------------------------------
    1      F       1.7046523013     0.7799854664     0.7314794699
    2      F      -1.7042240002     0.6007573490    -0.4470472266
    3      C      -0.0315450202    -1.0340652964    -0.0475101144
    4      C       1.0272801220    -0.2394006163    -0.7217985268
    5      C      -1.0992486131    -0.1410511559     0.5683649744
    6      H      -0.4910638564    -1.6930935868    -0.8012178267
    7      H       0.4147228947    -1.6744405357     0.7190073417
    8      H       1.9416885744    -0.7384603175    -1.0239215102
    9      H       0.7008370337     0.5747110788    -1.3601179314
   10      H      -0.6215378720     0.5473755610     1.2685293446
   11      H      -1.8708615641    -0.7335179467     1.0714320055
 ----------------------------------------------------------------
 Nuclear Repulsion Energy =   180.6778779815 hartrees
 There are       21 alpha and       21 beta electrons

                       Distance Matrix (Angstroms)
             F (  1)   F (  2)   C (  3)   C (  4)   C (  5)   H (  6)
   F (  2)  3.611300
   C (  3)  2.629066  2.372789
   C (  4)  1.899999  2.870970  1.485688
   C (  5)  2.955804  1.395470  1.522093  2.489241
   H (  6)  3.645058  2.618959  1.101613  2.103544  2.157425
   H (  7)  2.772775  3.320564  1.093976  2.123791  2.160112  1.769712
   H (  8)  2.333087  3.926699  2.221354  1.084657  3.484189  2.622824
   H (  9)  2.329069  2.572682  2.201700  1.084802  2.733436  2.622200
   H ( 10)  2.398685  2.029350  2.140329  2.701670  1.091957  3.052962
   H ( 11)  3.897507  2.028260  2.173809  3.443698  1.095208  2.516236
             H (  7)   H (  8)   H (  9)   H ( 10)
   H (  8)  2.499097
   H (  9)  3.076249  1.837705
   H ( 10)  2.512425  3.671353  2.942653
   H ( 11)  2.496685  4.350410  3.773265  1.800096
 
 Applying Cartesian multipole field
    Component          Value
    ---------          -----
     (2,0,0)        1.00000E-11
     (0,2,0)        2.00000E-11
     (0,0,2)       -3.00000E-10
 Nucleus-field energy     =    -0.0000000155 hartrees
 Requested basis set is 6-31G(d,p)
 There are 38 shells and 105 basis functions
 A cutoff of  1.0D-14 yielded    721 shell pairs
 There are      5651 function pairs
 Smallest overlap matrix eigenvalue = 4.78E-03
 Guess from superposition of atomic densities
 Warning:  Energy on first SCF cycle will be non-variational
 SAD guess density has 42.000000 electrons

 -----------------------------------------------------------------------
  General SCF calculation program by
  Eric Jon Sundstrom, Paul Horn, Yuezhi Mao, Dmitri Zuev, Alec White,
  David Stuck, Shaama M.S., Shane Yost, Joonho Lee, David Small,
  Daniel Levine, Susi Lehtola, Hugh Burton, Evgeny Epifanovsky
 -----------------------------------------------------------------------
 Exchange:     0.2000 Hartree-Fock + 0.0800 Slater + 0.7200 B88
 Correlation:  0.1900 VWN1RPA + 0.8100 LYP
 Using SG-1 standard quadrature grid
 using 12 threads for integral computing
 -------------------------------------------------------
 OpenMP Integral computing Module                
 Release: version 1.0, May 2013, Q-Chem Inc. Pittsburgh 
 -------------------------------------------------------
 -------------------------------------------------------
 OpenMP BLAS3 based DFT computing Module                
 Release: version 1.0, May 2013, Q-Chem Inc. Pittsburgh 
 -------------------------------------------------------
 A unrestricted SCF calculation will be
 performed using DIIS
 SCF converges when DIIS error is below 1.0e-06
 Alpha HF Exchange    Energy =  -3.75159512212907
 Beta HF Exchange     Energy =  -3.75159512212907
 DFT Correlation      Energy =  -1.84657713464675
 DFT Exchange         Energy = -29.58927188395565
 One-Electron (alpha) Energy = -396.13635616363450
 One-Electron (beta)  Energy = -396.13635616363450
 Total Coulomb        Energy = 332.68938756440650
 ---------------------------------------
  Cycle       Energy         DIIS error
 ---------------------------------------
    1    -317.8444860597      2.89e-02  
 Alpha HF Exchange    Energy =  -3.81688905505631
 Beta HF Exchange     Energy =  -3.81688905505631
 DFT Correlation      Energy =  -1.87284183879913
 DFT Exchange         Energy = -30.33693105898899
 One-Electron (alpha) Energy = -399.74803225167977
 One-Electron (beta)  Energy = -399.74803225167983
 Total Coulomb        Energy = 341.20687765452124
    2    -317.4548598907      4.42e-03  
 Alpha HF Exchange    Energy =  -3.70430503822001
 Beta HF Exchange     Energy =  -3.70430503822001
 DFT Correlation      Energy =  -1.84682768799210
 DFT Exchange         Energy = -29.48734976432215
 One-Electron (alpha) Energy = -395.54958815194476
 One-Electron (beta)  Energy = -395.54958815194493
 Total Coulomb        Energy = 332.02870243215102
    3    -317.1353834345      9.74e-03  
 Alpha HF Exchange    Energy =  -3.76682459479924
 Beta HF Exchange     Energy =  -3.76682459479924
 DFT Correlation      Energy =  -1.85858393760984
 DFT Exchange         Energy = -29.94779596281193
 One-Electron (alpha) Energy = -397.56880956916814
 One-Electron (beta)  Energy = -397.56880956916797
 Total Coulomb        Energy = 336.26922776973981
    4    -317.5305424926      1.74e-03  
 Alpha HF Exchange    Energy =  -3.77048168026954
 Beta HF Exchange     Energy =  -3.77048168026954
 DFT Correlation      Energy =  -1.86175794256894
 DFT Exchange         Energy = -29.99022288218718
 One-Electron (alpha) Energy = -398.05546883002495
 One-Electron (beta)  Energy = -398.05546883002489
 Total Coulomb        Energy = 337.28022711884108
    5    -317.5457767605      4.07e-04  
 Alpha HF Exchange    Energy =  -3.76995047903142
 Beta HF Exchange     Energy =  -3.76995047903142
 DFT Correlation      Energy =  -1.86146947015513
 DFT Exchange         Energy = -29.98535437392001
 One-Electron (alpha) Energy = -397.99702649066711
 One-Electron (beta)  Energy = -397.99702649066728
 Total Coulomb        Energy = 337.15649701946523
    6    -317.5464027980      1.34e-04  
 Alpha HF Exchange    Energy =  -3.77029839497015
 Beta HF Exchange     Energy =  -3.77029839497015
 DFT Correlation      Energy =  -1.86139214391342
 DFT Exchange         Energy = -29.98716294012642
 One-Electron (alpha) Energy = -397.98982842913409
 One-Electron (beta)  Energy = -397.98982842913404
 Total Coulomb        Energy = 337.14445476094471
    7    -317.5464760053      4.23e-05  
 Alpha HF Exchange    Energy =  -3.77035462345298
 Beta HF Exchange     Energy =  -3.77035462345298
 DFT Correlation      Energy =  -1.86142871286156
 DFT Exchange         Energy = -29.98757712974867
 One-Electron (alpha) Energy = -397.99626735554921
 One-Electron (beta)  Energy = -397.99626735554932
 Total Coulomb        Energy = 337.15788868287211
    8    -317.5464831517      9.39e-06  
 Alpha HF Exchange    Energy =  -3.77041291769142
 Beta HF Exchange     Energy =  -3.77041291769141
 DFT Correlation      Energy =  -1.86143947408691
 DFT Exchange         Energy = -29.98800219861814
 One-Electron (alpha) Energy = -397.99804410579941
 One-Electron (beta)  Energy = -397.99804410579918
 Total Coulomb        Energy = 337.16199425314568
    9    -317.5464835005      2.98e-06  
 Alpha HF Exchange    Energy =  -3.77041601906756
 Beta HF Exchange     Energy =  -3.77041601906757
 DFT Correlation      Energy =  -1.86143850781844
 DFT Exchange         Energy = -29.98800696182666
 One-Electron (alpha) Energy = -397.99783619675793
 One-Electron (beta)  Energy = -397.99783619675804
 Total Coulomb        Energy = 337.16158838984080
   10    -317.5464835454      2.41e-07  Convergence criterion met
 ---------------------------------------
 SCF time:   CPU 23.67s  wall 2.00s 
<S^2> =         -0.000000000
 Alpha HF Exchange    Energy =  -3.77041601906756
 Beta HF Exchange     Energy =  -3.77041601906757
 DFT Correlation      Energy =  -1.86143850781844
 DFT Exchange         Energy = -29.98800696182666
 One-Electron (alpha) Energy = -397.99783619675793
 One-Electron (beta)  Energy = -397.99783619675804
 Total Coulomb        Energy = 337.16158838984080
 Nuclear repulsion Energy = 180.67787796601755
 SCF   energy in the final basis set =     -317.5464835454
 Total energy in the final basis set =     -317.5464835454
 
 --------------------------------------------------------------
 
                    Orbital Energies (a.u.)
 --------------------------------------------------------------
 
 Alpha MOs
 -- Occupied --
-24.677 -24.606 -10.287 -10.264 -10.219  -1.182  -1.039  -0.817
 -0.702  -0.613  -0.513  -0.504  -0.481  -0.437  -0.426  -0.408
 -0.347  -0.340  -0.332  -0.300  -0.299
 -- Virtual --
 -0.054   0.087   0.110   0.121   0.148   0.155   0.163   0.188
  0.211   0.238   0.483   0.513   0.528   0.535   0.570   0.610
  0.627   0.677   0.757   0.786   0.828   0.846   0.860   0.890
  0.920   0.956   1.064   1.138   1.186   1.234   1.263   1.332
  1.349   1.372   1.415   1.465   1.488   1.610   1.616   1.719
  1.730   1.750   1.793   1.858   1.873   1.899   1.915   1.922
  1.953   1.987   1.999   2.014   2.044   2.081   2.118   2.142
  2.182   2.255   2.302   2.327   2.387   2.428   2.497   2.554
  2.605   2.624   2.665   2.765   2.774   2.861   2.876   2.892
  3.033   3.236   3.265   3.274   3.383   3.477   3.509   3.803
  4.164   4.328   4.460   4.622
 
 Beta MOs
 -- Occupied --
-24.677 -24.606 -10.287 -10.264 -10.219  -1.182  -1.039  -0.817
 -0.702  -0.613  -0.513  -0.504  -0.481  -0.437  -0.426  -0.408
 -0.347  -0.340  -0.332  -0.300  -0.299
 -- Virtual --
 -0.054   0.087   0.110   0.121   0.148   0.155   0.163   0.188
  0.211   0.238   0.483   0.513   0.528   0.535   0.570   0.610
  0.627   0.677   0.757   0.786   0.828   0.846   0.860   0.890
  0.920   0.956   1.064   1.138   1.186   1.234   1.263   1.332
  1.349   1.372   1.415   1.465   1.488   1.610   1.616   1.719
  1.730   1.750   1.793   1.858   1.873   1.899   1.915   1.922
  1.953   1.987   1.999   2.014   2.044   2.081   2.118   2.142
  2.182   2.255   2.302   2.327   2.387   2.428   2.497   2.554
  2.605   2.624   2.665   2.765   2.774   2.861   2.876   2.892
  3.033   3.236   3.265   3.274   3.383   3.477   3.509   3.803
  4.164   4.328   4.460   4.622
 --------------------------------------------------------------
 
          Ground-State Mulliken Net Atomic Charges

     Atom                 Charge (a.u.)    Spin (a.u.)
  --------------------------------------------------------
      1 F                    -0.393682      -0.000000
      2 F                    -0.326490       0.000000
      3 C                    -0.236571       0.000000
      4 C                     0.006480       0.000000
      5 C                     0.131708       0.000000
      6 H                     0.128811      -0.000000
      7 H                     0.138049      -0.000000
      8 H                     0.151514       0.000000
      9 H                     0.167627      -0.000000
     10 H                     0.138189       0.000000
     11 H                     0.094363      -0.000000
  --------------------------------------------------------
  Sum of atomic charges =    -0.000000
  Sum of spin   charges =     0.000000

 -----------------------------------------------------------------
                    Cartesian Multipole Moments
 -----------------------------------------------------------------
    Charge (ESU x 10^10)
                -0.0000
    Dipole Moment (Debye)
         X      -0.7028      Y      -2.9397      Z      -1.3081
       Tot       3.2935
    Quadrupole Moments (Debye-Ang)
        XX     -33.3787     XY      -1.5204     YY     -28.6802
        XZ      -5.3450     YZ      -0.5493     ZZ     -27.3750
    Octopole Moments (Debye-Ang^2)
       XXX      -0.9050    XXY      -5.2965    XYY      -0.4480
       YYY       6.8425    XXZ      -3.6489    XYZ      -1.4295
       YYZ      -1.1935    XZZ       0.0954    YZZ       2.3453
       ZZZ      -2.8354
    Hexadecapole Moments (Debye-Ang^3)
      XXXX    -309.9171   XXXY     -10.2151   XXYY     -70.9193
      XYYY      -6.0855   YYYY    -117.8705   XXXZ     -12.8969
      XXYZ      -2.7536   XYYZ      -0.3570   YYYZ      -7.3265
      XXZZ     -65.0190   XYZZ      -2.2781   YYZZ     -33.6186
      XZZZ      -0.2033   YZZZ      -7.3477   ZZZZ     -96.7241
 -----------------------------------------------------------------
 Calculating analytic gradient of the SCF energy
 Gradient of SCF Energy
            1           2           3           4           5           6
    1   0.0279055   0.0000407  -0.0000948  -0.0278252  -0.0000666  -0.0000175
    2   0.0419871  -0.0000616   0.0000072  -0.0419079  -0.0000325  -0.0000521
    3   0.0599126   0.0000704   0.0001304  -0.0598370  -0.0000616  -0.0000587
            7           8           9          10          11
    1  -0.0000084   0.0000622   0.0000020   0.0000241  -0.0000221
    2   0.0000338  -0.0000154   0.0000108   0.0000365  -0.0000057
    3   0.0000155   0.0000040  -0.0000224  -0.0000589  -0.0000944
 Max gradient component =       5.991E-02
 RMS gradient           =       1.926E-02
 Gradient time:  CPU 8.39 s  wall 0.72 s
 Geometry Optimization Parameters
   NAtoms,    NIC,     NZ,  NCons,   NDum,   NFix, NCnnct, MaxDiis
       11      68       0       1       0       0       0       0

 Cartesian Hessian Update
 Hessian Updated using BFGS Update


** CONSTRAINED OPTIMIZATION IN DELOCALIZED INTERNAL COORDINATES **
   Searching for a Minimum

   Optimization Cycle:  19

                       Coordinates (Angstroms)
     ATOM                X               Y               Z
      1  F         1.7046523013    0.7799854664    0.7314794699
      2  F        -1.7042240002    0.6007573490   -0.4470472266
      3  C        -0.0315450202   -1.0340652964   -0.0475101144
      4  C         1.0272801220   -0.2394006163   -0.7217985268
      5  C        -1.0992486131   -0.1410511559    0.5683649744
      6  H        -0.4910638564   -1.6930935868   -0.8012178267
      7  H         0.4147228947   -1.6744405357    0.7190073417
      8  H         1.9416885744   -0.7384603175   -1.0239215102
      9  H         0.7008370337    0.5747110788   -1.3601179314
     10  H        -0.6215378720    0.5473755610    1.2685293446
     11  H        -1.8708615641   -0.7335179467    1.0714320055
   Point Group: c1    Number of degrees of freedom:    27


   Energy is   -317.546483545

              Constraints and their Current Values
                                        Value     Constraint
   Distance(Angs):        1   4             1.899999     1.900000
 Hessian Updated using BFGS Update

 26 Hessian modes will be used to form the next step
  Hessian Eigenvalues:
     0.004237    0.040608    0.043488    0.115758    0.154909    0.181043
     0.205026    0.215030    0.224507    0.268969    0.360224    0.401245
     0.415489    0.422022    0.483783    0.563616    0.571621    0.673812
     0.728102    0.826500    0.884216    0.894320    0.897842    0.898095
     0.898725    1.214137

 Minimum Search - Taking Simple RFO Step
 Searching for Lamda that Minimizes Along All modes
 Value Taken    Lamda =   0.00000000
 Step Taken.  Stepsize is  0.001462

                             Maximum     Tolerance    Cnvgd?
         Gradient           0.000113      0.000300     YES
         Displacement       0.000907      0.001200     YES
         Energy change     -0.000000      0.000001     YES


                       Distance Matrix (Angstroms)
             F (  1)   F (  2)   C (  3)   C (  4)   C (  5)   H (  6)
   F (  2)  3.611300
   C (  3)  2.629066  2.372789
   C (  4)  1.899999  2.870970  1.485688
   C (  5)  2.955804  1.395470  1.522093  2.489241
   H (  6)  3.645058  2.618959  1.101613  2.103544  2.157425
   H (  7)  2.772775  3.320564  1.093976  2.123791  2.160112  1.769712
   H (  8)  2.333087  3.926699  2.221354  1.084657  3.484189  2.622824
   H (  9)  2.329069  2.572682  2.201700  1.084802  2.733436  2.622200
   H ( 10)  2.398685  2.029350  2.140329  2.701670  1.091957  3.052962
   H ( 11)  3.897507  2.028260  2.173809  3.443698  1.095208  2.516236
             H (  7)   H (  8)   H (  9)   H ( 10)
   H (  8)  2.499097
   H (  9)  3.076249  1.837705
   H ( 10)  2.512425  3.671353  2.942653
   H ( 11)  2.496685  4.350410  3.773265  1.800096
 
 Final energy is   -317.546483545438     


 ******************************
 **  OPTIMIZATION CONVERGED  **
 ******************************

                       Coordinates (Angstroms)
     ATOM                X               Y               Z
      1  F         1.7046523013    0.7799854664    0.7314794699
      2  F        -1.7042240002    0.6007573490   -0.4470472266
      3  C        -0.0315450202   -1.0340652964   -0.0475101144
      4  C         1.0272801220   -0.2394006163   -0.7217985268
      5  C        -1.0992486131   -0.1410511559    0.5683649744
      6  H        -0.4910638564   -1.6930935868   -0.8012178267
      7  H         0.4147228947   -1.6744405357    0.7190073417
      8  H         1.9416885744   -0.7384603175   -1.0239215102
      9  H         0.7008370337    0.5747110788   -1.3601179314
     10  H        -0.6215378720    0.5473755610    1.2685293446
     11  H        -1.8708615641   -0.7335179467    1.0714320055

Z-matrix Print:
$molecule
0 1
F 
C  1 1.395470
H  2 1.091957 1 108.728986
H  2 1.095208 1 108.443255 3 120.526193 0
C  2 1.522093 1 108.757520 3 -118.341097 0
H  5 1.093976 2 110.247642 1 -176.352523 0
H  5 1.101613 2 109.585874 1 -58.323244 0
C  5 1.485688 2 111.700367 1 61.149926 0
H  8 1.084657 5 118.759589 2 167.797844 0
H  8 1.084802 5 117.001010 2 -45.410419 0
F  8 1.899999 5 101.180850 2 60.713576 0
$end

PES scan, value:    1.9000 energy: -317.5464835454
------- Summary of potential scan: ------ 
    1.9000      -317.5464835454
----------------------------------------- 
Archival summary:
1\1\hpc0244\JobtypUnspecified\ProcedureUnspecified\6-31G**\236\knomura\WedMar1320:23:312019WedMar1320:23:312019\0\\#,JobtypUnspecified,ProcedureUnspecified,6-31G**,\\0,1\F\C,1,1.39547\H,2,1.09196,1,108.729\H,2,1.09521,1,108.443,3,120.526,0\C,2,1.52209,1,108.758,3,-118.341,0\H,5,1.09398,2,110.248,1,-176.353,0\H,5,1.10161,2,109.586,1,-58.3232,0\C,5,1.48569,2,111.7,1,61.1499,0\H,8,1.08466,5,118.76,2,167.798,0\H,8,1.0848,5,117.001,2,-45.4104,0\F,8,1.9,5,101.181,2,60.7136,0\\\@

 Total job time:  59.51s(wall), 686.57s(cpu) 
 Wed Mar 13 20:23:31 2019

        *************************************************************
        *                                                           *
        *  Thank you very much for using Q-Chem.  Have a nice day.  *
        *                                                           *
        *************************************************************


