
Running Job 1 of 1 halogens/Flourine/04/F_1_4.xyz.data/inputs/bond_singlet_1.3.in
qchem halogens/Flourine/04/F_1_4.xyz.data/inputs/bond_singlet_1.3.in_7234.0 /staging/scratch/2868761/qchem7234/ 1
/usr/usc/qchem/5.1.1/exe/qcprog.exe_s halogens/Flourine/04/F_1_4.xyz.data/inputs/bond_singlet_1.3.in_7234.0 /staging/scratch/2868761/qchem7234/
Check license passed

                  Welcome to Q-Chem
     A Quantum Leap Into The Future Of Chemistry


 Q-Chem 5.1, Q-Chem, Inc., Pleasanton, CA (2018)

 Yihan Shao,  Zhengting Gan,  E. Epifanovsky,  A. T. B. Gilbert,  M. Wormit,  
 J. Kussmann,  A. W. Lange,  A. Behn,  Jia Deng,  Xintian Feng,  D. Ghosh,  
 M. Goldey,  P. R. Horn,  L. D. Jacobson,  I. Kaliman,  T. Kus,  A. Landau,  
 Jie Liu,  E. I. Proynov,  R. M. Richard,  R. P. Steele,  E. J. Sundstrom,  
 H. L. Woodcock III,  P. M. Zimmerman,  D. Zuev,  B. Albrecht,  E. Alguire,  
 S. A. Baeppler,  D. Barton,  Z. Benda,  Y. A. Bernard,  E. J. Berquist,  
 K. B. Bravaya,  H. Burton,  D. Casanova,  Chun-Min Chang,  Yunqing Chen,  
 A. Chien,  K. D. Closser,  M. P. Coons,  S. Coriani,  S. Dasgupta,  
 A. L. Dempwolff,  M. Diedenhofen,  Hainam Do,  R. G. Edgar,  Po-Tung Fang,  
 S. Faraji,  S. Fatehi,  Qingguo Feng,  K. D. Fenk,  J. Fosso-Tande,  
 Qinghui Ge,  A. Ghysels,  G. Gidofalvi,  J. Gomes,  J. Gonthier,  A. Gunina,  
 D. Hait,  M. W. D. Hanson-Heine,  P. H. P. Harbach,  A. W. Hauser,  
 J. E. Herr,  E. G. Hohenstein,  Z. C. Holden,  Kerwin Hui,  B. C. Huynh,  
 T.-C. Jagau,  Hyunjun Ji,  B. Kaduk,  K. Khistyaev,  Jaehoon Kim,  
 P. Klunzinger,  K. Koh,  D. Kosenkov,  L. Koulias,  T. Kowalczyk,  
 C. M. Krauter,  A. Kunitsa,  Ka Un Lao,  A. Laurent,  K. V. Lawler,  
 Joonho Lee,  D. Lefrancois,  S. Lehtola,  D. S. Levine,  Yi-Pei Li,  
 You-Sheng Lin,  Fenglai Liu,  E. Livshits,  A. Luenser,  P. Manohar,  
 E. Mansoor,  S. F. Manzer,  Shan-Ping Mao,  Yuezhi Mao,  N. Mardirossian,  
 A. V. Marenich,  T. Markovich,  L. A. Martinez-Martinez,  S. A. Maurer,  
 N. J. Mayhall,  S. C. McKenzie,  J.-M. Mewes,  A. F. Morrison,  
 J. W. Mullinax,  K. Nanda,  T. S. Nguyen-Beck,  R. Olivares-Amaya,  
 J. A. Parkhill,  T. M. Perrine,  F. Plasser,  P. Pokhilko,  S. Prager,  
 A. Prociuk,  E. Ramos,  D. R. Rehn,  F. Rob,  M. Schneider,  N. Sergueev,  
 S. M. Sharada,  S. Sharma,  D. W. Small,  T. Stauch,  T. Stein,  
 Yu-Chuan Su,  A. J. W. Thom,  A. Tkatchenko,  T. Tsuchimochi,  N. M. Tubman,  
 L. Vogt,  M. L. Vidal,  O. Vydrov,  M. A. Watson,  J. Wenzel,  
 M. de Wergifosse,  T. A. Wesolowski,  A. White,  J. Witte,  A. Yamada,  
 Jun Yang,  K. Yao,  S. Yeganeh,  S. R. Yost,  Zhi-Qiang You,  A. Zech,  
 Igor Ying Zhang,  Xing Zhang,  Yan Zhao,  Ying Zhu,  B. R. Brooks,  
 G. K. L. Chan,  C. J. Cramer,  M. S. Gordon,  W. J. Hehre,  A. Klamt,  
 M. W. Schmidt,  C. D. Sherrill,  D. G. Truhlar,  A. Aspuru-Guzik,  R. Baer,  
 A. T. Bell,  N. A. Besley,  Jeng-Da Chai,  A. E. DePrince, III,  
 R. A. DiStasio Jr.,  A. Dreuw,  B. D. Dunietz,  T. R. Furlani,  
 Chao-Ping Hsu,  Yousung Jung,  Jing Kong,  D. S. Lambrecht,  WanZhen Liang,  
 C. Ochsenfeld,  V. A. Rassolov,  L. V. Slipchenko,  J. E. Subotnik,  
 T. Van Voorhis,  J. M. Herbert,  A. I. Krylov,  P. M. W. Gill,  M. Head-Gordon

 Contributors to earlier versions of Q-Chem not listed above: 
 R. D. Adamson,  B. Austin,  J. Baker,  G. J. O. Beran,  K. Brandhorst,  
 S. T. Brown,  E. F. C. Byrd,  A. K. Chakraborty,  C.-L. Cheng,  
 Siu Hung Chien,  D. M. Chipman,  D. L. Crittenden,  H. Dachsel,  
 R. J. Doerksen,  A. D. Dutoi,  L. Fusti-Molnar,  W. A. Goddard III,  
 A. Golubeva-Zadorozhnaya,  S. R. Gwaltney,  G. Hawkins,  A. Heyden,  
 S. Hirata,  G. Kedziora,  F. J. Keil,  C. Kelley,  Jihan Kim,  R. A. King,  
 R. Z. Khaliullin,  P. P. Korambath,  W. Kurlancheek,  A. M. Lee,  M. S. Lee,  
 S. V. Levchenko,  Ching Yeh Lin,  D. Liotard,  R. C. Lochan,  I. Lotan,  
 P. E. Maslen,  N. Nair,  D. P. O'Neill,  D. Neuhauser,  E. Neuscamman,  
 C. M. Oana,  R. Olson,  B. Peters,  R. Peverati,  P. A. Pieniazek,  
 Y. M. Rhee,  J. Ritchie,  M. A. Rohrdanz,  E. Rosta,  N. J. Russ,  
 H. F. Schaefer III,  N. E. Schultz,  N. Shenvi,  A. C. Simmonett,  A. Sodt,  
 D. Stuck,  K. S. Thanthiriwatte,  V. Vanovschi,  Tao Wang,  A. Warshel,  
 C. F. Williams,  Q. Wu,  X. Xu,  W. Zhang

 Please cite Q-Chem as follows:
 Y. Shao et al., Mol. Phys. 113, 184-215 (2015)
 DOI: 10.1080/00268976.2014.952696

 Q-Chem 5.1.1 for Intel X86 EM64T Linux

 Parts of Q-Chem use Armadillo 8.300.2 (Tropical Shenanigans).
 http://arma.sourceforge.net/

 Q-Chem begins on Wed Mar 13 19:59:10 2019  

Host: 
0

     Scratch files written to /staging/scratch/2868761/qchem7234//
 Aug318 |scratch|qcdevops|jenkins|workspace|build_RNUM 6013   
Processing $rem in /usr/usc/qchem/5.1.1/config/preferences.
 MEM_TOTAL  2000 
Input Ideriv = 2
Curr. Ideriv = -1
Max.  Ideriv = 2

Checking the input file for inconsistencies... 	...done.

--------------------------------------------------------------
User input:
--------------------------------------------------------------

$comment
potential surface scanner
$end

$rem
JOBTYPE  PES_SCAN
UNRESTRICTED TRUE
SYM_IGNORE  TRUE
GEOM_OPT_MAX_CYCLES 400
SCF_MAX_CYCLES 400
METHOD   B3LYP
BASIS   6-31G**
PDB_PRINT 2
SCF_CONVERGENCE 6
THRESH 14
SCF_PRINT 1
$end
$molecule
0 1
F 1.653000 0.625500 0.402200
F -1.644300 0.642100 -0.389000
C -0.000400 -0.990500 -0.008200
C 1.108500 -0.129500 -0.588600
C -1.116800 -0.147700 0.583700
H -0.406500 -1.626400 -0.802200
H 0.409700 -1.637700 0.774300
H 1.902400 -0.751100 -1.012100
H 0.736700 0.544900 -1.365600
H -0.753700 0.499900 1.387100
H -1.917900 -0.780700 0.975600
$end
$scan
stre 1 4 1.300000 1.301000 0.100000
$end
--------------------------------------------------------------
 ----------------------------------------------------------------
             Standard Nuclear Orientation (Angstroms)
    I     Atom           X                Y                Z
 ----------------------------------------------------------------
    1      F       1.6530000000     0.6255000000     0.4022000000
    2      F      -1.6443000000     0.6421000000    -0.3890000000
    3      C      -0.0004000000    -0.9905000000    -0.0082000000
    4      C       1.1085000000    -0.1295000000    -0.5886000000
    5      C      -1.1168000000    -0.1477000000     0.5837000000
    6      H      -0.4065000000    -1.6264000000    -0.8022000000
    7      H       0.4097000000    -1.6377000000     0.7743000000
    8      H       1.9024000000    -0.7511000000    -1.0121000000
    9      H       0.7367000000     0.5449000000    -1.3656000000
   10      H      -0.7537000000     0.4999000000     1.3871000000
   11      H      -1.9179000000    -0.7807000000     0.9756000000
 ----------------------------------------------------------------
 Nuclear Repulsion Energy =   190.1955158025 hartrees
 There are       21 alpha and       21 beta electrons
 Requested basis set is 6-31G(d,p)
 There are 38 shells and 105 basis functions

 Total QAlloc Memory Limit   2000 MB
 Mega-Array Size       188 MB
 MEM_STATIC part       192 MB
A total of 1 constraints
  
            1
    1   1.0100000
    2   1.0100000
    3   4.0100000
    4   1.3000000
    5   1.3010000
    6   0.1000000
    7   0.0000000
    8   0.0000000
    9   0.0000000
   10   0.0000000

                       Distance Matrix (Angstroms)
             F (  1)   F (  2)   C (  3)   C (  4)   C (  5)   H (  6)
   F (  2)  3.390938
   C (  3)  2.348109  2.347935
   C (  4)  1.359481  2.865853  1.519159
   C (  5)  2.881418  1.359480  1.518883  2.515269
   H (  6)  3.280728  2.617055  1.095318  2.140458  2.147510
   H (  7)  2.608894  3.281718  1.095151  2.149531  2.141642  1.775292
   H (  8)  1.989340  3.861132  2.164665  1.093625  3.467887  2.478150
   H (  9)  1.992792  2.575336  2.177913  1.093974  2.777576  2.517711
   H ( 10)  2.603461  1.991964  2.176147  2.786992  1.093928  3.071601
   H ( 11)  3.880401  1.990314  2.165337  3.468412  1.093634  2.481957
             H (  7)   H (  8)   H (  9)   H ( 10)
   H (  8)  2.491072
   H (  9)  3.074060  1.778605
   H ( 10)  2.509653  3.791573  3.130603
   H ( 11)  2.488512  4.306567  3.779594  1.778941
 
 A cutoff of  1.0D-14 yielded    725 shell pairs
 There are      5676 function pairs
 
 -------------------------------------------------------
 OpenMP Integral Computing Module                       
 Release: version 1.0, May 2013, Q-Chem Inc. Pittsburgh 
 -------------------------------------------------------
 Integral Job Info:
 Integral job number is                      11
 Integral operator is                         1
 short-range coefficients                     0
 long-range coefficients              100000000
 Omega coefficients                           0
 if combine SR and LR in K                    0
 Integral screening is                        0
 Integral computing path is                   2
 max size of driver memory is            800000
 size of driver memory is                593474
 size of scratch memory is              2361544
 max col of scratch BK array               1296
 max len of scratch array in speh3          155
 max len of scratch index in speh4           18
 max int batch size is                      520
 min int batch size is                       52
 fixed nKL is                                52
 max L of basis functions is                  2
 order of int derivative is                   0
 number of shells is                         38
 number of basis is                         105
 number of cartesian basis is               105
 number of contracted shell pairs           725
 number of primitive shell pairs           2680
 maxK2 (contraction) of shell pair           36
 max number of K2 of shell pair               1
 max number of CS2 of shell pair             62
 max number of PS2 of shell pair            240
 mem total for path MDJ                  520332
 -------------------------------------------------------
 Smallest overlap matrix eigenvalue = 4.39E-03

 Scale SEOQF with 1.000000e-01/1.000000e-01/1.000000e+00

 Standard Electronic Orientation quadrupole field applied
 Nucleus-field energy     =    -0.0000000109 hartrees
 Guess from superposition of atomic densities
 Warning:  Energy on first SCF cycle will be non-variational
 SAD guess density has 42.000000 electrons

 -----------------------------------------------------------------------
  General SCF calculation program by
  Eric Jon Sundstrom, Paul Horn, Yuezhi Mao, Dmitri Zuev, Alec White,
  David Stuck, Shaama M.S., Shane Yost, Joonho Lee, David Small,
  Daniel Levine, Susi Lehtola, Hugh Burton, Evgeny Epifanovsky
 -----------------------------------------------------------------------
 Exchange:     0.2000 Hartree-Fock + 0.0800 Slater + 0.7200 B88
 Correlation:  0.1900 VWN1RPA + 0.8100 LYP
 Using SG-1 standard quadrature grid
 using 12 threads for integral computing
 -------------------------------------------------------
 OpenMP Integral computing Module                
 Release: version 1.0, May 2013, Q-Chem Inc. Pittsburgh 
 -------------------------------------------------------
 -------------------------------------------------------
 OpenMP BLAS3 based DFT computing Module                
 Release: version 1.0, May 2013, Q-Chem Inc. Pittsburgh 
 -------------------------------------------------------
 A unrestricted SCF calculation will be
 performed using DIIS
 SCF converges when DIIS error is below 1.0e-06
 Alpha HF Exchange    Energy =  -3.79219641934457
 Beta HF Exchange     Energy =  -3.79219641934457
 DFT Correlation      Energy =  -1.85879329074375
 DFT Exchange         Energy = -29.67681125428696
 One-Electron (alpha) Energy = -405.51083861826299
 One-Electron (beta)  Energy = -405.51083861826299
 Total Coulomb        Energy = 341.69489423099247
 ---------------------------------------
  Cycle       Energy         DIIS error
 ---------------------------------------
    1    -318.2512645976      3.25e-02  
 Alpha HF Exchange    Energy =  -3.82150038249867
 Beta HF Exchange     Energy =  -3.82150038249868
 DFT Correlation      Energy =  -1.88288377010562
 DFT Exchange         Energy = -30.36291032250504
 One-Electron (alpha) Energy = -408.82544418972873
 One-Electron (beta)  Energy = -408.82544418972878
 Total Coulomb        Energy = 349.79392189568853
    2    -317.5502455497      3.37e-03  
 Alpha HF Exchange    Energy =  -3.75287455517670
 Beta HF Exchange     Energy =  -3.75287455517670
 DFT Correlation      Energy =  -1.86211657221998
 DFT Exchange         Energy = -29.81365988097230
 One-Electron (alpha) Energy = -405.50313710974336
 One-Electron (beta)  Energy = -405.50313710974319
 Total Coulomb        Energy = 342.44271026110573
    3    -317.5495737303      3.57e-03  
 Alpha HF Exchange    Energy =  -3.78883937525140
 Beta HF Exchange     Energy =  -3.78883937525140
 DFT Correlation      Energy =  -1.87266856115013
 DFT Exchange         Energy = -30.09801249064313
 One-Electron (alpha) Energy = -407.28348123202431
 One-Electron (beta)  Energy = -407.28348123202466
 Total Coulomb        Energy = 346.31637152729292
    4    -317.6034349474      3.65e-04  
 Alpha HF Exchange    Energy =  -3.78705912334068
 Beta HF Exchange     Energy =  -3.78705912334068
 DFT Correlation      Energy =  -1.87266396305432
 DFT Exchange         Energy = -30.08593059115351
 One-Electron (alpha) Energy = -407.25121486493339
 One-Electron (beta)  Energy = -407.25121486493339
 Total Coulomb        Energy = 346.23579261989056
    5    -317.6038341192      1.67e-04  
 Alpha HF Exchange    Energy =  -3.78742998803092
 Beta HF Exchange     Energy =  -3.78742998803093
 DFT Correlation      Energy =  -1.87249502972186
 DFT Exchange         Energy = -30.08790129102437
 One-Electron (alpha) Energy = -407.22779260606370
 One-Electron (beta)  Energy = -407.22779260606399
 Total Coulomb        Energy = 346.19137395818939
    6    -317.6039517591      3.09e-05  
 Alpha HF Exchange    Energy =  -3.78737202840534
 Beta HF Exchange     Energy =  -3.78737202840533
 DFT Correlation      Energy =  -1.87251313542746
 DFT Exchange         Energy = -30.08750962084946
 One-Electron (alpha) Energy = -407.23149128785309
 One-Electron (beta)  Energy = -407.23149128785292
 Total Coulomb        Energy = 346.19827762179898
    7    -317.6039559754      5.99e-06  
 Alpha HF Exchange    Energy =  -3.78739971475427
 Beta HF Exchange     Energy =  -3.78739971475427
 DFT Correlation      Energy =  -1.87252313351092
 DFT Exchange         Energy = -30.08774018918833
 One-Electron (alpha) Energy = -407.23309582278370
 One-Electron (beta)  Energy = -407.23309582278375
 Total Coulomb        Energy = 346.20178246708826
    8    -317.6039561390      1.39e-06  
 Alpha HF Exchange    Energy =  -3.78739424123215
 Beta HF Exchange     Energy =  -3.78739424123215
 DFT Correlation      Energy =  -1.87252103045701
 DFT Exchange         Energy = -30.08769503089509
 One-Electron (alpha) Energy = -407.23269194936739
 One-Electron (beta)  Energy = -407.23269194936739
 Total Coulomb        Energy = 346.20091650199106
    9    -317.6039561489      1.85e-07  Convergence criterion met
 ---------------------------------------
 SCF time:   CPU 21.86s  wall 2.00s 
<S^2> =          0.000000000
 Alpha HF Exchange    Energy =  -3.78739424123215
 Beta HF Exchange     Energy =  -3.78739424123215
 DFT Correlation      Energy =  -1.87252103045701
 DFT Exchange         Energy = -30.08769503089509
 One-Electron (alpha) Energy = -407.23269194936739
 One-Electron (beta)  Energy = -407.23269194936739
 Total Coulomb        Energy = 346.20091650199106
 Nuclear repulsion Energy = 190.19551579163829
 SCF   energy in the final basis set =     -317.6039561489
 Total energy in the final basis set =     -317.6039561489
 
 --------------------------------------------------------------
 
                    Orbital Energies (a.u.)
 --------------------------------------------------------------
 
 Alpha MOs
 -- Occupied --
-24.673 -24.673 -10.256 -10.256 -10.195  -1.192  -1.189  -0.791
 -0.688  -0.604  -0.512  -0.511  -0.487  -0.482  -0.443  -0.432
 -0.392  -0.346  -0.337  -0.319  -0.317
 -- Virtual --
  0.093   0.127   0.128   0.139   0.161   0.178   0.179   0.202
  0.225   0.247   0.509   0.526   0.545   0.549   0.583   0.614
  0.648   0.686   0.781   0.785   0.843   0.852   0.870   0.905
  0.910   0.956   1.077   1.131   1.191   1.224   1.293   1.324
  1.362   1.390   1.434   1.472   1.477   1.587   1.662   1.756
  1.761   1.766   1.822   1.845   1.901   1.961   1.968   1.998
  2.017   2.024   2.046   2.053   2.086   2.130   2.180   2.200
  2.262   2.302   2.325   2.374   2.428   2.497   2.621   2.645
  2.715   2.753   2.791   2.867   2.891   2.893   2.931   3.047
  3.074   3.254   3.258   3.291   3.395   3.489   3.520   4.203
  4.236   4.389   4.502   4.656
 
 Beta MOs
 -- Occupied --
-24.673 -24.673 -10.256 -10.256 -10.195  -1.192  -1.189  -0.791
 -0.688  -0.604  -0.512  -0.511  -0.487  -0.482  -0.443  -0.432
 -0.392  -0.346  -0.337  -0.319  -0.317
 -- Virtual --
  0.093   0.127   0.128   0.139   0.161   0.178   0.179   0.202
  0.225   0.247   0.509   0.526   0.545   0.549   0.583   0.614
  0.648   0.686   0.781   0.785   0.843   0.852   0.870   0.905
  0.910   0.956   1.077   1.131   1.191   1.224   1.293   1.324
  1.362   1.390   1.434   1.472   1.477   1.587   1.662   1.756
  1.761   1.766   1.822   1.845   1.901   1.961   1.968   1.998
  2.017   2.024   2.046   2.053   2.086   2.130   2.180   2.200
  2.262   2.302   2.325   2.374   2.428   2.497   2.621   2.645
  2.715   2.753   2.791   2.867   2.891   2.893   2.931   3.047
  3.074   3.254   3.258   3.291   3.395   3.489   3.520   4.203
  4.236   4.389   4.502   4.656
 --------------------------------------------------------------
 
          Ground-State Mulliken Net Atomic Charges

     Atom                 Charge (a.u.)    Spin (a.u.)
  --------------------------------------------------------
      1 F                    -0.313295       0.000000
      2 F                    -0.312930       0.000000
      3 C                    -0.254908      -0.000000
      4 C                     0.141348       0.000000
      5 C                     0.141246       0.000000
      6 H                     0.109074      -0.000000
      7 H                     0.109623       0.000000
      8 H                     0.086687       0.000000
      9 H                     0.103177      -0.000000
     10 H                     0.102872       0.000000
     11 H                     0.087104       0.000000
  --------------------------------------------------------
  Sum of atomic charges =     0.000000
  Sum of spin   charges =    -0.000000

 -----------------------------------------------------------------
                    Cartesian Multipole Moments
 -----------------------------------------------------------------
    Charge (ESU x 10^10)
                 0.0000
    Dipole Moment (Debye)
         X      -0.0222      Y      -1.7856      Z      -0.0202
       Tot       1.7858
    Quadrupole Moments (Debye-Ang)
        XX     -31.8135     XY       0.0493     YY     -29.0678
        XZ      -2.9382     YZ      -0.0205     ZZ     -27.8071
    Octopole Moments (Debye-Ang^2)
       XXX      -0.0793    XXY      -1.9909    XYY       0.0501
       YYY       8.9520    XXZ      -0.0267    XYZ      -0.8704
       YYZ       0.0360    XZZ       0.0156    YZZ       3.0249
       ZZZ       0.1118
    Hexadecapole Moments (Debye-Ang^3)
      XXXX    -300.2160   XXXY      -0.0676   XXYY     -67.9195
      XYYY      -0.1806   YYYY    -110.4447   XXXZ       5.6897
      XXYZ      -0.0112   XYYZ       4.2268   YYYZ      -0.0673
      XXZZ     -61.9420   XYZZ      -0.0872   YYZZ     -30.5219
      XZZZ      12.8683   YZZZ       0.0740   ZZZZ     -83.8743
 -----------------------------------------------------------------
 Calculating analytic gradient of the SCF energy
 Gradient of SCF Energy
            1           2           3           4           5           6
    1  -0.0108825   0.0107693   0.0003339   0.0046129  -0.0049679   0.0006417
    2  -0.0161536  -0.0165731  -0.0013125   0.0121849   0.0121817   0.0013189
    3  -0.0202190   0.0198089   0.0006062   0.0133394  -0.0134905  -0.0003276
            7           8           9          10          11
    1  -0.0008016  -0.0006963   0.0030199  -0.0027671   0.0007378
    2   0.0012504   0.0025231   0.0010580   0.0009935   0.0025287
    3   0.0004145   0.0030196   0.0017199  -0.0019672  -0.0029042
 Max gradient component =       2.022E-02
 RMS gradient           =       8.417E-03
 Gradient time:  CPU 8.44 s  wall 0.75 s
 Geometry Optimization Parameters
   NAtoms,    NIC,     NZ,  NCons,   NDum,   NFix, NCnnct, MaxDiis
       11      68       0       1       0       0       0       0


** CONSTRAINED OPTIMIZATION IN DELOCALIZED INTERNAL COORDINATES **
   Searching for a Minimum

   Optimization Cycle:   1

                       Coordinates (Angstroms)
     ATOM                X               Y               Z
      1  F         1.6530000000    0.6255000000    0.4022000000
      2  F        -1.6443000000    0.6421000000   -0.3890000000
      3  C        -0.0004000000   -0.9905000000   -0.0082000000
      4  C         1.1085000000   -0.1295000000   -0.5886000000
      5  C        -1.1168000000   -0.1477000000    0.5837000000
      6  H        -0.4065000000   -1.6264000000   -0.8022000000
      7  H         0.4097000000   -1.6377000000    0.7743000000
      8  H         1.9024000000   -0.7511000000   -1.0121000000
      9  H         0.7367000000    0.5449000000   -1.3656000000
     10  H        -0.7537000000    0.4999000000    1.3871000000
     11  H        -1.9179000000   -0.7807000000    0.9756000000
   Point Group: c1    Number of degrees of freedom:    27


   Energy is   -317.603956149

              Constraints and their Current Values
                                        Value     Constraint
   Distance(Angs):        1   4             1.359481     1.300000

 Attempting to Generate Delocalized Internal Coordinates

   Using Lagrange Multiplier Algorithm


 28 Hessian modes will be used to form the next step
  Hessian Eigenvalues:
    -0.769322    0.045000    0.045000    0.069368    0.078807    0.084194
     0.084289    0.084960    0.085014    0.102109    0.130955    0.160000
     0.160000    0.160000    0.160000    0.219882    0.223371    0.223398
     0.304477    0.304744    0.342052    0.342241    0.343574    0.343626
     0.343960    0.343970    0.530528    1.299846

 Minimum Search - Taking P-RFO Step
 Searching for Lamda that Maximizes Along the Constraint modes Only
 Value Taken    Lamda =   0.01439201
 Searching for Lamda that Minimizes Along All other modes
 Value Taken    Lamda =  -0.00386324
 Step Taken.  Stepsize is  0.144439

                             Maximum     Tolerance    Cnvgd?
         Gradient            0.112404       0.000300      NO
         Displacement        0.110774       0.001200      NO
         Energy change     *********       0.000001      NO


 New Cartesian Coordinates Obtained by Inverse Iteration

 Displacement from previous Coordinates is:  0.125207
 ----------------------------------------------------------------
             Standard Nuclear Orientation (Angstroms)
    I     Atom           X                Y                Z
 ----------------------------------------------------------------
    1      F       1.6410101070     0.6076092492     0.3704126077
    2      F      -1.6656568754     0.6694769055    -0.4027318491
    3      C       0.0035126460    -0.9835657562    -0.0049043887
    4      C       1.1238696911    -0.1227524523    -0.5737167277
    5      C      -1.1255201363    -0.1453804153     0.5814245106
    6      H      -0.3989411038    -1.6221759102    -0.8001933334
    7      H       0.4126111613    -1.6351822390     0.7760529241
    8      H       1.9130889730    -0.7522817504    -1.0063989753
    9      H       0.7307734987     0.5375498264    -1.3557453112
   10      H      -0.7445430609     0.4864225645     1.3927629464
   11      H      -1.9195049007    -0.7909200221     0.9802375967
 ----------------------------------------------------------------
 Nuclear Repulsion Energy =   190.4358089734 hartrees
 There are       21 alpha and       21 beta electrons

                       Distance Matrix (Angstroms)
             F (  1)   F (  2)   C (  3)   C (  4)   C (  5)   H (  6)
   F (  2)  3.396414
   C (  3)  2.313893  2.382634
   C (  4)  1.300862  2.904879  1.523072
   C (  5)  2.874928  1.387193  1.523500  2.528758
   H (  6)  3.240935  2.648437  1.096484  2.149073  2.148886
   H (  7)  2.589135  3.319666  1.096294  2.148304  2.150172  1.772946
   H (  8)  1.954211  3.897850  2.168632  1.098357  3.481761  2.478855
   H (  9)  1.952706  2.582347  2.160433  1.096400  2.768546  2.499862
   H ( 10)  2.598221  2.026268  2.161927  2.780126  1.096626  3.061811
   H ( 11)  3.873634  2.027265  2.169243  3.481860  1.098265  2.484559
             H (  7)   H (  8)   H (  9)   H ( 10)
   H (  8)  2.491602
   H (  9)  3.060483  1.784258
   H ( 10)  2.494102  3.788585  3.119851
   H ( 11)  2.488621  4.317058  3.774338  1.783905
 
 Applying Cartesian multipole field
    Component          Value
    ---------          -----
     (2,0,0)        1.00000E-11
     (0,2,0)        2.00000E-11
     (0,0,2)       -3.00000E-10
 Nucleus-field energy     =    -0.0000000106 hartrees
 Requested basis set is 6-31G(d,p)
 There are 38 shells and 105 basis functions
 A cutoff of  1.0D-14 yielded    724 shell pairs
 There are      5675 function pairs
 Smallest overlap matrix eigenvalue = 4.14E-03
 Guess from superposition of atomic densities
 Warning:  Energy on first SCF cycle will be non-variational
 SAD guess density has 42.000000 electrons

 -----------------------------------------------------------------------
  General SCF calculation program by
  Eric Jon Sundstrom, Paul Horn, Yuezhi Mao, Dmitri Zuev, Alec White,
  David Stuck, Shaama M.S., Shane Yost, Joonho Lee, David Small,
  Daniel Levine, Susi Lehtola, Hugh Burton, Evgeny Epifanovsky
 -----------------------------------------------------------------------
 Exchange:     0.2000 Hartree-Fock + 0.0800 Slater + 0.7200 B88
 Correlation:  0.1900 VWN1RPA + 0.8100 LYP
 Using SG-1 standard quadrature grid
 using 12 threads for integral computing
 -------------------------------------------------------
 OpenMP Integral computing Module                
 Release: version 1.0, May 2013, Q-Chem Inc. Pittsburgh 
 -------------------------------------------------------
 -------------------------------------------------------
 OpenMP BLAS3 based DFT computing Module                
 Release: version 1.0, May 2013, Q-Chem Inc. Pittsburgh 
 -------------------------------------------------------
 A unrestricted SCF calculation will be
 performed using DIIS
 SCF converges when DIIS error is below 1.0e-06
 Alpha HF Exchange    Energy =  -3.79490770197341
 Beta HF Exchange     Energy =  -3.79490770197341
 DFT Correlation      Energy =  -1.85928671473952
 DFT Exchange         Energy = -29.68298574588135
 One-Electron (alpha) Energy = -405.73387224770772
 One-Electron (beta)  Energy = -405.73387224770772
 Total Coulomb        Energy = 341.87844152808481
 ---------------------------------------
  Cycle       Energy         DIIS error
 ---------------------------------------
    1    -318.2855818691      3.29e-02  
 Alpha HF Exchange    Energy =  -3.82186025303278
 Beta HF Exchange     Energy =  -3.82186025303278
 DFT Correlation      Energy =  -1.88323634643293
 DFT Exchange         Energy = -30.36558916768365
 One-Electron (alpha) Energy = -409.01406909954977
 One-Electron (beta)  Energy = -409.01406909954994
 Total Coulomb        Energy = 349.93936970223172
    2    -317.5455055542      3.37e-03  
 Alpha HF Exchange    Energy =  -3.75388715442510
 Beta HF Exchange     Energy =  -3.75388715442511
 DFT Correlation      Energy =  -1.86248132362871
 DFT Exchange         Energy = -29.82091828206559
 One-Electron (alpha) Energy = -405.69688548552153
 One-Electron (beta)  Energy = -405.69688548552159
 Total Coulomb        Energy = 342.60441112458204
    3    -317.5447247982      3.55e-03  
 Alpha HF Exchange    Energy =  -3.78943115443919
 Beta HF Exchange     Energy =  -3.78943115443919
 DFT Correlation      Energy =  -1.87306227861900
 DFT Exchange         Energy = -30.10231367812673
 One-Electron (alpha) Energy = -407.47916373065897
 One-Electron (beta)  Energy = -407.47916373065914
 Total Coulomb        Energy = 346.47796173760253
    4    -317.5987950265      3.65e-04  
 Alpha HF Exchange    Energy =  -3.78771915851509
 Beta HF Exchange     Energy =  -3.78771915851509
 DFT Correlation      Energy =  -1.87303028964152
 DFT Exchange         Energy = -30.09063934183848
 One-Electron (alpha) Energy = -407.44340170058268
 One-Electron (beta)  Energy = -407.44340170058251
 Total Coulomb        Energy = 346.39090899389822
    5    -317.5991933929      1.70e-04  
 Alpha HF Exchange    Energy =  -3.78804579742175
 Beta HF Exchange     Energy =  -3.78804579742175
 DFT Correlation      Energy =  -1.87286781884902
 DFT Exchange         Energy = -30.09231910198377
 One-Electron (alpha) Energy = -407.42060016027710
 One-Electron (beta)  Energy = -407.42060016027716
 Total Coulomb        Energy = 346.34735834795651
    6    -317.5993115254      3.20e-05  
 Alpha HF Exchange    Energy =  -3.78799750052308
 Beta HF Exchange     Energy =  -3.78799750052309
 DFT Correlation      Energy =  -1.87288264347044
 DFT Exchange         Energy = -30.09198654470450
 One-Electron (alpha) Energy = -407.42392187016304
 One-Electron (beta)  Energy = -407.42392187016338
 Total Coulomb        Energy = 346.35358314749016
    7    -317.5993158192      7.22e-06  
 Alpha HF Exchange    Energy =  -3.78801829845562
 Beta HF Exchange     Energy =  -3.78801829845562
 DFT Correlation      Energy =  -1.87289342933505
 DFT Exchange         Energy = -30.09217038317501
 One-Electron (alpha) Energy = -407.42559230303931
 One-Electron (beta)  Energy = -407.42559230303965
 Total Coulomb        Energy = 346.35716001498804
    8    -317.5993160377      1.75e-06  
 Alpha HF Exchange    Energy =  -3.78801769759822
 Beta HF Exchange     Energy =  -3.78801769759823
 DFT Correlation      Energy =  -1.87289199977406
 DFT Exchange         Energy = -30.09216196894351
 One-Electron (alpha) Energy = -407.42532163860244
 One-Electron (beta)  Energy = -407.42532163860267
 Total Coulomb        Energy = 346.35660762850614
    9    -317.5993160498      4.26e-07  Convergence criterion met
 ---------------------------------------
 SCF time:   CPU 21.71s  wall 2.00s 
<S^2> =         -0.000000000
 Alpha HF Exchange    Energy =  -3.78801769759822
 Beta HF Exchange     Energy =  -3.78801769759823
 DFT Correlation      Energy =  -1.87289199977406
 DFT Exchange         Energy = -30.09216196894351
 One-Electron (alpha) Energy = -407.42532163860244
 One-Electron (beta)  Energy = -407.42532163860267
 Total Coulomb        Energy = 346.35660762850614
 Nuclear repulsion Energy = 190.43580896283689
 SCF   energy in the final basis set =     -317.5993160498
 Total energy in the final basis set =     -317.5993160498
 
 --------------------------------------------------------------
 
                    Orbital Energies (a.u.)
 --------------------------------------------------------------
 
 Alpha MOs
 -- Occupied --
-24.682 -24.671 -10.259 -10.254 -10.193  -1.221  -1.178  -0.789
 -0.688  -0.605  -0.517  -0.516  -0.492  -0.483  -0.449  -0.434
 -0.391  -0.346  -0.336  -0.317  -0.315
 -- Virtual --
  0.093   0.126   0.129   0.142   0.160   0.174   0.188   0.208
  0.225   0.247   0.508   0.528   0.543   0.561   0.581   0.615
  0.649   0.687   0.781   0.783   0.844   0.850   0.868   0.901
  0.910   0.957   1.074   1.127   1.194   1.224   1.292   1.329
  1.359   1.391   1.431   1.473   1.475   1.590   1.662   1.747
  1.758   1.762   1.823   1.841   1.902   1.951   1.973   1.992
  2.000   2.034   2.049   2.078   2.090   2.131   2.174   2.201
  2.262   2.307   2.323   2.384   2.432   2.504   2.626   2.646
  2.704   2.748   2.796   2.867   2.888   2.915   2.938   3.038
  3.104   3.245   3.253   3.291   3.387   3.481   3.523   4.184
  4.285   4.404   4.508   4.659
 
 Beta MOs
 -- Occupied --
-24.682 -24.671 -10.259 -10.254 -10.193  -1.221  -1.178  -0.789
 -0.688  -0.605  -0.517  -0.516  -0.492  -0.483  -0.449  -0.434
 -0.391  -0.346  -0.336  -0.317  -0.315
 -- Virtual --
  0.093   0.126   0.129   0.142   0.160   0.174   0.188   0.208
  0.225   0.247   0.508   0.528   0.543   0.561   0.581   0.615
  0.649   0.687   0.781   0.783   0.844   0.850   0.868   0.901
  0.910   0.957   1.074   1.127   1.194   1.224   1.292   1.329
  1.359   1.391   1.431   1.473   1.475   1.590   1.662   1.747
  1.758   1.762   1.823   1.841   1.902   1.951   1.973   1.992
  2.000   2.034   2.049   2.078   2.090   2.131   2.174   2.201
  2.262   2.307   2.323   2.384   2.432   2.504   2.626   2.646
  2.704   2.748   2.796   2.867   2.888   2.915   2.938   3.038
  3.104   3.245   3.253   3.291   3.387   3.481   3.523   4.184
  4.285   4.404   4.508   4.659
 --------------------------------------------------------------
 
          Ground-State Mulliken Net Atomic Charges

     Atom                 Charge (a.u.)    Spin (a.u.)
  --------------------------------------------------------
      1 F                    -0.279060      -0.000000
      2 F                    -0.321219       0.000000
      3 C                    -0.259458      -0.000000
      4 C                     0.144784       0.000000
      5 C                     0.135943      -0.000000
      6 H                     0.107951       0.000000
      7 H                     0.107386       0.000000
      8 H                     0.075431      -0.000000
      9 H                     0.092175      -0.000000
     10 H                     0.103998      -0.000000
     11 H                     0.092069      -0.000000
  --------------------------------------------------------
  Sum of atomic charges =    -0.000000
  Sum of spin   charges =    -0.000000

 -----------------------------------------------------------------
                    Cartesian Multipole Moments
 -----------------------------------------------------------------
    Charge (ESU x 10^10)
                -0.0000
    Dipole Moment (Debye)
         X       0.1585      Y      -1.7209      Z       0.2122
       Tot       1.7411
    Quadrupole Moments (Debye-Ang)
        XX     -31.6899     XY       0.3787     YY     -29.1582
        XZ      -2.7513     YZ      -0.0008     ZZ     -27.9545
    Octopole Moments (Debye-Ang^2)
       XXX       1.1661    XXY      -1.9699    XYY       0.3328
       YYY       8.8122    XXZ       0.6447    XYZ      -0.8082
       YYZ       0.2988    XZZ       0.0310    YZZ       2.9178
       ZZZ       0.9146
    Hexadecapole Moments (Debye-Ang^3)
      XXXX    -302.4144   XXXY       2.7037   XXYY     -68.3539
      XYYY       1.6684   YYYY    -110.5538   XXXZ       6.4964
      XXYZ       0.0883   XYYZ       4.4208   YYYZ       0.7446
      XXZZ     -62.4025   XYZZ       0.5925   YYZZ     -30.5605
      XZZZ      13.5456   YZZZ       0.9533   ZZZZ     -83.5000
 -----------------------------------------------------------------
 Calculating analytic gradient of the SCF energy
 Gradient of SCF Energy
            1           2           3           4           5           6
    1  -0.0330058   0.0015161   0.0039977   0.0265997  -0.0036451  -0.0003360
    2  -0.0465379  -0.0023552   0.0012159   0.0384393   0.0056585   0.0008633
    3  -0.0598772   0.0027309   0.0042901   0.0502310  -0.0053771  -0.0004196
            7           8           9          10          11
    1   0.0007836   0.0013472   0.0018896   0.0009438  -0.0000907
    2   0.0004666   0.0027002   0.0018843  -0.0009656  -0.0013693
    3  -0.0004986   0.0037248   0.0039452   0.0006971   0.0005535
 Max gradient component =       5.988E-02
 RMS gradient           =       1.885E-02
 Gradient time:  CPU 8.39 s  wall 0.72 s
 Geometry Optimization Parameters
   NAtoms,    NIC,     NZ,  NCons,   NDum,   NFix, NCnnct, MaxDiis
       11      68       0       1       0       0       0       0

 Cartesian Hessian Update
 Hessian Updated using BFGS Update


** CONSTRAINED OPTIMIZATION IN DELOCALIZED INTERNAL COORDINATES **
   Searching for a Minimum

   Optimization Cycle:   2

                       Coordinates (Angstroms)
     ATOM                X               Y               Z
      1  F         1.6410101070    0.6076092492    0.3704126077
      2  F        -1.6656568754    0.6694769055   -0.4027318491
      3  C         0.0035126460   -0.9835657562   -0.0049043887
      4  C         1.1238696911   -0.1227524523   -0.5737167277
      5  C        -1.1255201363   -0.1453804153    0.5814245106
      6  H        -0.3989411038   -1.6221759102   -0.8001933334
      7  H         0.4126111613   -1.6351822390    0.7760529241
      8  H         1.9130889730   -0.7522817504   -1.0063989753
      9  H         0.7307734987    0.5375498264   -1.3557453112
     10  H        -0.7445430609    0.4864225645    1.3927629464
     11  H        -1.9195049007   -0.7909200221    0.9802375967
   Point Group: c1    Number of degrees of freedom:    27


   Energy is   -317.599316050

              Constraints and their Current Values
                                        Value     Constraint
   Distance(Angs):        1   4             1.300862     1.300000
 Hessian Updated using BFGS Update

   Using Lagrange Multiplier Algorithm


 26 Hessian modes will be used to form the next step
  Hessian Eigenvalues:
    -0.776628    0.044990    0.045000    0.069366    0.078492    0.082045
     0.084291    0.084478    0.087731    0.102183    0.131462    0.156780
     0.164270    0.220108    0.222794    0.223937    0.302882    0.306021
     0.341508    0.342104    0.342376    0.343683    0.343785    0.345618
     0.518667    1.293205

 Minimum Search - Taking P-RFO Step
 Searching for Lamda that Maximizes Along the Constraint modes Only
 Value Taken    Lamda =   0.00000133
 Searching for Lamda that Minimizes Along All other modes
 Value Taken    Lamda =  -0.00075887
 Step Taken.  Stepsize is  0.083121

                             Maximum     Tolerance    Cnvgd?
         Gradient            0.004576       0.000300      NO
         Displacement        0.048501       0.001200      NO
         Energy change      0.004640       0.000001      NO


 New Cartesian Coordinates Obtained by Inverse Iteration

 Displacement from previous Coordinates is:  0.068875
 ----------------------------------------------------------------
             Standard Nuclear Orientation (Angstroms)
    I     Atom           X                Y                Z
 ----------------------------------------------------------------
    1      F       1.6562840407     0.6210035087     0.3720336855
    2      F      -1.6636452761     0.6726950911    -0.4030535839
    3      C       0.0051026454    -0.9825370449    -0.0055111171
    4      C       1.1325704893    -0.1129870830    -0.5644428493
    5      C      -1.1245698515    -0.1498165208     0.5841277879
    6      H      -0.3922165952    -1.6213192267    -0.8035254248
    7      H       0.4071379712    -1.6387821597     0.7761192726
    8      H       1.9030210424    -0.7604964612    -1.0131316042
    9      H       0.7222269458     0.5270559307    -1.3597091974
   10      H      -0.7519094595     0.4847241564     1.3968855043
   11      H      -1.9233019524    -0.7907401904     0.9774075263
 ----------------------------------------------------------------
 Nuclear Repulsion Energy =   189.9658351576 hartrees
 There are       21 alpha and       21 beta electrons

                       Distance Matrix (Angstroms)
             F (  1)   F (  2)   C (  3)   C (  4)   C (  5)   H (  6)
   F (  2)  3.409599
   C (  3)  2.332441  2.383811
   C (  4)  1.300002  2.908980  1.529610
   C (  5)  2.893492  1.393433  1.522254  2.532835
   H (  6)  3.256732  2.653189  1.096691  2.158055  2.151103
   H (  7)  2.613481  3.319867  1.096921  2.156713  2.144763  1.770466
   H (  8)  1.971828  3.891959  2.160254  1.101900  3.477136  2.460298
   H (  9)  1.969828  2.574643  2.151044  1.100221  2.765378  2.483312
   H ( 10)  2.620742  2.026420  2.166250  2.784840  1.096400  3.067019
   H ( 11)  3.895245  2.028482  2.172938  3.489270  1.097007  2.491146
             H (  7)   H (  8)   H (  9)   H ( 10)
   H (  8)  2.492082
   H (  9)  3.058087  1.781062
   H ( 10)  2.497603  3.795710  3.126289
   H ( 11)  2.488100  4.313225  3.767960  1.781834
 
 Applying Cartesian multipole field
    Component          Value
    ---------          -----
     (2,0,0)        1.00000E-11
     (0,2,0)        2.00000E-11
     (0,0,2)       -3.00000E-10
 Nucleus-field energy     =    -0.0000000106 hartrees
 Requested basis set is 6-31G(d,p)
 There are 38 shells and 105 basis functions
 A cutoff of  1.0D-14 yielded    724 shell pairs
 There are      5675 function pairs
 Smallest overlap matrix eigenvalue = 4.19E-03
 Guess from superposition of atomic densities
 Warning:  Energy on first SCF cycle will be non-variational
 SAD guess density has 42.000000 electrons

 -----------------------------------------------------------------------
  General SCF calculation program by
  Eric Jon Sundstrom, Paul Horn, Yuezhi Mao, Dmitri Zuev, Alec White,
  David Stuck, Shaama M.S., Shane Yost, Joonho Lee, David Small,
  Daniel Levine, Susi Lehtola, Hugh Burton, Evgeny Epifanovsky
 -----------------------------------------------------------------------
 Exchange:     0.2000 Hartree-Fock + 0.0800 Slater + 0.7200 B88
 Correlation:  0.1900 VWN1RPA + 0.8100 LYP
 Using SG-1 standard quadrature grid
 using 12 threads for integral computing
 -------------------------------------------------------
 OpenMP Integral computing Module                
 Release: version 1.0, May 2013, Q-Chem Inc. Pittsburgh 
 -------------------------------------------------------
 -------------------------------------------------------
 OpenMP BLAS3 based DFT computing Module                
 Release: version 1.0, May 2013, Q-Chem Inc. Pittsburgh 
 -------------------------------------------------------
 A unrestricted SCF calculation will be
 performed using DIIS
 SCF converges when DIIS error is below 1.0e-06
 Alpha HF Exchange    Energy =  -3.79315078253564
 Beta HF Exchange     Energy =  -3.79315078253564
 DFT Correlation      Energy =  -1.85881405826495
 DFT Exchange         Energy = -29.67937149795696
 One-Electron (alpha) Energy = -405.27261954623992
 One-Electron (beta)  Energy = -405.27261954623992
 Total Coulomb        Energy = 341.43428591701849
 ---------------------------------------
  Cycle       Energy         DIIS error
 ---------------------------------------
    1    -318.2696051497      3.27e-02  
 Alpha HF Exchange    Energy =  -3.82075651877156
 Beta HF Exchange     Energy =  -3.82075651877156
 DFT Correlation      Energy =  -1.88266005603214
 DFT Exchange         Energy = -30.35787527545055
 One-Electron (alpha) Energy = -408.53222762529168
 One-Electron (beta)  Energy = -408.53222762529157
 Total Coulomb        Energy = 349.43457086300475
    2    -317.5460976095      3.36e-03  
 Alpha HF Exchange    Energy =  -3.75307954259277
 Beta HF Exchange     Energy =  -3.75307954259278
 DFT Correlation      Energy =  -1.86202408978559
 DFT Exchange         Energy = -29.81572075995797
 One-Electron (alpha) Energy = -405.24172121498873
 One-Electron (beta)  Energy = -405.24172121498896
 Total Coulomb        Energy = 342.15630798220764
    3    -317.5452032356      3.55e-03  
 Alpha HF Exchange    Energy =  -3.78850962696438
 Beta HF Exchange     Energy =  -3.78850962696438
 DFT Correlation      Energy =  -1.87253884442458
 DFT Exchange         Energy = -30.09608666154665
 One-Electron (alpha) Energy = -407.00932336904333
 One-Electron (beta)  Energy = -407.00932336904333
 Total Coulomb        Energy = 345.99939866581929
    4    -317.5990576851      3.72e-04  
 Alpha HF Exchange    Energy =  -3.78679329963186
 Beta HF Exchange     Energy =  -3.78679329963186
 DFT Correlation      Energy =  -1.87251946675916
 DFT Exchange         Energy = -30.08443371911308
 One-Electron (alpha) Energy = -406.97567633431805
 One-Electron (beta)  Energy = -406.97567633431782
 Total Coulomb        Energy = 345.91658668344866
    5    -317.5994706233      1.75e-04  
 Alpha HF Exchange    Energy =  -3.78710916305100
 Beta HF Exchange     Energy =  -3.78710916305100
 DFT Correlation      Energy =  -1.87235149940783
 DFT Exchange         Energy = -30.08601588425858
 One-Electron (alpha) Energy = -406.95190962644295
 One-Electron (beta)  Energy = -406.95190962644324
 Total Coulomb        Energy = 345.87097321989131
    6    -317.5995965957      3.15e-05  
 Alpha HF Exchange    Energy =  -3.78706439010046
 Beta HF Exchange     Energy =  -3.78706439010046
 DFT Correlation      Energy =  -1.87236525650965
 DFT Exchange         Energy = -30.08570367217051
 One-Electron (alpha) Energy = -406.95508142517957
 One-Electron (beta)  Energy = -406.95508142517951
 Total Coulomb        Energy = 345.87692466720841
    7    -317.5996007450      7.34e-06  
 Alpha HF Exchange    Energy =  -3.78708523637110
 Beta HF Exchange     Energy =  -3.78708523637111
 DFT Correlation      Energy =  -1.87237643685872
 DFT Exchange         Energy = -30.08588931325469
 One-Electron (alpha) Energy = -406.95681925671272
 One-Electron (beta)  Energy = -406.95681925671300
 Total Coulomb        Energy = 345.88063861603456
    8    -317.5996009732      1.74e-06  
 Alpha HF Exchange    Energy =  -3.78708480098303
 Beta HF Exchange     Energy =  -3.78708480098303
 DFT Correlation      Energy =  -1.87237499026549
 DFT Exchange         Energy = -30.08588197118123
 One-Electron (alpha) Energy = -406.95654519339524
 One-Electron (beta)  Energy = -406.95654519339507
 Total Coulomb        Energy = 345.88008081787723
    9    -317.5996009853      4.29e-07  Convergence criterion met
 ---------------------------------------
 SCF time:   CPU 21.61s  wall 2.00s 
<S^2> =          0.000000000
 Alpha HF Exchange    Energy =  -3.78708480098303
 Beta HF Exchange     Energy =  -3.78708480098303
 DFT Correlation      Energy =  -1.87237499026549
 DFT Exchange         Energy = -30.08588197118123
 One-Electron (alpha) Energy = -406.95654519339524
 One-Electron (beta)  Energy = -406.95654519339507
 Total Coulomb        Energy = 345.88008081787723
 Nuclear repulsion Energy = 189.96583514705748
 SCF   energy in the final basis set =     -317.5996009853
 Total energy in the final basis set =     -317.5996009853
 
 --------------------------------------------------------------
 
                    Orbital Energies (a.u.)
 --------------------------------------------------------------
 
 Alpha MOs
 -- Occupied --
-24.685 -24.670 -10.259 -10.256 -10.194  -1.223  -1.175  -0.789
 -0.688  -0.605  -0.517  -0.516  -0.493  -0.482  -0.449  -0.433
 -0.391  -0.347  -0.336  -0.317  -0.315
 -- Virtual --
  0.093   0.125   0.128   0.142   0.159   0.174   0.188   0.207
  0.225   0.246   0.508   0.527   0.542   0.561   0.580   0.613
  0.650   0.686   0.781   0.784   0.843   0.848   0.864   0.898
  0.910   0.958   1.074   1.126   1.195   1.224   1.291   1.330
  1.358   1.391   1.431   1.474   1.475   1.589   1.660   1.741
  1.757   1.764   1.823   1.841   1.900   1.948   1.967   1.988
  2.000   2.022   2.045   2.075   2.089   2.127   2.171   2.196
  2.258   2.302   2.320   2.386   2.433   2.504   2.629   2.646
  2.699   2.738   2.796   2.862   2.886   2.911   2.934   3.035
  3.101   3.241   3.252   3.291   3.386   3.478   3.524   4.176
  4.290   4.396   4.505   4.661
 
 Beta MOs
 -- Occupied --
-24.685 -24.670 -10.259 -10.256 -10.194  -1.223  -1.175  -0.789
 -0.688  -0.605  -0.517  -0.516  -0.493  -0.482  -0.449  -0.433
 -0.391  -0.347  -0.336  -0.317  -0.315
 -- Virtual --
  0.093   0.125   0.128   0.142   0.159   0.174   0.188   0.207
  0.225   0.246   0.508   0.527   0.542   0.561   0.580   0.613
  0.650   0.686   0.781   0.784   0.843   0.848   0.864   0.898
  0.910   0.958   1.074   1.126   1.195   1.224   1.291   1.330
  1.358   1.391   1.431   1.474   1.475   1.589   1.660   1.741
  1.757   1.764   1.823   1.841   1.900   1.948   1.967   1.988
  2.000   2.022   2.045   2.075   2.089   2.127   2.171   2.196
  2.258   2.302   2.320   2.386   2.433   2.504   2.629   2.646
  2.699   2.738   2.796   2.862   2.886   2.911   2.934   3.035
  3.101   3.241   3.252   3.291   3.386   3.478   3.524   4.176
  4.290   4.396   4.505   4.661
 --------------------------------------------------------------
 
          Ground-State Mulliken Net Atomic Charges

     Atom                 Charge (a.u.)    Spin (a.u.)
  --------------------------------------------------------
      1 F                    -0.274694       0.000000
      2 F                    -0.324457       0.000000
      3 C                    -0.260375       0.000000
      4 C                     0.143459      -0.000000
      5 C                     0.135530      -0.000000
      6 H                     0.109256      -0.000000
      7 H                     0.106728      -0.000000
      8 H                     0.074797       0.000000
      9 H                     0.092108      -0.000000
     10 H                     0.104460       0.000000
     11 H                     0.093187       0.000000
  --------------------------------------------------------
  Sum of atomic charges =     0.000000
  Sum of spin   charges =     0.000000

 -----------------------------------------------------------------
                    Cartesian Multipole Moments
 -----------------------------------------------------------------
    Charge (ESU x 10^10)
                -0.0000
    Dipole Moment (Debye)
         X       0.1626      Y      -1.7425      Z       0.2400
       Tot       1.7665
    Quadrupole Moments (Debye-Ang)
        XX     -31.7560     XY       0.4197     YY     -29.1795
        XZ      -2.7498     YZ       0.0465     ZZ     -27.9438
    Octopole Moments (Debye-Ang^2)
       XXX       0.6577    XXY      -2.0894    XYY       0.1751
       YYY       8.4608    XXZ       0.7180    XYZ      -0.7885
       YYZ       0.2393    XZZ      -0.1310    YZZ       2.7986
       ZZZ       0.7938
    Hexadecapole Moments (Debye-Ang^3)
      XXXX    -304.5396   XXXY       2.3743   XXYY     -68.8023
      XYYY       1.2310   YYYY    -111.0274   XXXZ       6.4408
      XXYZ       0.1120   XYYZ       4.3682   YYYZ       0.8757
      XXZZ     -62.6904   XYZZ       0.3962   YYZZ     -30.6507
      XZZZ      13.3995   YZZZ       1.0568   ZZZZ     -83.4396
 -----------------------------------------------------------------
 Calculating analytic gradient of the SCF energy
 Gradient of SCF Energy
            1           2           3           4           5           6
    1  -0.0316297   0.0003794   0.0014894   0.0314756  -0.0015306  -0.0007083
    2  -0.0442411  -0.0004188  -0.0007368   0.0438850   0.0022838  -0.0001502
    3  -0.0564112   0.0005671   0.0003656   0.0554531  -0.0020035  -0.0000571
            7           8           9          10          11
    1   0.0004351   0.0003044  -0.0005374   0.0002329   0.0000892
    2   0.0003922  -0.0003653   0.0003836  -0.0005100  -0.0005225
    3  -0.0003177   0.0008288   0.0005632   0.0005611   0.0004505
 Max gradient component =       5.641E-02
 RMS gradient           =       1.919E-02
 Gradient time:  CPU 8.51 s  wall 0.75 s
 Geometry Optimization Parameters
   NAtoms,    NIC,     NZ,  NCons,   NDum,   NFix, NCnnct, MaxDiis
       11      68       0       1       0       0       0       0

 Cartesian Hessian Update
 Hessian Updated using BFGS Update


** CONSTRAINED OPTIMIZATION IN DELOCALIZED INTERNAL COORDINATES **
   Searching for a Minimum

   Optimization Cycle:   3

                       Coordinates (Angstroms)
     ATOM                X               Y               Z
      1  F         1.6562840407    0.6210035087    0.3720336855
      2  F        -1.6636452761    0.6726950911   -0.4030535839
      3  C         0.0051026454   -0.9825370449   -0.0055111171
      4  C         1.1325704893   -0.1129870830   -0.5644428493
      5  C        -1.1245698515   -0.1498165208    0.5841277879
      6  H        -0.3922165952   -1.6213192267   -0.8035254248
      7  H         0.4071379712   -1.6387821597    0.7761192726
      8  H         1.9030210424   -0.7604964612   -1.0131316042
      9  H         0.7222269458    0.5270559307   -1.3597091974
     10  H        -0.7519094595    0.4847241564    1.3968855043
     11  H        -1.9233019524   -0.7907401904    0.9774075263
   Point Group: c1    Number of degrees of freedom:    27


   Energy is   -317.599600985

              Constraints and their Current Values
                                        Value     Constraint
   Distance(Angs):        1   4             1.300002     1.300000
 Hessian Updated using BFGS Update

   Using Lagrange Multiplier Algorithm


 27 Hessian modes will be used to form the next step
  Hessian Eigenvalues:
    -0.774544    0.044619    0.045001    0.069068    0.070405    0.079426
     0.084469    0.084550    0.086031    0.102333    0.130215    0.158884
     0.160917    0.173669    0.220287    0.223442    0.224181    0.297258
     0.306082    0.340865    0.342167    0.343657    0.343774    0.344289
     0.346395    0.514976    1.297551

 Minimum Search - Taking P-RFO Step
 Searching for Lamda that Maximizes Along the Constraint modes Only
 Value Taken    Lamda =   0.00000005
 Searching for Lamda that Minimizes Along All other modes
 Value Taken    Lamda =  -0.00005374
 Step Taken.  Stepsize is  0.024763

                             Maximum     Tolerance    Cnvgd?
         Gradient            0.000978       0.000300      NO
         Displacement        0.012287       0.001200      NO
         Energy change     -0.000285       0.000001      NO


 New Cartesian Coordinates Obtained by Inverse Iteration

 Displacement from previous Coordinates is:  0.022051
 ----------------------------------------------------------------
             Standard Nuclear Orientation (Angstroms)
    I     Atom           X                Y                Z
 ----------------------------------------------------------------
    1      F       1.6595500204     0.6225147005     0.3713552752
    2      F      -1.6630064891     0.6709833546    -0.4021163954
    3      C       0.0044184256    -0.9822344904    -0.0044284398
    4      C       1.1333729656    -0.1118743715    -0.5634230193
    5      C      -1.1241245918    -0.1522983229     0.5867414650
    6      H      -0.3884290012    -1.6201519695    -0.8044428196
    7      H       0.4027048486    -1.6407337473     0.7780359355
    8      H       1.9011691730    -0.7589043408    -1.0174880418
    9      H       0.7252790926     0.5256285708    -1.3621015694
   10      H      -0.7544696897     0.4858329941     1.3976165206
   11      H      -1.9257647540    -0.7899623776     0.9774510891
 ----------------------------------------------------------------
 Nuclear Repulsion Energy =   189.8993165094 hartrees
 There are       21 alpha and       21 beta electrons

                       Distance Matrix (Angstroms)
             F (  1)   F (  2)   C (  3)   C (  4)   C (  5)   H (  6)
   F (  2)  3.411743
   C (  3)  2.335786  2.381510
   C (  4)  1.300000  2.908371  1.531189
   C (  5)  2.897511  1.395000  1.520488  2.533931
   H (  6)  3.256727  2.652492  1.096034  2.156125  2.152031
   H (  7)  2.620561  3.317222  1.097499  2.161203  2.140851  1.769338
   H (  8)  1.973723  3.889294  2.161904  1.101968  3.477632  2.455483
   H (  9)  1.971578  2.578102  2.153269  1.100381  2.770897  2.481069
   H ( 10)  2.626668  2.024539  2.167225  2.786912  1.096072  3.068912
   H ( 11)  3.900888  2.026477  2.174089  3.491765  1.096310  2.495548
             H (  7)   H (  8)   H (  9)   H ( 10)
   H (  8)  2.499385
   H (  9)  3.062249  1.775247
   H ( 10)  2.499044  3.799279  3.131658
   H ( 11)  2.487036  4.315805  3.772575  1.782169
 
 Applying Cartesian multipole field
    Component          Value
    ---------          -----
     (2,0,0)        1.00000E-11
     (0,2,0)        2.00000E-11
     (0,0,2)       -3.00000E-10
 Nucleus-field energy     =    -0.0000000106 hartrees
 Requested basis set is 6-31G(d,p)
 There are 38 shells and 105 basis functions
 A cutoff of  1.0D-14 yielded    724 shell pairs
 There are      5675 function pairs
 Smallest overlap matrix eigenvalue = 4.21E-03
 Guess from superposition of atomic densities
 Warning:  Energy on first SCF cycle will be non-variational
 SAD guess density has 42.000000 electrons

 -----------------------------------------------------------------------
  General SCF calculation program by
  Eric Jon Sundstrom, Paul Horn, Yuezhi Mao, Dmitri Zuev, Alec White,
  David Stuck, Shaama M.S., Shane Yost, Joonho Lee, David Small,
  Daniel Levine, Susi Lehtola, Hugh Burton, Evgeny Epifanovsky
 -----------------------------------------------------------------------
 Exchange:     0.2000 Hartree-Fock + 0.0800 Slater + 0.7200 B88
 Correlation:  0.1900 VWN1RPA + 0.8100 LYP
 Using SG-1 standard quadrature grid
 using 12 threads for integral computing
 -------------------------------------------------------
 OpenMP Integral computing Module                
 Release: version 1.0, May 2013, Q-Chem Inc. Pittsburgh 
 -------------------------------------------------------
 -------------------------------------------------------
 OpenMP BLAS3 based DFT computing Module                
 Release: version 1.0, May 2013, Q-Chem Inc. Pittsburgh 
 -------------------------------------------------------
 A unrestricted SCF calculation will be
 performed using DIIS
 SCF converges when DIIS error is below 1.0e-06
 Alpha HF Exchange    Energy =  -3.79299097151878
 Beta HF Exchange     Energy =  -3.79299097151878
 DFT Correlation      Energy =  -1.85875468142812
 DFT Exchange         Energy = -29.67905710999858
 One-Electron (alpha) Energy = -405.20649766245333
 One-Electron (beta)  Energy = -405.20649766245333
 Total Coulomb        Energy = 341.36961391262241
 ---------------------------------------
  Cycle       Energy         DIIS error
 ---------------------------------------
    1    -318.2678586479      3.27e-02  
 Alpha HF Exchange    Energy =  -3.82075347866514
 Beta HF Exchange     Energy =  -3.82075347866514
 DFT Correlation      Energy =  -1.88261676359704
 DFT Exchange         Energy = -30.35787474219422
 One-Electron (alpha) Energy = -408.46839313278025
 One-Electron (beta)  Energy = -408.46839313278036
 Total Coulomb        Energy = 349.37333863536065
    2    -317.5461295945      3.36e-03  
 Alpha HF Exchange    Energy =  -3.75298671245305
 Beta HF Exchange     Energy =  -3.75298671245306
 DFT Correlation      Energy =  -1.86197210744190
 DFT Exchange         Energy = -29.81509184321396
 One-Electron (alpha) Energy = -405.17627529179788
 One-Electron (beta)  Energy = -405.17627529179811
 Total Coulomb        Energy = 342.09111212040403
    3    -317.5451593399      3.55e-03  
 Alpha HF Exchange    Energy =  -3.78847294318305
 Beta HF Exchange     Energy =  -3.78847294318306
 DFT Correlation      Energy =  -1.87248812922027
 DFT Exchange         Energy = -30.09584635806045
 One-Electron (alpha) Energy = -406.94437630866088
 One-Electron (beta)  Energy = -406.94437630866122
 Total Coulomb        Energy = 345.93563611697516
    4    -317.5990803752      3.75e-04  
 Alpha HF Exchange    Energy =  -3.78675946547499
 Beta HF Exchange     Energy =  -3.78675946547499
 DFT Correlation      Energy =  -1.87247491873199
 DFT Exchange         Energy = -30.08423490404470
 One-Electron (alpha) Energy = -406.91165140454098
 One-Electron (beta)  Energy = -406.91165140454103
 Total Coulomb        Energy = 345.85471757001039
    5    -317.5994974940      1.76e-04  
 Alpha HF Exchange    Energy =  -3.78707201704484
 Beta HF Exchange     Energy =  -3.78707201704484
 DFT Correlation      Energy =  -1.87230491478798
 DFT Exchange         Energy = -30.08578748060035
 One-Electron (alpha) Energy = -406.88752658005660
 One-Electron (beta)  Energy = -406.88752658005666
 Total Coulomb        Energy = 345.80834724251383
    6    -317.5996258482      3.13e-05  
 Alpha HF Exchange    Energy =  -3.78702913455442
 Beta HF Exchange     Energy =  -3.78702913455442
 DFT Correlation      Energy =  -1.87231870564637
 DFT Exchange         Energy = -30.08548807413577
 One-Electron (alpha) Energy = -406.89071732970149
 One-Electron (beta)  Energy = -406.89071732970154
 Total Coulomb        Energy = 345.81435325261589
    7    -317.5996299568      7.36e-06  
 Alpha HF Exchange    Energy =  -3.78704960887624
 Beta HF Exchange     Energy =  -3.78704960887624
 DFT Correlation      Energy =  -1.87232986862574
 DFT Exchange         Energy = -30.08567109453769
 One-Electron (alpha) Energy = -406.89245150728783
 One-Electron (beta)  Energy = -406.89245150728777
 Total Coulomb        Energy = 345.81805651044743
    8    -317.5996301862      1.75e-06  
 Alpha HF Exchange    Energy =  -3.78704927748614
 Beta HF Exchange     Energy =  -3.78704927748614
 DFT Correlation      Energy =  -1.87232843311427
 DFT Exchange         Energy = -30.08566451762184
 One-Electron (alpha) Energy = -406.89217959745594
 One-Electron (beta)  Energy = -406.89217959745571
 Total Coulomb        Energy = 345.81750400339524
    9    -317.5996301984      4.32e-07  Convergence criterion met
 ---------------------------------------
 SCF time:   CPU 21.84s  wall 2.00s 
<S^2> =          0.000000000
 Alpha HF Exchange    Energy =  -3.78704927748614
 Beta HF Exchange     Energy =  -3.78704927748614
 DFT Correlation      Energy =  -1.87232843311427
 DFT Exchange         Energy = -30.08566451762184
 One-Electron (alpha) Energy = -406.89217959745594
 One-Electron (beta)  Energy = -406.89217959745571
 Total Coulomb        Energy = 345.81750400339524
 Nuclear repulsion Energy = 189.89931649883326
 SCF   energy in the final basis set =     -317.5996301984
 Total energy in the final basis set =     -317.5996301984
 
 --------------------------------------------------------------
 
                    Orbital Energies (a.u.)
 --------------------------------------------------------------
 
 Alpha MOs
 -- Occupied --
-24.685 -24.669 -10.259 -10.256 -10.194  -1.223  -1.174  -0.789
 -0.688  -0.605  -0.518  -0.515  -0.493  -0.481  -0.449  -0.433
 -0.391  -0.347  -0.336  -0.317  -0.315
 -- Virtual --
  0.093   0.124   0.128   0.142   0.159   0.174   0.188   0.207
  0.225   0.246   0.509   0.526   0.542   0.561   0.581   0.613
  0.650   0.685   0.781   0.785   0.844   0.848   0.864   0.898
  0.910   0.958   1.074   1.126   1.194   1.223   1.291   1.330
  1.357   1.391   1.432   1.474   1.475   1.589   1.660   1.740
  1.757   1.765   1.822   1.840   1.900   1.948   1.967   1.987
  2.001   2.020   2.045   2.076   2.089   2.127   2.174   2.196
  2.257   2.300   2.320   2.386   2.431   2.503   2.628   2.647
  2.701   2.739   2.796   2.861   2.886   2.910   2.933   3.034
  3.100   3.241   3.252   3.291   3.387   3.478   3.524   4.174
  4.290   4.394   4.504   4.660
 
 Beta MOs
 -- Occupied --
-24.685 -24.669 -10.259 -10.256 -10.194  -1.223  -1.174  -0.789
 -0.688  -0.605  -0.518  -0.515  -0.493  -0.481  -0.449  -0.433
 -0.391  -0.347  -0.336  -0.317  -0.315
 -- Virtual --
  0.093   0.124   0.128   0.142   0.159   0.174   0.188   0.207
  0.225   0.246   0.509   0.526   0.542   0.561   0.581   0.613
  0.650   0.685   0.781   0.785   0.844   0.848   0.864   0.898
  0.910   0.958   1.074   1.126   1.194   1.223   1.291   1.330
  1.357   1.391   1.432   1.474   1.475   1.589   1.660   1.740
  1.757   1.765   1.822   1.840   1.900   1.948   1.967   1.987
  2.001   2.020   2.045   2.076   2.089   2.127   2.174   2.196
  2.257   2.300   2.320   2.386   2.431   2.503   2.628   2.647
  2.701   2.739   2.796   2.861   2.886   2.910   2.933   3.034
  3.100   3.241   3.252   3.291   3.387   3.478   3.524   4.174
  4.290   4.394   4.504   4.660
 --------------------------------------------------------------
 
          Ground-State Mulliken Net Atomic Charges

     Atom                 Charge (a.u.)    Spin (a.u.)
  --------------------------------------------------------
      1 F                    -0.274300      -0.000000
      2 F                    -0.325766       0.000000
      3 C                    -0.260195       0.000000
      4 C                     0.143199      -0.000000
      5 C                     0.135786       0.000000
      6 H                     0.109574      -0.000000
      7 H                     0.106525      -0.000000
      8 H                     0.074698       0.000000
      9 H                     0.092176       0.000000
     10 H                     0.104716       0.000000
     11 H                     0.093587       0.000000
  --------------------------------------------------------
  Sum of atomic charges =     0.000000
  Sum of spin   charges =     0.000000

 -----------------------------------------------------------------
                    Cartesian Multipole Moments
 -----------------------------------------------------------------
    Charge (ESU x 10^10)
                 0.0000
    Dipole Moment (Debye)
         X       0.1632      Y      -1.7467      Z       0.2450
       Tot       1.7713
    Quadrupole Moments (Debye-Ang)
        XX     -31.7694     XY       0.4360     YY     -29.1786
        XZ      -2.7749     YZ       0.0536     ZZ     -27.9201
    Octopole Moments (Debye-Ang^2)
       XXX       0.5526    XXY      -2.0764    XYY       0.1373
       YYY       8.4646    XXZ       0.7135    XYZ      -0.7849
       YYZ       0.2248    XZZ      -0.1398    YZZ       2.7972
       ZZZ       0.7166
    Hexadecapole Moments (Debye-Ang^3)
      XXXX    -304.8650   XXXY       2.2737   XXYY     -68.8832
      XYYY       1.0727   YYYY    -110.9807   XXXZ       6.4759
      XXYZ       0.1126   XYYZ       4.3914   YYYZ       0.9217
      XXZZ     -62.7055   XYZZ       0.3342   YYZZ     -30.6457
      XZZZ      13.4449   YZZZ       1.1112   ZZZZ     -83.4908
 -----------------------------------------------------------------
 Calculating analytic gradient of the SCF energy
 Gradient of SCF Energy
            1           2           3           4           5           6
    1  -0.0314847   0.0003302   0.0000463   0.0317897  -0.0004132  -0.0001246
    2  -0.0439153  -0.0003031  -0.0005934   0.0442715   0.0005874  -0.0000189
    3  -0.0559196   0.0003595  -0.0002377   0.0557201  -0.0004625   0.0001001
            7           8           9          10          11
    1  -0.0000026   0.0000354  -0.0000587  -0.0001139  -0.0000038
    2   0.0001657  -0.0000752   0.0000075  -0.0001592   0.0000330
    3   0.0001004   0.0000826  -0.0000300   0.0002054   0.0000817
 Max gradient component =       5.592E-02
 RMS gradient           =       1.917E-02
 Gradient time:  CPU 8.36 s  wall 0.72 s
 Geometry Optimization Parameters
   NAtoms,    NIC,     NZ,  NCons,   NDum,   NFix, NCnnct, MaxDiis
       11      68       0       1       0       0       0       0

 Cartesian Hessian Update
 Hessian Updated using BFGS Update


** CONSTRAINED OPTIMIZATION IN DELOCALIZED INTERNAL COORDINATES **
   Searching for a Minimum

   Optimization Cycle:   4

                       Coordinates (Angstroms)
     ATOM                X               Y               Z
      1  F         1.6595500204    0.6225147005    0.3713552752
      2  F        -1.6630064891    0.6709833546   -0.4021163954
      3  C         0.0044184256   -0.9822344904   -0.0044284398
      4  C         1.1333729656   -0.1118743715   -0.5634230193
      5  C        -1.1241245918   -0.1522983229    0.5867414650
      6  H        -0.3884290012   -1.6201519695   -0.8044428196
      7  H         0.4027048486   -1.6407337473    0.7780359355
      8  H         1.9011691730   -0.7589043408   -1.0174880418
      9  H         0.7252790926    0.5256285708   -1.3621015694
     10  H        -0.7544696897    0.4858329941    1.3976165206
     11  H        -1.9257647540   -0.7899623776    0.9774510891
   Point Group: c1    Number of degrees of freedom:    27


   Energy is   -317.599630198

              Constraints and their Current Values
                                        Value     Constraint
   Distance(Angs):        1   4             1.300000     1.300000
 Hessian Updated using BFGS Update

 26 Hessian modes will be used to form the next step
  Hessian Eigenvalues:
     0.040258    0.045004    0.065902    0.069833    0.079796    0.084471
     0.084653    0.085003    0.102780    0.132265    0.159647    0.159997
     0.164425    0.171719    0.220354    0.224137    0.226127    0.295803
     0.314687    0.340990    0.342400    0.343596    0.343752    0.344509
     0.346417    0.510175

 Minimum Search - Taking Simple RFO Step
 Searching for Lamda that Minimizes Along All modes
 Value Taken    Lamda =  -0.00000458
 Step Taken.  Stepsize is  0.008181

                             Maximum     Tolerance    Cnvgd?
         Gradient           0.000352      0.000300      NO
         Displacement       0.003398      0.001200      NO
         Energy change     -0.000029      0.000001      NO


 New Cartesian Coordinates Obtained by Inverse Iteration

 Displacement from previous Coordinates is:  0.007383
 ----------------------------------------------------------------
             Standard Nuclear Orientation (Angstroms)
    I     Atom           X                Y                Z
 ----------------------------------------------------------------
    1      F       1.6600279105     0.6217252274     0.3722138616
    2      F      -1.6643880117     0.6701718975    -0.4026441632
    3      C       0.0043181392    -0.9818632337    -0.0040739532
    4      C       1.1330264622    -0.1120238663    -0.5626025926
    5      C      -1.1237892486    -0.1525318181     0.5868939632
    6      H      -0.3875252897    -1.6194993306    -0.8047730011
    7      H       0.4026468182    -1.6413210839     0.7777079262
    8      H       1.9001082175    -0.7588235857    -1.0181698429
    9      H       0.7252936726     0.5257074313    -1.3612302207
   10      H      -0.7536944353     0.4873245492     1.3961153899
   11      H      -1.9253242348    -0.7900661872     0.9777626328
 ----------------------------------------------------------------
 Nuclear Repulsion Energy =   189.8976417796 hartrees
 There are       21 alpha and       21 beta electrons

                       Distance Matrix (Angstroms)
             F (  1)   F (  2)   C (  3)   C (  4)   C (  5)   H (  6)
   F (  2)  3.413868
   C (  3)  2.335479  2.381734
   C (  4)  1.300000  2.909114  1.530541
   C (  5)  2.897447  1.395806  1.519757  2.533022
   H (  6)  3.255896  2.652297  1.096011  2.154810  2.151933
   H (  7)  2.620460  3.317961  1.097603  2.160703  2.140773  1.768925
   H (  8)  1.974011  3.889284  2.161517  1.101955  3.476748  2.453481
   H (  9)  1.971744  2.578824  2.152777  1.100342  2.770253  2.479904
   H ( 10)  2.625356  2.024434  2.166478  2.784872  1.096004  3.068664
   H ( 11)  3.900589  2.026304  2.173548  3.490842  1.096215  2.496041
             H (  7)   H (  8)   H (  9)   H ( 10)
   H (  8)  2.499274
   H (  9)  3.061890  1.774232
   H ( 10)  2.500137  3.797937  3.129191
   H ( 11)  2.486786  4.314934  3.771992  1.783105
 
 Applying Cartesian multipole field
    Component          Value
    ---------          -----
     (2,0,0)        1.00000E-11
     (0,2,0)        2.00000E-11
     (0,0,2)       -3.00000E-10
 Nucleus-field energy     =    -0.0000000106 hartrees
 Requested basis set is 6-31G(d,p)
 There are 38 shells and 105 basis functions
 A cutoff of  1.0D-14 yielded    724 shell pairs
 There are      5675 function pairs
 Smallest overlap matrix eigenvalue = 4.20E-03
 Guess from superposition of atomic densities
 Warning:  Energy on first SCF cycle will be non-variational
 SAD guess density has 42.000000 electrons

 -----------------------------------------------------------------------
  General SCF calculation program by
  Eric Jon Sundstrom, Paul Horn, Yuezhi Mao, Dmitri Zuev, Alec White,
  David Stuck, Shaama M.S., Shane Yost, Joonho Lee, David Small,
  Daniel Levine, Susi Lehtola, Hugh Burton, Evgeny Epifanovsky
 -----------------------------------------------------------------------
 Exchange:     0.2000 Hartree-Fock + 0.0800 Slater + 0.7200 B88
 Correlation:  0.1900 VWN1RPA + 0.8100 LYP
 Using SG-1 standard quadrature grid
 using 12 threads for integral computing
 -------------------------------------------------------
 OpenMP Integral computing Module                
 Release: version 1.0, May 2013, Q-Chem Inc. Pittsburgh 
 -------------------------------------------------------
 -------------------------------------------------------
 OpenMP BLAS3 based DFT computing Module                
 Release: version 1.0, May 2013, Q-Chem Inc. Pittsburgh 
 -------------------------------------------------------
 A unrestricted SCF calculation will be
 performed using DIIS
 SCF converges when DIIS error is below 1.0e-06
 Alpha HF Exchange    Energy =  -3.79306070280046
 Beta HF Exchange     Energy =  -3.79306070280046
 DFT Correlation      Energy =  -1.85876962989692
 DFT Exchange         Energy = -29.67916809638399
 One-Electron (alpha) Energy = -405.20467714934267
 One-Electron (beta)  Energy = -405.20467714934267
 Total Coulomb        Energy = 341.36741894057621
 ---------------------------------------
  Cycle       Energy         DIIS error
 ---------------------------------------
    1    -318.2683527210      3.27e-02  
 Alpha HF Exchange    Energy =  -3.82079906605065
 Beta HF Exchange     Energy =  -3.82079906605065
 DFT Correlation      Energy =  -1.88264004503026
 DFT Exchange         Energy = -30.35822096294994
 One-Electron (alpha) Energy = -408.46791979208427
 One-Electron (beta)  Energy = -408.46791979208444
 Total Coulomb        Energy = 349.37457143464030
    2    -317.5460855206      3.36e-03  
 Alpha HF Exchange    Energy =  -3.75298551847311
 Beta HF Exchange     Energy =  -3.75298551847311
 DFT Correlation      Energy =  -1.86198181108797
 DFT Exchange         Energy = -29.81508499955148
 One-Electron (alpha) Energy = -405.17350033163018
 One-Electron (beta)  Energy = -405.17350033163035
 Total Coulomb        Energy = 342.08729906466129
    3    -317.5450976772      3.55e-03  
 Alpha HF Exchange    Energy =  -3.78850106839858
 Beta HF Exchange     Energy =  -3.78850106839859
 DFT Correlation      Energy =  -1.87250507408394
 DFT Exchange         Energy = -30.09606132254840
 One-Electron (alpha) Energy = -406.94284213080351
 One-Electron (beta)  Energy = -406.94284213080351
 Total Coulomb        Energy = 345.93452920407594
    4    -317.5990818220      3.75e-04  
 Alpha HF Exchange    Energy =  -3.78678524890562
 Beta HF Exchange     Energy =  -3.78678524890562
 DFT Correlation      Energy =  -1.87249257091396
 DFT Exchange         Energy = -30.08443569355298
 One-Electron (alpha) Energy = -406.91025178656122
 One-Electron (beta)  Energy = -406.91025178656110
 Total Coulomb        Energy = 345.85386090525958
    5    -317.5994996612      1.77e-04  
 Alpha HF Exchange    Energy =  -3.78709837443635
 Beta HF Exchange     Energy =  -3.78709837443635
 DFT Correlation      Energy =  -1.87232238304391
 DFT Exchange         Energy = -30.08599177854906
 One-Electron (alpha) Energy = -406.88607477237241
 One-Electron (beta)  Energy = -406.88607477237258
 Total Coulomb        Energy = 345.80738972797576
    6    -317.5996289583      3.12e-05  
 Alpha HF Exchange    Energy =  -3.78705624396622
 Beta HF Exchange     Energy =  -3.78705624396623
 DFT Correlation      Energy =  -1.87233619707020
 DFT Exchange         Energy = -30.08569758909061
 One-Electron (alpha) Energy = -406.88927850275400
 One-Electron (beta)  Energy = -406.88927850275411
 Total Coulomb        Energy = 345.81342845918550
    7    -317.5996330515      7.35e-06  
 Alpha HF Exchange    Energy =  -3.78707640865828
 Beta HF Exchange     Energy =  -3.78707640865828
 DFT Correlation      Energy =  -1.87234730679459
 DFT Exchange         Energy = -30.08587829122347
 One-Electron (alpha) Energy = -406.89100190322881
 One-Electron (beta)  Energy = -406.89100190322898
 Total Coulomb        Energy = 345.81710717299580
    8    -317.5996332798      1.76e-06  
 Alpha HF Exchange    Energy =  -3.78707615098679
 Beta HF Exchange     Energy =  -3.78707615098679
 DFT Correlation      Energy =  -1.87234588389234
 DFT Exchange         Energy = -30.08587226919353
 One-Electron (alpha) Energy = -406.89073258902357
 One-Electron (beta)  Energy = -406.89073258902368
 Total Coulomb        Energy = 345.81656057209221
    9    -317.5996332920      4.33e-07  Convergence criterion met
 ---------------------------------------
 SCF time:   CPU 21.97s  wall 2.00s 
<S^2> =         -0.000000000
 Alpha HF Exchange    Energy =  -3.78707615098679
 Beta HF Exchange     Energy =  -3.78707615098679
 DFT Correlation      Energy =  -1.87234588389234
 DFT Exchange         Energy = -30.08587226919353
 One-Electron (alpha) Energy = -406.89073258902357
 One-Electron (beta)  Energy = -406.89073258902368
 Total Coulomb        Energy = 345.81656057209221
 Nuclear repulsion Energy = 189.89764176896514
 SCF   energy in the final basis set =     -317.5996332920
 Total energy in the final basis set =     -317.5996332920
 
 --------------------------------------------------------------
 
                    Orbital Energies (a.u.)
 --------------------------------------------------------------
 
 Alpha MOs
 -- Occupied --
-24.685 -24.669 -10.259 -10.256 -10.194  -1.223  -1.174  -0.789
 -0.688  -0.605  -0.518  -0.515  -0.493  -0.481  -0.449  -0.433
 -0.391  -0.347  -0.336  -0.317  -0.315
 -- Virtual --
  0.093   0.124   0.128   0.142   0.159   0.174   0.188   0.207
  0.225   0.246   0.508   0.526   0.542   0.561   0.581   0.613
  0.650   0.686   0.781   0.785   0.844   0.848   0.864   0.898
  0.910   0.958   1.074   1.126   1.194   1.223   1.291   1.330
  1.357   1.391   1.432   1.474   1.475   1.589   1.660   1.740
  1.757   1.765   1.823   1.840   1.900   1.948   1.967   1.987
  2.002   2.020   2.045   2.075   2.089   2.127   2.174   2.196
  2.257   2.300   2.320   2.387   2.431   2.503   2.627   2.647
  2.702   2.739   2.796   2.861   2.886   2.910   2.933   3.034
  3.100   3.241   3.253   3.292   3.387   3.479   3.524   4.173
  4.291   4.394   4.504   4.661
 
 Beta MOs
 -- Occupied --
-24.685 -24.669 -10.259 -10.256 -10.194  -1.223  -1.174  -0.789
 -0.688  -0.605  -0.518  -0.515  -0.493  -0.481  -0.449  -0.433
 -0.391  -0.347  -0.336  -0.317  -0.315
 -- Virtual --
  0.093   0.124   0.128   0.142   0.159   0.174   0.188   0.207
  0.225   0.246   0.508   0.526   0.542   0.561   0.581   0.613
  0.650   0.686   0.781   0.785   0.844   0.848   0.864   0.898
  0.910   0.958   1.074   1.126   1.194   1.223   1.291   1.330
  1.357   1.391   1.432   1.474   1.475   1.589   1.660   1.740
  1.757   1.765   1.823   1.840   1.900   1.948   1.967   1.987
  2.002   2.020   2.045   2.075   2.089   2.127   2.174   2.196
  2.257   2.300   2.320   2.387   2.431   2.503   2.627   2.647
  2.702   2.739   2.796   2.861   2.886   2.910   2.933   3.034
  3.100   3.241   3.253   3.292   3.387   3.479   3.524   4.173
  4.291   4.394   4.504   4.661
 --------------------------------------------------------------
 
          Ground-State Mulliken Net Atomic Charges

     Atom                 Charge (a.u.)    Spin (a.u.)
  --------------------------------------------------------
      1 F                    -0.274296      -0.000000
      2 F                    -0.326200      -0.000000
      3 C                    -0.260059      -0.000000
      4 C                     0.143170       0.000000
      5 C                     0.135790       0.000000
      6 H                     0.109615       0.000000
[...]
      9  H         0.7276117835    0.5348903694   -1.3509729022
     10  H        -0.7507194847    0.5014295512    1.3823439795
     11  H        -1.9185663258   -0.7893561214    0.9912764890
   Point Group: c1    Number of degrees of freedom:    27


   Energy is   -317.599640343

              Constraints and their Current Values
                                        Value     Constraint
   Distance(Angs):        1   4             1.300000     1.300000
 Hessian Updated using BFGS Update

 26 Hessian modes will be used to form the next step
  Hessian Eigenvalues:
     0.003072    0.044913    0.061647    0.069485    0.080939    0.081895
     0.084529    0.084835    0.103963    0.131820    0.159758    0.160020
     0.164202    0.176589    0.222612    0.225022    0.231314    0.300174
     0.321346    0.341050    0.342144    0.343529    0.343811    0.344971
     0.347968    0.471913

 Minimum Search - Taking Simple RFO Step
 Searching for Lamda that Minimizes Along All modes
 Value Taken    Lamda =   0.00000000
 Step Taken.  Stepsize is  0.006082

                             Maximum     Tolerance    Cnvgd?
         Gradient           0.000131      0.000300     YES
         Displacement       0.003440      0.001200      NO
         Energy change     -0.000001      0.000001      NO


 New Cartesian Coordinates Obtained by Inverse Iteration

 Displacement from previous Coordinates is:  0.006257
 ----------------------------------------------------------------
             Standard Nuclear Orientation (Angstroms)
    I     Atom           X                Y                Z
 ----------------------------------------------------------------
    1      F       1.6676643167     0.6104242113     0.3811365325
    2      F      -1.6793797116     0.6532978384    -0.4111568039
    3      C       0.0037002529    -0.9812689961    -0.0053643277
    4      C       1.1348745736    -0.1121076872    -0.5591202449
    5      C      -1.1243133120    -0.1519728011     0.5854151625
    6      H      -0.3892773776    -1.6150729136    -0.8086971710
    7      H       0.3997559688    -1.6452054222     0.7737241859
    8      H       1.8981525633    -0.7578589378    -1.0223740037
    9      H       0.7278425029     0.5354853454    -1.3502644337
   10      H      -0.7504476781     0.5022471197     1.3812850381
   11      H      -1.9178720989    -0.7891677568     0.9926160659
 ----------------------------------------------------------------
 Nuclear Repulsion Energy =   189.7712806659 hartrees
 There are       21 alpha and       21 beta electrons

                       Distance Matrix (Angstroms)
             F (  1)   F (  2)   C (  3)   C (  4)   C (  5)   H (  6)
   F (  2)  3.439807
   C (  3)  2.334876  2.381015
   C (  4)  1.300000  2.920234  1.530243
   C (  5)  2.901399  1.396322  1.519594  2.532880
   H (  6)  3.255695  2.639680  1.096122  2.155048  2.150462
   H (  7)  2.617171  3.318112  1.097566  2.160385  2.141960  1.768485
   H (  8)  1.973617  3.894058  2.161752  1.101904  3.476692  2.452103
   H (  9)  1.971454  2.586604  2.152599  1.100437  2.765852  2.483174
   H ( 10)  2.619020  2.024495  2.166185  2.774355  1.095987  3.067492
   H ( 11)  3.897286  2.026861  2.173777  3.490782  1.096159  2.502689
             H (  7)   H (  8)   H (  9)   H ( 10)
   H (  8)  2.501708
   H (  9)  3.061761  1.774789
   H ( 10)  2.510707  3.792167  3.106092
   H ( 11)  2.480346  4.315462  3.774070  1.783731
 
 Applying Cartesian multipole field
    Component          Value
    ---------          -----
     (2,0,0)        1.00000E-11
     (0,2,0)        2.00000E-11
     (0,0,2)       -3.00000E-10
 Nucleus-field energy     =    -0.0000000107 hartrees
 Requested basis set is 6-31G(d,p)
 There are 38 shells and 105 basis functions
 A cutoff of  1.0D-14 yielded    724 shell pairs
 There are      5675 function pairs
 Smallest overlap matrix eigenvalue = 4.16E-03
 Guess from superposition of atomic densities
 Warning:  Energy on first SCF cycle will be non-variational
 SAD guess density has 42.000000 electrons

 -----------------------------------------------------------------------
  General SCF calculation program by
  Eric Jon Sundstrom, Paul Horn, Yuezhi Mao, Dmitri Zuev, Alec White,
  David Stuck, Shaama M.S., Shane Yost, Joonho Lee, David Small,
  Daniel Levine, Susi Lehtola, Hugh Burton, Evgeny Epifanovsky
 -----------------------------------------------------------------------
 Exchange:     0.2000 Hartree-Fock + 0.0800 Slater + 0.7200 B88
 Correlation:  0.1900 VWN1RPA + 0.8100 LYP
 Using SG-1 standard quadrature grid
 using 12 threads for integral computing
 -------------------------------------------------------
 OpenMP Integral computing Module                
 Release: version 1.0, May 2013, Q-Chem Inc. Pittsburgh 
 -------------------------------------------------------
 -------------------------------------------------------
 OpenMP BLAS3 based DFT computing Module                
 Release: version 1.0, May 2013, Q-Chem Inc. Pittsburgh 
 -------------------------------------------------------
 A unrestricted SCF calculation will be
 performed using DIIS
 SCF converges when DIIS error is below 1.0e-06
 Alpha HF Exchange    Energy =  -3.79305167884938
 Beta HF Exchange     Energy =  -3.79305167884938
 DFT Correlation      Energy =  -1.85876335011237
 DFT Exchange         Energy = -29.67913157595466
 One-Electron (alpha) Energy = -405.07845634120952
 One-Electron (beta)  Energy = -405.07845634120952
 Total Coulomb        Energy = 341.24143973046631
 ---------------------------------------
  Cycle       Energy         DIIS error
 ---------------------------------------
    1    -318.2681905805      3.27e-02  
 Alpha HF Exchange    Energy =  -3.82081847639439
 Beta HF Exchange     Energy =  -3.82081847639439
 DFT Correlation      Energy =  -1.88263849116071
 DFT Exchange         Energy = -30.35838017376627
 One-Electron (alpha) Energy = -408.34036637887664
 One-Electron (beta)  Energy = -408.34036637887669
 Total Coulomb        Energy = 349.24602768474989
    2    -317.5460800355      3.36e-03  
 Alpha HF Exchange    Energy =  -3.75298096892847
 Beta HF Exchange     Energy =  -3.75298096892847
 DFT Correlation      Energy =  -1.86197937451911
 DFT Exchange         Energy = -29.81505936673751
 One-Electron (alpha) Energy = -405.04750373199988
 One-Electron (beta)  Energy = -405.04750373199983
 Total Coulomb        Energy = 341.96164086493633
    3    -317.5450866230      3.56e-03  
 Alpha HF Exchange    Energy =  -3.78850357227626
 Beta HF Exchange     Energy =  -3.78850357227626
 DFT Correlation      Energy =  -1.87250046743772
 DFT Exchange         Energy = -30.09608520974676
 One-Electron (alpha) Energy = -406.81537455141182
 One-Electron (beta)  Energy = -406.81537455141194
 Total Coulomb        Energy = 345.80597266758957
    4    -317.5990886018      3.76e-04  
 Alpha HF Exchange    Energy =  -3.78679340495324
 Beta HF Exchange     Energy =  -3.78679340495324
 DFT Correlation      Energy =  -1.87249066158413
 DFT Exchange         Energy = -30.08450767121332
 One-Electron (alpha) Energy = -406.78341967659139
 One-Electron (beta)  Energy = -406.78341967659134
 Total Coulomb        Energy = 345.72663730275116
    5    -317.5995065379      1.77e-04  
 Alpha HF Exchange    Energy =  -3.78710400623046
 Beta HF Exchange     Energy =  -3.78710400623046
 DFT Correlation      Energy =  -1.87231971447027
 DFT Exchange         Energy = -30.08604343672891
 One-Electron (alpha) Energy = -406.75907417133254
 One-Electron (beta)  Energy = -406.75907417133271
 Total Coulomb        Energy = 345.67980246526230
    6    -317.5996363859      3.12e-05  
 Alpha HF Exchange    Energy =  -3.78706211846590
 Beta HF Exchange     Energy =  -3.78706211846590
 DFT Correlation      Energy =  -1.87233335362907
 DFT Exchange         Energy = -30.08575069723083
 One-Electron (alpha) Energy = -406.76225179453525
 One-Electron (beta)  Energy = -406.76225179453508
 Total Coulomb        Energy = 345.68579076367223
    7    -317.5996404580      7.40e-06  
 Alpha HF Exchange    Energy =  -3.78708244124783
 Beta HF Exchange     Energy =  -3.78708244124783
 DFT Correlation      Energy =  -1.87234453724179
 DFT Exchange         Energy = -30.08593271524009
 One-Electron (alpha) Energy = -406.76398584715361
 One-Electron (beta)  Energy = -406.76398584715355
 Total Coulomb        Energy = 345.68949248402350
    8    -317.5996406901      1.75e-06  
 Alpha HF Exchange    Energy =  -3.78708224232757
 Beta HF Exchange     Energy =  -3.78708224232757
 DFT Correlation      Energy =  -1.87234313499553
 DFT Exchange         Energy = -30.08592714489676
 One-Electron (alpha) Energy = -406.76372078315114
 One-Electron (beta)  Energy = -406.76372078315103
 Total Coulomb        Energy = 345.68895497353475
    9    -317.5996407021      4.36e-07  Convergence criterion met
 ---------------------------------------
 SCF time:   CPU 21.63s  wall 2.00s 
<S^2> =         -0.000000000
 Alpha HF Exchange    Energy =  -3.78708224232757
 Beta HF Exchange     Energy =  -3.78708224232757
 DFT Correlation      Energy =  -1.87234313499553
 DFT Exchange         Energy = -30.08592714489676
 One-Electron (alpha) Energy = -406.76372078315114
 One-Electron (beta)  Energy = -406.76372078315103
 Total Coulomb        Energy = 345.68895497353475
 Nuclear repulsion Energy = 189.77128065520407
 SCF   energy in the final basis set =     -317.5996407021
 Total energy in the final basis set =     -317.5996407021
 
 --------------------------------------------------------------
 
                    Orbital Energies (a.u.)
 --------------------------------------------------------------
 
 Alpha MOs
 -- Occupied --
-24.685 -24.669 -10.259 -10.256 -10.194  -1.224  -1.173  -0.789
 -0.688  -0.605  -0.518  -0.515  -0.493  -0.481  -0.449  -0.433
 -0.390  -0.347  -0.337  -0.317  -0.315
 -- Virtual --
  0.093   0.123   0.128   0.142   0.160   0.174   0.187   0.207
  0.224   0.247   0.508   0.525   0.541   0.561   0.581   0.613
  0.651   0.687   0.781   0.786   0.844   0.848   0.864   0.899
  0.909   0.958   1.072   1.126   1.194   1.223   1.290   1.335
  1.357   1.391   1.430   1.474   1.476   1.590   1.660   1.740
  1.759   1.765   1.823   1.841   1.901   1.948   1.965   1.985
  2.001   2.019   2.045   2.076   2.090   2.126   2.171   2.195
  2.259   2.301   2.319   2.390   2.430   2.502   2.627   2.649
  2.701   2.740   2.797   2.860   2.885   2.910   2.933   3.035
  3.100   3.242   3.254   3.291   3.385   3.478   3.526   4.171
  4.296   4.388   4.513   4.662
 
 Beta MOs
 -- Occupied --
-24.685 -24.669 -10.259 -10.256 -10.194  -1.224  -1.173  -0.789
 -0.688  -0.605  -0.518  -0.515  -0.493  -0.481  -0.449  -0.433
 -0.390  -0.347  -0.337  -0.317  -0.315
 -- Virtual --
  0.093   0.123   0.128   0.142   0.160   0.174   0.187   0.207
  0.224   0.247   0.508   0.525   0.541   0.561   0.581   0.613
  0.651   0.687   0.781   0.786   0.844   0.848   0.864   0.899
  0.909   0.958   1.072   1.126   1.194   1.223   1.290   1.335
  1.357   1.391   1.430   1.474   1.476   1.590   1.660   1.740
  1.759   1.765   1.823   1.841   1.901   1.948   1.965   1.985
  2.001   2.019   2.045   2.076   2.090   2.126   2.171   2.195
  2.259   2.301   2.319   2.390   2.430   2.502   2.627   2.649
  2.701   2.740   2.797   2.860   2.885   2.910   2.933   3.035
  3.100   3.242   3.254   3.291   3.385   3.478   3.526   4.171
  4.296   4.388   4.513   4.662
 --------------------------------------------------------------
 
          Ground-State Mulliken Net Atomic Charges

     Atom                 Charge (a.u.)    Spin (a.u.)
  --------------------------------------------------------
      1 F                    -0.274379       0.000000
      2 F                    -0.326558       0.000000
      3 C                    -0.259168       0.000000
      4 C                     0.142912      -0.000000
      5 C                     0.135484      -0.000000
      6 H                     0.109871      -0.000000
      7 H                     0.106515       0.000000
      8 H                     0.074759       0.000000
      9 H                     0.091962       0.000000
     10 H                     0.104843       0.000000
     11 H                     0.093760       0.000000
  --------------------------------------------------------
  Sum of atomic charges =    -0.000000
  Sum of spin   charges =     0.000000

 -----------------------------------------------------------------
                    Cartesian Multipole Moments
 -----------------------------------------------------------------
    Charge (ESU x 10^10)
                 0.0000
    Dipole Moment (Debye)
         X       0.1797      Y      -1.7208      Z       0.2496
       Tot       1.7481
    Quadrupole Moments (Debye-Ang)
        XX     -31.8678     XY       0.4317     YY     -29.1184
        XZ      -2.8244     YZ       0.0531     ZZ     -27.9496
    Octopole Moments (Debye-Ang^2)
       XXX       0.7680    XXY      -1.9454    XYY       0.1578
       YYY       8.8158    XXZ       0.7302    XYZ      -0.7800
       YYZ       0.2271    XZZ      -0.1130    YZZ       2.8841
       ZZZ       0.6710
    Hexadecapole Moments (Debye-Ang^3)
      XXXX    -307.6362   XXXY       2.2477   XXYY     -69.0071
      XYYY       1.0017   YYYY    -109.8880   XXXZ       5.6302
      XXYZ       0.0779   XYYZ       4.1616   YYYZ       0.8439
      XXZZ     -63.0893   XYZZ       0.3370   YYZZ     -30.4640
      XZZZ      12.7904   YZZZ       1.0527   ZZZZ     -83.6109
 -----------------------------------------------------------------
 Calculating analytic gradient of the SCF energy
 Gradient of SCF Energy
            1           2           3           4           5           6
    1  -0.0319353  -0.0000245   0.0000261   0.0319261   0.0000166  -0.0000078
    2  -0.0432880   0.0000250   0.0000559   0.0432830  -0.0000470  -0.0000233
    3  -0.0563519  -0.0000688   0.0000193   0.0563045   0.0000763   0.0000182
            7           8           9          10          11
    1  -0.0000028   0.0000153  -0.0000001  -0.0000092  -0.0000043
    2  -0.0000212  -0.0000075  -0.0000048   0.0000215   0.0000062
    3  -0.0000098   0.0000428   0.0000112  -0.0000271  -0.0000146
 Max gradient component =       5.635E-02
 RMS gradient           =       1.917E-02
 Gradient time:  CPU 8.35 s  wall 0.72 s
 Geometry Optimization Parameters
   NAtoms,    NIC,     NZ,  NCons,   NDum,   NFix, NCnnct, MaxDiis
       11      68       0       1       0       0       0       0

 Cartesian Hessian Update
 Hessian Updated using BFGS Update


** CONSTRAINED OPTIMIZATION IN DELOCALIZED INTERNAL COORDINATES **
   Searching for a Minimum

   Optimization Cycle:  10

                       Coordinates (Angstroms)
     ATOM                X               Y               Z
      1  F         1.6676643167    0.6104242113    0.3811365325
      2  F        -1.6793797116    0.6532978384   -0.4111568039
      3  C         0.0037002529   -0.9812689961   -0.0053643277
      4  C         1.1348745736   -0.1121076872   -0.5591202449
      5  C        -1.1243133120   -0.1519728011    0.5854151625
      6  H        -0.3892773776   -1.6150729136   -0.8086971710
      7  H         0.3997559688   -1.6452054222    0.7737241859
      8  H         1.8981525633   -0.7578589378   -1.0223740037
      9  H         0.7278425029    0.5354853454   -1.3502644337
     10  H        -0.7504476781    0.5022471197    1.3812850381
     11  H        -1.9178720989   -0.7891677568    0.9926160659
   Point Group: c1    Number of degrees of freedom:    27


   Energy is   -317.599640702

              Constraints and their Current Values
                                        Value     Constraint
   Distance(Angs):        1   4             1.300000     1.300000
 Hessian Updated using BFGS Update

 26 Hessian modes will be used to form the next step
  Hessian Eigenvalues:
     0.003379    0.042167    0.054453    0.069349    0.074844    0.081903
     0.084526    0.084745    0.104579    0.130884    0.159769    0.160110
     0.164285    0.176889    0.223329    0.225166    0.229298    0.300109
     0.325303    0.340783    0.341543    0.343385    0.343813    0.344990
     0.347931    0.443104

 Minimum Search - Taking Simple RFO Step
 Searching for Lamda that Minimizes Along All modes
 Value Taken    Lamda =   0.00000000
 Step Taken.  Stepsize is  0.001263

                             Maximum     Tolerance    Cnvgd?
         Gradient           0.000036      0.000300     YES
         Displacement       0.000552      0.001200     YES
         Energy change     -0.000000      0.000001     YES


                       Distance Matrix (Angstroms)
             F (  1)   F (  2)   C (  3)   C (  4)   C (  5)   H (  6)
   F (  2)  3.439807
   C (  3)  2.334876  2.381015
   C (  4)  1.300000  2.920234  1.530243
   C (  5)  2.901399  1.396322  1.519594  2.532880
   H (  6)  3.255695  2.639680  1.096122  2.155048  2.150462
   H (  7)  2.617171  3.318112  1.097566  2.160385  2.141960  1.768485
   H (  8)  1.973617  3.894058  2.161752  1.101904  3.476692  2.452103
   H (  9)  1.971454  2.586604  2.152599  1.100437  2.765852  2.483174
   H ( 10)  2.619020  2.024495  2.166185  2.774355  1.095987  3.067492
   H ( 11)  3.897286  2.026861  2.173777  3.490782  1.096159  2.502689
             H (  7)   H (  8)   H (  9)   H ( 10)
   H (  8)  2.501708
   H (  9)  3.061761  1.774789
   H ( 10)  2.510707  3.792167  3.106092
   H ( 11)  2.480346  4.315462  3.774070  1.783731
 
 Final energy is   -317.599640702111     


 ******************************
 **  OPTIMIZATION CONVERGED  **
 ******************************

                       Coordinates (Angstroms)
     ATOM                X               Y               Z
      1  F         1.6676643167    0.6104242113    0.3811365325
      2  F        -1.6793797116    0.6532978384   -0.4111568039
      3  C         0.0037002529   -0.9812689961   -0.0053643277
      4  C         1.1348745736   -0.1121076872   -0.5591202449
      5  C        -1.1243133120   -0.1519728011    0.5854151625
      6  H        -0.3892773776   -1.6150729136   -0.8086971710
      7  H         0.3997559688   -1.6452054222    0.7737241859
      8  H         1.8981525633   -0.7578589378   -1.0223740037
      9  H         0.7278425029    0.5354853454   -1.3502644337
     10  H        -0.7504476781    0.5022471197    1.3812850381
     11  H        -1.9178720989   -0.7891677568    0.9926160659

Z-matrix Print:
$molecule
0 1
F 
C  1 1.300000
H  2 1.100437 1 110.151447
H  2 1.101904 1 110.236471 3 118.329875 0
C  2 1.530243 1 110.910412 3 -120.413926 0
H  5 1.096122 2 109.161490 1 -177.075888 0
H  5 1.097566 2 109.494285 1 -59.706970 0
C  5 1.519594 2 112.299143 1 61.250329 0
H  8 1.095987 5 110.784733 2 -57.632733 0
H  8 1.096159 5 111.381748 2 -179.031594 0
F  8 1.396322 5 109.410942 2 61.372166 0
$end

PES scan, value:    1.3000 energy: -317.5996407021
------- Summary of potential scan: ------ 
    1.3000      -317.5996407021
----------------------------------------- 
Archival summary:
1\1\hpc0244\JobtypUnspecified\ProcedureUnspecified\6-31G**\236\knomura\WedMar1319:59:402019WedMar1319:59:402019\0\\#,JobtypUnspecified,ProcedureUnspecified,6-31G**,\\0,1\F\C,1,1.3\H,2,1.10044,1,110.151\H,2,1.1019,1,110.236,3,118.33,0\C,2,1.53024,1,110.91,3,-120.414,0\H,5,1.09612,2,109.161,1,-177.076,0\H,5,1.09757,2,109.494,1,-59.707,0\C,5,1.51959,2,112.299,1,61.2503,0\H,8,1.09599,5,110.785,2,-57.6327,0\H,8,1.09616,5,111.382,2,-179.032,0\F,8,1.39632,5,109.411,2,61.3722,0\\\@

 Total job time:  29.90s(wall), 345.08s(cpu) 
 Wed Mar 13 19:59:40 2019

        *************************************************************
        *                                                           *
        *  Thank you very much for using Q-Chem.  Have a nice day.  *
        *                                                           *
        *************************************************************


