
Running Job 1 of 1 ruruma/CH3CHClCH2Cl_afterGeo_middle_singlet.xyz.data/inputs/bond_singlet_2.1.in
qchem ruruma/CH3CHClCH2Cl_afterGeo_middle_singlet.xyz.data/inputs/bond_singlet_2.1.in_25711.0 /staging/scratch/2858534/qchem25711/ 1
/usr/usc/qchem/5.1.1/exe/qcprog.exe_s ruruma/CH3CHClCH2Cl_afterGeo_middle_singlet.xyz.data/inputs/bond_singlet_2.1.in_25711.0 /staging/scratch/2858534/qchem25711/
Check license passed

                  Welcome to Q-Chem
     A Quantum Leap Into The Future Of Chemistry


 Q-Chem 5.1, Q-Chem, Inc., Pleasanton, CA (2018)

 Yihan Shao,  Zhengting Gan,  E. Epifanovsky,  A. T. B. Gilbert,  M. Wormit,  
 J. Kussmann,  A. W. Lange,  A. Behn,  Jia Deng,  Xintian Feng,  D. Ghosh,  
 M. Goldey,  P. R. Horn,  L. D. Jacobson,  I. Kaliman,  T. Kus,  A. Landau,  
 Jie Liu,  E. I. Proynov,  R. M. Richard,  R. P. Steele,  E. J. Sundstrom,  
 H. L. Woodcock III,  P. M. Zimmerman,  D. Zuev,  B. Albrecht,  E. Alguire,  
 S. A. Baeppler,  D. Barton,  Z. Benda,  Y. A. Bernard,  E. J. Berquist,  
 K. B. Bravaya,  H. Burton,  D. Casanova,  Chun-Min Chang,  Yunqing Chen,  
 A. Chien,  K. D. Closser,  M. P. Coons,  S. Coriani,  S. Dasgupta,  
 A. L. Dempwolff,  M. Diedenhofen,  Hainam Do,  R. G. Edgar,  Po-Tung Fang,  
 S. Faraji,  S. Fatehi,  Qingguo Feng,  K. D. Fenk,  J. Fosso-Tande,  
 Qinghui Ge,  A. Ghysels,  G. Gidofalvi,  J. Gomes,  J. Gonthier,  A. Gunina,  
 D. Hait,  M. W. D. Hanson-Heine,  P. H. P. Harbach,  A. W. Hauser,  
 J. E. Herr,  E. G. Hohenstein,  Z. C. Holden,  Kerwin Hui,  B. C. Huynh,  
 T.-C. Jagau,  Hyunjun Ji,  B. Kaduk,  K. Khistyaev,  Jaehoon Kim,  
 P. Klunzinger,  K. Koh,  D. Kosenkov,  L. Koulias,  T. Kowalczyk,  
 C. M. Krauter,  A. Kunitsa,  Ka Un Lao,  A. Laurent,  K. V. Lawler,  
 Joonho Lee,  D. Lefrancois,  S. Lehtola,  D. S. Levine,  Yi-Pei Li,  
 You-Sheng Lin,  Fenglai Liu,  E. Livshits,  A. Luenser,  P. Manohar,  
 E. Mansoor,  S. F. Manzer,  Shan-Ping Mao,  Yuezhi Mao,  N. Mardirossian,  
 A. V. Marenich,  T. Markovich,  L. A. Martinez-Martinez,  S. A. Maurer,  
 N. J. Mayhall,  S. C. McKenzie,  J.-M. Mewes,  A. F. Morrison,  
 J. W. Mullinax,  K. Nanda,  T. S. Nguyen-Beck,  R. Olivares-Amaya,  
 J. A. Parkhill,  T. M. Perrine,  F. Plasser,  P. Pokhilko,  S. Prager,  
 A. Prociuk,  E. Ramos,  D. R. Rehn,  F. Rob,  M. Schneider,  N. Sergueev,  
 S. M. Sharada,  S. Sharma,  D. W. Small,  T. Stauch,  T. Stein,  
 Yu-Chuan Su,  A. J. W. Thom,  A. Tkatchenko,  T. Tsuchimochi,  N. M. Tubman,  
 L. Vogt,  M. L. Vidal,  O. Vydrov,  M. A. Watson,  J. Wenzel,  
 M. de Wergifosse,  T. A. Wesolowski,  A. White,  J. Witte,  A. Yamada,  
 Jun Yang,  K. Yao,  S. Yeganeh,  S. R. Yost,  Zhi-Qiang You,  A. Zech,  
 Igor Ying Zhang,  Xing Zhang,  Yan Zhao,  Ying Zhu,  B. R. Brooks,  
 G. K. L. Chan,  C. J. Cramer,  M. S. Gordon,  W. J. Hehre,  A. Klamt,  
 M. W. Schmidt,  C. D. Sherrill,  D. G. Truhlar,  A. Aspuru-Guzik,  R. Baer,  
 A. T. Bell,  N. A. Besley,  Jeng-Da Chai,  A. E. DePrince, III,  
 R. A. DiStasio Jr.,  A. Dreuw,  B. D. Dunietz,  T. R. Furlani,  
 Chao-Ping Hsu,  Yousung Jung,  Jing Kong,  D. S. Lambrecht,  WanZhen Liang,  
 C. Ochsenfeld,  V. A. Rassolov,  L. V. Slipchenko,  J. E. Subotnik,  
 T. Van Voorhis,  J. M. Herbert,  A. I. Krylov,  P. M. W. Gill,  M. Head-Gordon

 Contributors to earlier versions of Q-Chem not listed above: 
 R. D. Adamson,  B. Austin,  J. Baker,  G. J. O. Beran,  K. Brandhorst,  
 S. T. Brown,  E. F. C. Byrd,  A. K. Chakraborty,  C.-L. Cheng,  
 Siu Hung Chien,  D. M. Chipman,  D. L. Crittenden,  H. Dachsel,  
 R. J. Doerksen,  A. D. Dutoi,  L. Fusti-Molnar,  W. A. Goddard III,  
 A. Golubeva-Zadorozhnaya,  S. R. Gwaltney,  G. Hawkins,  A. Heyden,  
 S. Hirata,  G. Kedziora,  F. J. Keil,  C. Kelley,  Jihan Kim,  R. A. King,  
 R. Z. Khaliullin,  P. P. Korambath,  W. Kurlancheek,  A. M. Lee,  M. S. Lee,  
 S. V. Levchenko,  Ching Yeh Lin,  D. Liotard,  R. C. Lochan,  I. Lotan,  
 P. E. Maslen,  N. Nair,  D. P. O'Neill,  D. Neuhauser,  E. Neuscamman,  
 C. M. Oana,  R. Olson,  B. Peters,  R. Peverati,  P. A. Pieniazek,  
 Y. M. Rhee,  J. Ritchie,  M. A. Rohrdanz,  E. Rosta,  N. J. Russ,  
 H. F. Schaefer III,  N. E. Schultz,  N. Shenvi,  A. C. Simmonett,  A. Sodt,  
 D. Stuck,  K. S. Thanthiriwatte,  V. Vanovschi,  Tao Wang,  A. Warshel,  
 C. F. Williams,  Q. Wu,  X. Xu,  W. Zhang

 Please cite Q-Chem as follows:
 Y. Shao et al., Mol. Phys. 113, 184-215 (2015)
 DOI: 10.1080/00268976.2014.952696

 Q-Chem 5.1.1 for Intel X86 EM64T Linux

 Parts of Q-Chem use Armadillo 8.300.2 (Tropical Shenanigans).
 http://arma.sourceforge.net/

 Q-Chem begins on Tue Mar 12 01:56:26 2019  

Host: 
0

     Scratch files written to /staging/scratch/2858534/qchem25711//
 Aug318 |scratch|qcdevops|jenkins|workspace|build_RNUM 6013   
Processing $rem in /usr/usc/qchem/5.1.1/config/preferences.
 MEM_TOTAL  2000 
Input Ideriv = 2
Curr. Ideriv = -1
Max.  Ideriv = 2

Checking the input file for inconsistencies... 	...done.

--------------------------------------------------------------
User input:
--------------------------------------------------------------

$comment
potential surface scanner
$end

$rem
JOBTYPE  PES_SCAN
UNRESTRICTED TRUE
SYM_IGNORE  TRUE
GEOM_OPT_MAX_CYCLES 400
SCF_MAX_CYCLES 400
METHOD   B3LYP
BASIS   6-31G**
PDB_PRINT 2
SCF_CONVERGENCE 6
THRESH 14
SCF_PRINT 1
$end
$molecule
0 1
Cl -1.315412 1.466736 0.244757
Cl 1.955083 0.084641 0.611226
C -0.591644 -0.240196 -0.505271
C 0.871231 -0.032139 -0.829760
C -0.944588 -1.357621 0.446140
H -1.147276 -0.295125 -1.443226
H 1.219674 -0.893328 -1.408835
H 1.016986 0.875258 -1.414123
H -0.469678 -1.212952 1.417580
H -2.025311 -1.422841 0.581262
H -0.588764 -2.307032 0.025047
$end
$scan
stre 1 3 2.100000 2.101000 0.100000
$end
--------------------------------------------------------------
 ----------------------------------------------------------------
             Standard Nuclear Orientation (Angstroms)
    I     Atom           X                Y                Z
 ----------------------------------------------------------------
    1      Cl     -1.3154120000     1.4667360000     0.2447570000
    2      Cl      1.9550830000     0.0846410000     0.6112260000
    3      C      -0.5916440000    -0.2401960000    -0.5052710000
    4      C       0.8712310000    -0.0321390000    -0.8297600000
    5      C      -0.9445880000    -1.3576210000     0.4461400000
    6      H      -1.1472760000    -0.2951250000    -1.4432260000
    7      H       1.2196740000    -0.8933280000    -1.4088350000
    8      H       1.0169860000     0.8752580000    -1.4141230000
    9      H      -0.4696780000    -1.2129520000     1.4175800000
   10      H      -2.0253110000    -1.4228410000     0.5812620000
   11      H      -0.5887640000    -2.3070320000     0.0250470000
 ----------------------------------------------------------------
 Nuclear Repulsion Energy =   277.2167548257 hartrees
 There are       29 alpha and       29 beta electrons
 Requested basis set is 6-31G(d,p)
 There are 40 shells and 113 basis functions

 Total QAlloc Memory Limit   2000 MB
 Mega-Array Size       188 MB
 MEM_STATIC part       192 MB
A total of 1 constraints
  
            1
    1   1.0100000
    2   1.0100000
    3   3.0100000
    4   2.1000000
    5   2.1010000
    6   0.1000000
    7   0.0000000
    8   0.0000000
    9   0.0000000
   10   0.0000000

                       Distance Matrix (Angstroms)
             Cl(  1)   Cl(  2)   C (  3)   C (  4)   C (  5)   H (  6)
   Cl(  2)  3.569401
   C (  3)  2.000000  2.799626
   C (  4)  2.860528  1.806879  1.512807
   C (  5)  2.855706  3.242756  1.509434  2.584961
   H (  6)  2.445754  3.740271  1.091560  2.125999  2.177082
   H (  7)  3.838089  2.361757  2.126942  1.094709  2.887998  2.441615
   H (  8)  2.922637  2.367940  2.158226  1.089079  3.506294  2.460625
   H (  9)  3.044915  2.865907  2.158353  2.871044  1.090947  3.079896
   H ( 10)  2.994469  4.256399  2.152813  3.509272  1.091088  2.478153
   H ( 11)  3.849365  3.540461  2.133789  2.835034  1.097867  2.552554
             H (  7)   H (  8)   H (  9)   H ( 10)
   H (  8)  1.780170
   H (  9)  3.308276  3.819599
   H ( 10)  3.843280  4.303300  1.778616
   H ( 11)  2.706478  3.844036  1.774920  1.776186
 
 A cutoff of  1.0D-14 yielded    788 shell pairs
 There are      6459 function pairs
 
 -------------------------------------------------------
 OpenMP Integral Computing Module                       
 Release: version 1.0, May 2013, Q-Chem Inc. Pittsburgh 
 -------------------------------------------------------
 Integral Job Info:
 Integral job number is                      11
 Integral operator is                         1
 short-range coefficients                     0
 long-range coefficients              100000000
 Omega coefficients                           0
 if combine SR and LR in K                    0
 Integral screening is                        0
 Integral computing path is                   2
 max size of driver memory is            800000
 size of driver memory is                593474
 size of scratch memory is             15267112
 max col of scratch BK array               1296
 max len of scratch array in speh3          155
 max len of scratch index in speh4           18
 max int batch size is                      520
 min int batch size is                       52
 fixed nKL is                                52
 max L of basis functions is                  2
 order of int derivative is                   0
 number of shells is                         40
 number of basis is                         113
 number of cartesian basis is               113
 number of contracted shell pairs           788
 number of primitive shell pairs           3249
 maxK2 (contraction) of shell pair           36
 max number of K2 of shell pair               1
 max number of CS2 of shell pair             60
 max number of PS2 of shell pair            342
 mem total for path MDJ                  520332
 -------------------------------------------------------
 Smallest overlap matrix eigenvalue = 5.71E-03

 Scale SEOQF with 1.000000e-01/1.000000e-01/1.000000e+00

 Standard Electronic Orientation quadrupole field applied
 Nucleus-field energy     =    -0.0000000160 hartrees
 Guess from superposition of atomic densities
 Warning:  Energy on first SCF cycle will be non-variational
 SAD guess density has 58.000000 electrons

 -----------------------------------------------------------------------
  General SCF calculation program by
  Eric Jon Sundstrom, Paul Horn, Yuezhi Mao, Dmitri Zuev, Alec White,
  David Stuck, Shaama M.S., Shane Yost, Joonho Lee, David Small,
  Daniel Levine, Susi Lehtola, Hugh Burton, Evgeny Epifanovsky
 -----------------------------------------------------------------------
 Exchange:     0.2000 Hartree-Fock + 0.0800 Slater + 0.7200 B88
 Correlation:  0.1900 VWN1RPA + 0.8100 LYP
 Using SG-1 standard quadrature grid
 using 12 threads for integral computing
 -------------------------------------------------------
 OpenMP Integral computing Module                
 Release: version 1.0, May 2013, Q-Chem Inc. Pittsburgh 
 -------------------------------------------------------
 -------------------------------------------------------
 OpenMP BLAS3 based DFT computing Module                
 Release: version 1.0, May 2013, Q-Chem Inc. Pittsburgh 
 -------------------------------------------------------
 A unrestricted SCF calculation will be
 performed using DIIS
 SCF converges when DIIS error is below 1.0e-06
 Alpha HF Exchange    Energy =  -7.29052328601502
 Beta HF Exchange     Energy =  -7.29052328601502
 DFT Correlation      Energy =  -2.76921652457540
 DFT Exchange         Energy = -57.36369087559874
 One-Electron (alpha) Energy = -988.32573851545862
 One-Electron (beta)  Energy = -988.32573851545862
 Total Coulomb        Energy = 735.34996436303561
 ---------------------------------------
  Cycle       Energy         DIIS error
 ---------------------------------------
    1   -1038.7987118303      2.76e-02  
 Alpha HF Exchange    Energy =  -7.29380896938861
 Beta HF Exchange     Energy =  -7.29380896938863
 DFT Correlation      Energy =  -2.79118041619761
 DFT Exchange         Energy = -57.87513180087871
 One-Electron (alpha) Energy = -991.61690167959796
 One-Electron (beta)  Energy = -991.61690167959887
 Total Coulomb        Energy = 742.98540590645575
    2   -1038.2855727988      2.68e-03  
 Alpha HF Exchange    Energy =  -7.24833230584248
 Beta HF Exchange     Energy =  -7.24833230584247
 DFT Correlation      Energy =  -2.77353403837866
 DFT Exchange         Energy = -57.49999721779875
 One-Electron (alpha) Energy = -988.67743352998605
 One-Electron (beta)  Energy = -988.67743352998536
 Total Coulomb        Energy = 736.61910138592395
    3   -1038.2892067322      2.64e-03  
 Alpha HF Exchange    Energy =  -7.26809521182917
 Beta HF Exchange     Energy =  -7.26809521182917
 DFT Correlation      Energy =  -2.78154634380126
 DFT Exchange         Energy = -57.66105444701576
 One-Electron (alpha) Energy = -990.01791211199588
 One-Electron (beta)  Energy = -990.01791211199645
 Total Coulomb        Energy = 739.46280321601239
    4   -1038.3350574127      2.50e-04  
 Alpha HF Exchange    Energy =  -7.26929764621864
 Beta HF Exchange     Energy =  -7.26929764621864
 DFT Correlation      Energy =  -2.78196094396686
 DFT Exchange         Energy = -57.67140319037221
 One-Electron (alpha) Energy = -990.10435347960993
 One-Electron (beta)  Energy = -990.10435347960981
 Total Coulomb        Energy = 739.64851733899138
    5   -1038.3353942372      9.21e-05  
 Alpha HF Exchange    Energy =  -7.26894942711563
 Beta HF Exchange     Energy =  -7.26894942711563
 DFT Correlation      Energy =  -2.78172718814902
 DFT Exchange         Energy = -57.66797004321867
 One-Electron (alpha) Energy = -990.06191676399851
 One-Electron (beta)  Energy = -990.06191676399817
 Total Coulomb        Energy = 739.55924078490114
    6   -1038.3354340189      4.83e-05  
 Alpha HF Exchange    Energy =  -7.26888893812164
 Beta HF Exchange     Energy =  -7.26888893812164
 DFT Correlation      Energy =  -2.78176910911923
 DFT Exchange         Energy = -57.66771339829185
 One-Electron (alpha) Energy = -990.06463711569347
 One-Electron (beta)  Energy = -990.06463711569393
 Total Coulomb        Energy = 739.56433003930783
    7   -1038.3354497660      7.08e-06  
 Alpha HF Exchange    Energy =  -7.26893835102993
 Beta HF Exchange     Energy =  -7.26893835102994
 DFT Correlation      Energy =  -2.78177771041833
 DFT Exchange         Energy = -57.66807616849951
 One-Electron (alpha) Energy = -990.06866668634120
 One-Electron (beta)  Energy = -990.06866668634154
 Total Coulomb        Energy = 739.57285903883405
    8   -1038.3354501051      2.17e-06  
 Alpha HF Exchange    Energy =  -7.26893021075191
 Beta HF Exchange     Energy =  -7.26893021075191
 DFT Correlation      Energy =  -2.78177654319545
 DFT Exchange         Energy = -57.66801570825491
 One-Electron (alpha) Energy = -990.06796359130340
 One-Electron (beta)  Energy = -990.06796359130317
 Total Coulomb        Energy = 739.57137490995990
    9   -1038.3354501358      5.36e-07  Convergence criterion met
 ---------------------------------------
 SCF time:   CPU 24.35s  wall 2.00s 
<S^2> =         -0.000000000
 Alpha HF Exchange    Energy =  -7.26893021075191
 Beta HF Exchange     Energy =  -7.26893021075191
 DFT Correlation      Energy =  -2.78177654319545
 DFT Exchange         Energy = -57.66801570825491
 One-Electron (alpha) Energy = -990.06796359130340
 One-Electron (beta)  Energy = -990.06796359130317
 Total Coulomb        Energy = 739.57137490995990
 Nuclear repulsion Energy = 277.21675480975978
 SCF   energy in the final basis set =    -1038.3354501358
 Total energy in the final basis set =    -1038.3354501358
 
 --------------------------------------------------------------
 
                    Orbital Energies (a.u.)
 --------------------------------------------------------------
 
 Alpha MOs
 -- Occupied --
*******-101.526 -10.283 -10.269 -10.205  -9.460  -9.440  -7.224
 -7.214  -7.214  -7.204  -7.195  -7.195  -0.881  -0.822  -0.760
 -0.708  -0.596  -0.499  -0.488  -0.451  -0.424  -0.400  -0.387
 -0.356  -0.309  -0.306  -0.295  -0.292
 -- Virtual --
 -0.033   0.020   0.071   0.122   0.131   0.137   0.155   0.169
  0.190   0.221   0.371   0.392   0.419   0.429   0.449   0.458
  0.466   0.497   0.518   0.531   0.555   0.579   0.592   0.659
  0.673   0.687   0.742   0.801   0.813   0.847   0.850   0.865
  0.876   0.893   0.897   0.911   0.917   0.937   0.951   0.989
  1.038   1.054   1.084   1.176   1.314   1.380   1.401   1.541
  1.572   1.703   1.789   1.836   1.846   1.871   2.018   2.027
  2.046   2.069   2.082   2.102   2.217   2.266   2.323   2.376
  2.481   2.551   2.593   2.634   2.678   2.724   2.807   2.854
  2.885   3.183   3.230   3.322   3.394   3.427   3.454   4.157
  4.269   4.301   4.436   4.566
 
 Beta MOs
 -- Occupied --
*******-101.526 -10.283 -10.269 -10.205  -9.460  -9.440  -7.224
 -7.214  -7.214  -7.204  -7.195  -7.195  -0.881  -0.822  -0.760
 -0.708  -0.596  -0.499  -0.488  -0.451  -0.424  -0.400  -0.387
 -0.356  -0.309  -0.306  -0.295  -0.292
 -- Virtual --
 -0.033   0.020   0.071   0.122   0.131   0.137   0.155   0.169
  0.190   0.221   0.371   0.392   0.419   0.429   0.449   0.458
  0.466   0.497   0.518   0.531   0.555   0.579   0.592   0.659
  0.673   0.687   0.742   0.801   0.813   0.847   0.850   0.865
  0.876   0.893   0.897   0.911   0.917   0.937   0.951   0.989
  1.038   1.054   1.084   1.176   1.314   1.380   1.401   1.541
  1.572   1.703   1.789   1.836   1.846   1.871   2.018   2.027
  2.046   2.069   2.082   2.102   2.217   2.266   2.323   2.376
  2.481   2.551   2.593   2.634   2.678   2.724   2.807   2.854
  2.885   3.183   3.230   3.322   3.394   3.427   3.454   4.157
  4.269   4.301   4.436   4.566
 --------------------------------------------------------------
 
          Ground-State Mulliken Net Atomic Charges

     Atom                 Charge (a.u.)    Spin (a.u.)
  --------------------------------------------------------
      1 Cl                   -0.164338       0.000000
      2 Cl                   -0.060969      -0.000000
      3 C                    -0.134939      -0.000000
      4 C                    -0.268507       0.000000
      5 C                    -0.304912       0.000000
      6 H                     0.167962       0.000000
      7 H                     0.164130      -0.000000
      8 H                     0.181973      -0.000000
      9 H                     0.159756      -0.000000
     10 H                     0.139474      -0.000000
     11 H                     0.120369       0.000000
  --------------------------------------------------------
  Sum of atomic charges =    -0.000000
  Sum of spin   charges =     0.000000

 -----------------------------------------------------------------
                    Cartesian Multipole Moments
 -----------------------------------------------------------------
    Charge (ESU x 10^10)
                 0.0000
    Dipole Moment (Debye)
         X      -0.1971      Y      -2.6274      Z      -2.2631
       Tot       3.4733
    Quadrupole Moments (Debye-Ang)
        XX     -48.3573     XY       2.7807     YY     -45.7314
        XZ      -1.1663     YZ      -0.2825     ZZ     -42.4005
    Octopole Moments (Debye-Ang^2)
       XXX     -13.0530    XXY     -11.6000    XYY      -1.8393
       YYY     -26.7075    XXZ      -6.3647    XYZ       0.0210
       YYZ      -5.5264    XZZ      -1.0230    YZZ      -8.5293
       ZZZ     -16.5192
    Hexadecapole Moments (Debye-Ang^3)
      XXXX    -580.6752   XXXY      43.1218   XXYY    -148.4765
      XYYY      34.6547   YYYY    -311.0456   XXXZ     -10.3286
      XXYZ       0.2105   XYYZ      -9.3119   YYYZ       0.0683
      XXZZ    -112.4294   XYZZ      12.8296   YYZZ     -76.3523
      XZZZ      -9.3610   YZZZ      -4.7239   ZZZZ    -143.2771
 -----------------------------------------------------------------
 Calculating analytic gradient of the SCF energy
 Gradient of SCF Energy
            1           2           3           4           5           6
    1  -0.0116893  -0.0000150   0.0116019   0.0000844   0.0000089   0.0000095
    2   0.0275049   0.0000147  -0.0274824  -0.0000620  -0.0000739   0.0000143
    3   0.0120622  -0.0000065  -0.0120994   0.0000210  -0.0000153   0.0000036
            7           8           9          10          11
    1   0.0000043  -0.0000107   0.0000170   0.0000022  -0.0000131
    2   0.0000283   0.0000128   0.0000128   0.0000275   0.0000030
    3  -0.0000119  -0.0000029  -0.0000026   0.0000296   0.0000221
 Max gradient component =       2.750E-02
 RMS gradient           =       7.930E-03
 Gradient time:  CPU 9.47 s  wall 0.80 s
 Geometry Optimization Parameters
   NAtoms,    NIC,     NZ,  NCons,   NDum,   NFix, NCnnct, MaxDiis
       11      68       0       1       0       0       0       0


** CONSTRAINED OPTIMIZATION IN DELOCALIZED INTERNAL COORDINATES **
   Searching for a Minimum

   Optimization Cycle:   1

                       Coordinates (Angstroms)
     ATOM                X               Y               Z
      1  Cl       -1.3154120000    1.4667360000    0.2447570000
      2  Cl        1.9550830000    0.0846410000    0.6112260000
      3  C        -0.5916440000   -0.2401960000   -0.5052710000
      4  C         0.8712310000   -0.0321390000   -0.8297600000
      5  C        -0.9445880000   -1.3576210000    0.4461400000
      6  H        -1.1472760000   -0.2951250000   -1.4432260000
      7  H         1.2196740000   -0.8933280000   -1.4088350000
      8  H         1.0169860000    0.8752580000   -1.4141230000
      9  H        -0.4696780000   -1.2129520000    1.4175800000
     10  H        -2.0253110000   -1.4228410000    0.5812620000
     11  H        -0.5887640000   -2.3070320000    0.0250470000
   Point Group: c1    Number of degrees of freedom:    27


   Energy is  -1038.335450136

              Constraints and their Current Values
                                        Value     Constraint
   Distance(Angs):        1   3             2.000000     2.100000

 Attempting to Generate Delocalized Internal Coordinates

   Using Lagrange Multiplier Algorithm


 28 Hessian modes will be used to form the next step
  Hessian Eigenvalues:
    -0.927472    0.045000    0.045000    0.069052    0.079185    0.080525
     0.082890    0.084971    0.086498    0.121367    0.160000    0.160000
     0.160000    0.160000    0.160000    0.188526    0.223808    0.230849
     0.255821    0.310701    0.314074    0.339191    0.342741    0.346330
     0.346872    0.347035    0.349192    1.078200

 Minimum Search - Taking P-RFO Step
 Searching for Lamda that Maximizes Along the Constraint modes Only
 Value Taken    Lamda =   0.02697992
 Searching for Lamda that Minimizes Along All other modes
 Value Taken    Lamda =  -0.01010626
 Step Taken.  Stepsize is  0.184988

                             Maximum     Tolerance    Cnvgd?
         Gradient            0.188973       0.000300      NO
         Displacement        0.184985       0.001200      NO
         Energy change     *********       0.000001      NO


 New Cartesian Coordinates Obtained by Inverse Iteration

 Displacement from previous Coordinates is:  0.175048
 ----------------------------------------------------------------
             Standard Nuclear Orientation (Angstroms)
    I     Atom           X                Y                Z
 ----------------------------------------------------------------
    1      Cl     -1.3509329625     1.5421580287     0.2723927351
    2      Cl      1.9564369095     0.0817080499     0.6097810130
    3      C      -0.5882609379    -0.2489184575    -0.5096028458
    4      C       0.8746796814    -0.0395014499    -0.8324429457
    5      C      -0.9411227479    -1.3648383850     0.4435080438
    6      H      -1.1424384801    -0.3066955133    -1.4482641313
    7      H       1.2249911248    -0.9015959829    -1.4090798323
    8      H       1.0201539609     0.8667682421    -1.4185945765
    9      H      -0.4680775889    -1.2176800159     1.4154778062
   10      H      -2.0219718089    -1.4315090004     0.5768883716
   11      H      -0.5831561504    -2.3144945159     0.0247333619
 ----------------------------------------------------------------
 Nuclear Repulsion Energy =   273.6996984228 hartrees
 There are       29 alpha and       29 beta electrons

                       Distance Matrix (Angstroms)
             Cl(  1)   Cl(  2)   C (  3)   C (  4)   C (  5)   H (  6)
   Cl(  2)  3.631176
   C (  3)  2.097890  2.799611
   C (  4)  2.945447  1.806904  1.512705
   C (  5)  2.940723  3.242838  1.509374  2.584900
   H (  6)  2.534243  3.740245  1.091575  2.125887  2.176924
   H (  7)  3.928698  2.361715  2.126718  1.094731  2.887685  2.441345
   H (  8)  2.989589  2.367964  2.158245  1.089064  3.506294  2.460631
   H (  9)  3.114929  2.866326  2.158444  2.871280  1.090941  3.079882
   H ( 10)  3.063610  4.256600  2.152791  3.509201  1.091087  2.477908
   H ( 11)  3.940125  3.540283  2.133576  2.834719  1.097888  2.552210
             H (  7)   H (  8)   H (  9)   H ( 10)
   H (  8)  1.780214
   H (  9)  3.308250  3.819912
   H ( 10)  3.842869  4.303320  1.778635
   H ( 11)  2.705827  3.843726  1.774941  1.776156
 
 Applying Cartesian multipole field
    Component          Value
    ---------          -----
     (2,0,0)        1.00000E-11
     (0,2,0)        2.00000E-11
     (0,0,2)       -3.00000E-10
 Nucleus-field energy     =    -0.0000000159 hartrees
 Requested basis set is 6-31G(d,p)
 There are 40 shells and 113 basis functions
 A cutoff of  1.0D-14 yielded    784 shell pairs
 There are      6443 function pairs
 Smallest overlap matrix eigenvalue = 5.83E-03
 Guess from superposition of atomic densities
 Warning:  Energy on first SCF cycle will be non-variational
 SAD guess density has 58.000000 electrons

 -----------------------------------------------------------------------
  General SCF calculation program by
  Eric Jon Sundstrom, Paul Horn, Yuezhi Mao, Dmitri Zuev, Alec White,
  David Stuck, Shaama M.S., Shane Yost, Joonho Lee, David Small,
  Daniel Levine, Susi Lehtola, Hugh Burton, Evgeny Epifanovsky
 -----------------------------------------------------------------------
 Exchange:     0.2000 Hartree-Fock + 0.0800 Slater + 0.7200 B88
 Correlation:  0.1900 VWN1RPA + 0.8100 LYP
 Using SG-1 standard quadrature grid
 using 12 threads for integral computing
 -------------------------------------------------------
 OpenMP Integral computing Module                
 Release: version 1.0, May 2013, Q-Chem Inc. Pittsburgh 
 -------------------------------------------------------
 -------------------------------------------------------
 OpenMP BLAS3 based DFT computing Module                
 Release: version 1.0, May 2013, Q-Chem Inc. Pittsburgh 
 -------------------------------------------------------
 A unrestricted SCF calculation will be
 performed using DIIS
 SCF converges when DIIS error is below 1.0e-06
 Alpha HF Exchange    Energy =  -7.28449523586440
 Beta HF Exchange     Energy =  -7.28449523586440
 DFT Correlation      Energy =  -2.76697803734972
 DFT Exchange         Energy = -57.35217025511298
 One-Electron (alpha) Energy = -984.81801856620177
 One-Electron (beta)  Energy = -984.81801856620177
 Total Coulomb        Energy = 731.87987849105900
 ---------------------------------------
  Cycle       Energy         DIIS error
 ---------------------------------------
    1   -1038.7445989987      2.72e-02  
 Alpha HF Exchange    Energy =  -7.29169259175374
 Beta HF Exchange     Energy =  -7.29169259175375
 DFT Correlation      Energy =  -2.78894233253782
 DFT Exchange         Energy = -57.86167689526748
 One-Electron (alpha) Energy = -988.12538622323234
 One-Electron (beta)  Energy = -988.12538622323302
 Total Coulomb        Energy = 739.50837648442257
    2   -1038.2767019665      2.70e-03  
 Alpha HF Exchange    Energy =  -7.24459830112780
 Beta HF Exchange     Energy =  -7.24459830112781
 DFT Correlation      Energy =  -2.77150665042587
 DFT Exchange         Energy = -57.47801780548987
 One-Electron (alpha) Energy = -985.13511924245825
 One-Electron (beta)  Energy = -985.13511924245881
 Total Coulomb        Energy = 733.03246492151163
    3   -1038.2767962147      2.77e-03  
 Alpha HF Exchange    Energy =  -7.26540825212728
 Beta HF Exchange     Energy =  -7.26540825212727
 DFT Correlation      Energy =  -2.77901325180967
 DFT Exchange         Energy = -57.64312215429526
 One-Electron (alpha) Energy = -986.48111233944132
 One-Electron (beta)  Energy = -986.48111233944064
 Total Coulomb        Energy = 735.88833597980135
    4   -1038.3271422026      4.20e-04  
 Alpha HF Exchange    Energy =  -7.26631047335144
 Beta HF Exchange     Energy =  -7.26631047335143
 DFT Correlation      Energy =  -2.77986300829747
 DFT Exchange         Energy = -57.65348771208666
 One-Electron (alpha) Energy = -986.58953983339143
 One-Electron (beta)  Energy = -986.58953983339120
 Total Coulomb        Energy = 736.11733700881018
    5   -1038.3280159182      2.15e-04  
 Alpha HF Exchange    Energy =  -7.26641025552345
 Beta HF Exchange     Energy =  -7.26641025552345
 DFT Correlation      Energy =  -2.77958783011910
 DFT Exchange         Energy = -57.65291067918487
 One-Electron (alpha) Energy = -986.56612685899734
 One-Electron (beta)  Energy = -986.56612685899699
 Total Coulomb        Energy = 736.06953918549243
    6   -1038.3283351460      4.43e-05  
 Alpha HF Exchange    Energy =  -7.26618051463451
 Beta HF Exchange     Energy =  -7.26618051463452
 DFT Correlation      Energy =  -2.77956465638699
 DFT Exchange         Energy = -57.65119944570476
 One-Electron (alpha) Energy = -986.55300410864822
 One-Electron (beta)  Energy = -986.55300410864822
 Total Coulomb        Energy = 736.04108622371734
    7   -1038.3283487181      8.18e-06  
 Alpha HF Exchange    Energy =  -7.26623307321389
 Beta HF Exchange     Energy =  -7.26623307321391
 DFT Correlation      Energy =  -2.77957721695936
 DFT Exchange         Energy = -57.65159978146049
 One-Electron (alpha) Energy = -986.55775876065729
 One-Electron (beta)  Energy = -986.55775876065820
 Total Coulomb        Energy = 736.05111312903625
    8   -1038.3283491303      2.74e-06  
 Alpha HF Exchange    Energy =  -7.26623057516195
 Beta HF Exchange     Energy =  -7.26623057516195
 DFT Correlation      Energy =  -2.77957763972841
 DFT Exchange         Energy = -57.65158331202870
 One-Electron (alpha) Energy = -986.55755459269881
 One-Electron (beta)  Energy = -986.55755459269881
 Total Coulomb        Energy = 736.05068370465233
    9   -1038.3283491760      6.83e-07  Convergence criterion met
 ---------------------------------------
 SCF time:   CPU 24.06s  wall 2.00s 
<S^2> =          0.000000000
 Alpha HF Exchange    Energy =  -7.26623057516195
 Beta HF Exchange     Energy =  -7.26623057516195
 DFT Correlation      Energy =  -2.77957763972841
 DFT Exchange         Energy = -57.65158331202870
 One-Electron (alpha) Energy = -986.55755459269881
 One-Electron (beta)  Energy = -986.55755459269881
 Total Coulomb        Energy = 736.05068370465233
 Nuclear repulsion Energy = 273.69969840684655
 SCF   energy in the final basis set =    -1038.3283491760
 Total energy in the final basis set =    -1038.3283491760
 
 --------------------------------------------------------------
 
                    Orbital Energies (a.u.)
 --------------------------------------------------------------
 
 Alpha MOs
 -- Occupied --
*******-101.522 -10.290 -10.272 -10.208  -9.462  -9.436  -7.226
 -7.216  -7.216  -7.200  -7.190  -7.190  -0.880  -0.815  -0.759
 -0.710  -0.598  -0.500  -0.490  -0.451  -0.427  -0.402  -0.388
 -0.348  -0.311  -0.307  -0.291  -0.289
 -- Virtual --
 -0.055   0.017   0.070   0.119   0.129   0.135   0.153   0.167
  0.188   0.221   0.373   0.392   0.418   0.428   0.446   0.455
  0.471   0.498   0.518   0.531   0.558   0.583   0.592   0.656
  0.667   0.691   0.743   0.793   0.808   0.847   0.849   0.863
  0.880   0.891   0.894   0.908   0.917   0.927   0.947   0.986
  1.029   1.042   1.070   1.168   1.309   1.374   1.392   1.526
  1.557   1.688   1.784   1.833   1.838   1.867   2.010   2.023
  2.043   2.064   2.079   2.095   2.213   2.262   2.318   2.372
  2.477   2.548   2.589   2.630   2.674   2.720   2.804   2.851
  2.882   3.179   3.226   3.317   3.390   3.423   3.451   4.157
  4.265   4.292   4.432   4.565
 
 Beta MOs
 -- Occupied --
*******-101.522 -10.290 -10.272 -10.208  -9.462  -9.436  -7.226
 -7.216  -7.216  -7.200  -7.190  -7.190  -0.880  -0.815  -0.759
 -0.710  -0.598  -0.500  -0.490  -0.451  -0.427  -0.402  -0.388
 -0.348  -0.311  -0.307  -0.291  -0.289
 -- Virtual --
 -0.055   0.017   0.070   0.119   0.129   0.135   0.153   0.167
  0.188   0.221   0.373   0.392   0.418   0.428   0.446   0.455
  0.471   0.498   0.518   0.531   0.558   0.583   0.592   0.656
  0.667   0.691   0.743   0.793   0.808   0.847   0.849   0.863
  0.880   0.891   0.894   0.908   0.917   0.927   0.947   0.986
  1.029   1.042   1.070   1.168   1.309   1.374   1.392   1.526
  1.557   1.688   1.784   1.833   1.838   1.867   2.010   2.023
  2.043   2.064   2.079   2.095   2.213   2.262   2.318   2.372
  2.477   2.548   2.589   2.630   2.674   2.720   2.804   2.851
  2.882   3.179   3.226   3.317   3.390   3.423   3.451   4.157
  4.265   4.292   4.432   4.565
 --------------------------------------------------------------
 
          Ground-State Mulliken Net Atomic Charges

     Atom                 Charge (a.u.)    Spin (a.u.)
  --------------------------------------------------------
      1 Cl                   -0.205553      -0.000000
      2 Cl                   -0.057546       0.000000
      3 C                    -0.106782       0.000000
      4 C                    -0.271893      -0.000000
      5 C                    -0.309045       0.000000
      6 H                     0.168570      -0.000000
      7 H                     0.167046      -0.000000
      8 H                     0.185475       0.000000
      9 H                     0.162904      -0.000000
     10 H                     0.142864       0.000000
     11 H                     0.123958      -0.000000
  --------------------------------------------------------
  Sum of atomic charges =     0.000000
  Sum of spin   charges =    -0.000000

 -----------------------------------------------------------------
                    Cartesian Multipole Moments
 -----------------------------------------------------------------
    Charge (ESU x 10^10)
                -0.0000
    Dipole Moment (Debye)
         X      -0.0115      Y      -2.9680      Z      -2.3584
       Tot       3.7910
    Quadrupole Moments (Debye-Ang)
        XX     -48.5596     XY       3.2193     YY     -46.0300
        XZ      -1.1185     YZ      -0.3335     ZZ     -42.3349
    Octopole Moments (Debye-Ang^2)
       XXX     -10.9759    XXY     -13.1492    XYY      -0.8711
       YYY     -30.5900    XXZ      -6.7499    XYZ       0.1431
       YYZ      -5.9182    XZZ      -0.4223    YZZ      -9.6000
       ZZZ     -17.5517
    Hexadecapole Moments (Debye-Ang^3)
      XXXX    -589.2739   XXXY      50.9056   XXYY    -153.5724
      XYYY      42.3330   YYYY    -330.3999   XXXZ      -8.3367
      XXYZ      -0.6636   XYYZ      -8.7396   YYYZ      -2.5497
      XXZZ    -113.8090   XYZZ      15.1975   YYZZ     -79.6843
      XZZZ      -7.4444   YZZZ      -7.3149   ZZZZ    -144.0608
 -----------------------------------------------------------------
 Calculating analytic gradient of the SCF energy
 Gradient of SCF Energy
            1           2           3           4           5           6
    1  -0.0158586   0.0000444   0.0105759   0.0018885   0.0014976   0.0016816
    2   0.0371557   0.0002117  -0.0262378  -0.0038803  -0.0046428  -0.0032614
    3   0.0164720   0.0003023  -0.0125225  -0.0026763  -0.0015182  -0.0011489
            7           8           9          10          11
    1   0.0006808  -0.0000605  -0.0000515  -0.0000214  -0.0003768
    2   0.0004314   0.0000429   0.0002523   0.0001671  -0.0002387
    3   0.0002057   0.0001283  -0.0000146   0.0000295   0.0007426
 Max gradient component =       3.716E-02
 RMS gradient           =       9.421E-03
 Gradient time:  CPU 9.71 s  wall 0.81 s
 Geometry Optimization Parameters
   NAtoms,    NIC,     NZ,  NCons,   NDum,   NFix, NCnnct, MaxDiis
       11      68       0       1       0       0       0       0

 Cartesian Hessian Update
 Hessian Updated using BFGS Update


** CONSTRAINED OPTIMIZATION IN DELOCALIZED INTERNAL COORDINATES **
   Searching for a Minimum

   Optimization Cycle:   2

                       Coordinates (Angstroms)
     ATOM                X               Y               Z
      1  Cl       -1.3509329625    1.5421580287    0.2723927351
      2  Cl        1.9564369095    0.0817080499    0.6097810130
      3  C        -0.5882609379   -0.2489184575   -0.5096028458
      4  C         0.8746796814   -0.0395014499   -0.8324429457
      5  C        -0.9411227479   -1.3648383850    0.4435080438
      6  H        -1.1424384801   -0.3066955133   -1.4482641313
      7  H         1.2249911248   -0.9015959829   -1.4090798323
      8  H         1.0201539609    0.8667682421   -1.4185945765
      9  H        -0.4680775889   -1.2176800159    1.4154778062
     10  H        -2.0219718089   -1.4315090004    0.5768883716
     11  H        -0.5831561504   -2.3144945159    0.0247333619
   Point Group: c1    Number of degrees of freedom:    27


   Energy is  -1038.328349176

              Constraints and their Current Values
                                        Value     Constraint
   Distance(Angs):        1   3             2.097890     2.100000
 Hessian Updated using BFGS Update

   Using Lagrange Multiplier Algorithm


 25 Hessian modes will be used to form the next step
  Hessian Eigenvalues:
    -0.970224    0.045000    0.045020    0.075774    0.079881    0.081190
     0.083421    0.084972    0.086569    0.121379    0.160000    0.161882
     0.188555    0.223897    0.235128    0.255868    0.311885    0.319141
     0.339213    0.342770    0.346392    0.346872    0.347035    0.349194
     1.032148

 Minimum Search - Taking P-RFO Step
 Searching for Lamda that Maximizes Along the Constraint modes Only
 Value Taken    Lamda =   0.00005217
 Searching for Lamda that Minimizes Along All other modes
 Value Taken    Lamda =  -0.00050677
 Step Taken.  Stepsize is  0.057735

                             Maximum     Tolerance    Cnvgd?
         Gradient            0.014114       0.000300      NO
         Displacement        0.036710       0.001200      NO
         Energy change      0.007101       0.000001      NO


 New Cartesian Coordinates Obtained by Inverse Iteration

 Displacement from previous Coordinates is:  0.037293
 ----------------------------------------------------------------
             Standard Nuclear Orientation (Angstroms)
    I     Atom           X                Y                Z
 ----------------------------------------------------------------
    1      Cl     -1.3451629201     1.5340072465     0.2691768532
    2      Cl      1.9569313694     0.0823822794     0.6099837534
    3      C      -0.5831315070    -0.2596745145    -0.5131291874
    4      C       0.8750991507    -0.0374114531    -0.8316764648
    5      C      -0.9425045366    -1.3640095219     0.4451125151
    6      H      -1.1437062070    -0.3052775186    -1.4481897303
    7      H       1.2258501775    -0.8976153314    -1.4114490599
    8      H       1.0160691238     0.8710272637    -1.4156640011
    9      H      -0.4688631835    -1.2168783694     1.4167997014
   10      H      -2.0236457136    -1.4265797369     0.5779425005
   11      H      -0.5866347534    -2.3145693436     0.0258901198
 ----------------------------------------------------------------
 Nuclear Repulsion Energy =   274.0186914567 hartrees
 There are       29 alpha and       29 beta electrons

                       Distance Matrix (Angstroms)
             Cl(  1)   Cl(  2)   C (  3)   C (  4)   C (  5)   H (  6)
   Cl(  2)  3.623147
   C (  3)  2.099997  2.798268
   C (  4)  2.934416  1.806404  1.509076
   C (  5)  2.931141  3.244374  1.505633  2.587225
   H (  6)  2.524461  3.741699  1.091175  2.127773  2.178529
   H (  7)  3.917576  2.362428  2.118103  1.095040  2.892422  2.442747
   H (  8)  2.975508  2.368635  2.156501  1.089117  3.506264  2.459549
   H (  9)  3.106817  2.867666  2.157295  2.872807  1.090944  3.081330
   H ( 10)  3.052990  4.257110  2.151090  3.509920  1.091066  2.477261
   H ( 11)  3.930152  3.543483  2.124417  2.838580  1.098160  2.553526
             H (  7)   H (  8)   H (  9)   H ( 10)
   H (  8)  1.781045
   H (  9)  3.312548  3.819323
   H ( 10)  3.846649  4.300387  1.779046
   H ( 11)  2.712712  3.846396  1.775789  1.777157
 
 Applying Cartesian multipole field
    Component          Value
    ---------          -----
     (2,0,0)        1.00000E-11
     (0,2,0)        2.00000E-11
     (0,0,2)       -3.00000E-10
 Nucleus-field energy     =    -0.0000000159 hartrees
 Requested basis set is 6-31G(d,p)
 There are 40 shells and 113 basis functions
 A cutoff of  1.0D-14 yielded    784 shell pairs
 There are      6443 function pairs
 Smallest overlap matrix eigenvalue = 5.80E-03
 Guess from superposition of atomic densities
 Warning:  Energy on first SCF cycle will be non-variational
 SAD guess density has 58.000000 electrons

 -----------------------------------------------------------------------
  General SCF calculation program by
  Eric Jon Sundstrom, Paul Horn, Yuezhi Mao, Dmitri Zuev, Alec White,
  David Stuck, Shaama M.S., Shane Yost, Joonho Lee, David Small,
  Daniel Levine, Susi Lehtola, Hugh Burton, Evgeny Epifanovsky
 -----------------------------------------------------------------------
 Exchange:     0.2000 Hartree-Fock + 0.0800 Slater + 0.7200 B88
 Correlation:  0.1900 VWN1RPA + 0.8100 LYP
 Using SG-1 standard quadrature grid
 using 12 threads for integral computing
 -------------------------------------------------------
 OpenMP Integral computing Module                
 Release: version 1.0, May 2013, Q-Chem Inc. Pittsburgh 
 -------------------------------------------------------
 -------------------------------------------------------
 OpenMP BLAS3 based DFT computing Module                
 Release: version 1.0, May 2013, Q-Chem Inc. Pittsburgh 
 -------------------------------------------------------
 A unrestricted SCF calculation will be
 performed using DIIS
 SCF converges when DIIS error is below 1.0e-06
 Alpha HF Exchange    Energy =  -7.28530150148217
 Beta HF Exchange     Energy =  -7.28530150148217
 DFT Correlation      Energy =  -2.76719474719074
 DFT Exchange         Energy = -57.35373784600132
 One-Electron (alpha) Energy = -985.13398437784190
 One-Electron (beta)  Energy = -985.13398437784190
 Total Coulomb        Energy = 732.18869882917613
 ---------------------------------------
  Cycle       Energy         DIIS error
 ---------------------------------------
    1   -1038.7521140819      2.73e-02  
 Alpha HF Exchange    Energy =  -7.29214026345636
 Beta HF Exchange     Energy =  -7.29214026345635
 DFT Correlation      Energy =  -2.78920603318841
 DFT Exchange         Energy = -57.86492062804802
 One-Electron (alpha) Energy = -988.45867334446132
 One-Electron (beta)  Energy = -988.45867334446098
 Total Coulomb        Energy = 739.86050479609196
    2   -1038.2765576402      2.71e-03  
 Alpha HF Exchange    Energy =  -7.24474106397684
 Beta HF Exchange     Energy =  -7.24474106397683
 DFT Correlation      Energy =  -2.77170292531419
 DFT Exchange         Energy = -57.47906478593228
 One-Electron (alpha) Energy = -985.43933001987602
 One-Electron (beta)  Energy = -985.43933001987580
 Total Coulomb        Energy = 733.32367420306798
    3   -1038.2765442351      2.78e-03  
 Alpha HF Exchange    Energy =  -7.26574523553960
 Beta HF Exchange     Energy =  -7.26574523553960
 DFT Correlation      Energy =  -2.77923505506094
 DFT Exchange         Energy = -57.64550490561564
 One-Electron (alpha) Energy = -986.80309847944443
 One-Electron (beta)  Energy = -986.80309847944466
 Total Coulomb        Energy = 736.21656098983522
    4   -1038.3271749600      4.28e-04  
 Alpha HF Exchange    Energy =  -7.26661007138351
 Beta HF Exchange     Energy =  -7.26661007138350
 DFT Correlation      Energy =  -2.78009231644781
 DFT Exchange         Energy = -57.65566837864979
 One-Electron (alpha) Energy = -986.90916810780720
 One-Electron (beta)  Energy = -986.90916810780675
 Total Coulomb        Energy = 736.44053410486003
    5   -1038.3280915078      2.17e-04  
 Alpha HF Exchange    Energy =  -7.26672351578874
 Beta HF Exchange     Energy =  -7.26672351578874
 DFT Correlation      Energy =  -2.77981816034941
 DFT Exchange         Energy = -57.65518511487765
 One-Electron (alpha) Energy = -986.88658306762829
 One-Electron (beta)  Energy = -986.88658306762852
 Total Coulomb        Energy = 736.39450668247002
    6   -1038.3284183188      4.36e-05  
 Alpha HF Exchange    Energy =  -7.26649804184639
 Beta HF Exchange     Energy =  -7.26649804184639
 DFT Correlation      Energy =  -2.77979525102893
 DFT Exchange         Energy = -57.65350257329278
 One-Electron (alpha) Energy = -986.87377367157808
 One-Electron (beta)  Energy = -986.87377367157831
 Total Coulomb        Energy = 736.36671838136749
    7   -1038.3284314290      8.09e-06  
 Alpha HF Exchange    Energy =  -7.26654945251006
 Beta HF Exchange     Energy =  -7.26654945251006
 DFT Correlation      Energy =  -2.77980751625003
 DFT Exchange         Energy = -57.65389415598502
 One-Electron (alpha) Energy = -986.87841856734485
 One-Electron (beta)  Energy = -986.87841856734474
 Total Coulomb        Energy = 736.37651444244113
    8   -1038.3284318287      2.75e-06  
 Alpha HF Exchange    Energy =  -7.26654699271240
 Beta HF Exchange     Energy =  -7.26654699271241
 DFT Correlation      Energy =  -2.77980793718302
 DFT Exchange         Energy = -57.65387790820827
 One-Electron (alpha) Energy = -986.87821838461286
 One-Electron (beta)  Energy = -986.87821838461321
 Total Coulomb        Energy = 736.37609328443182
    9   -1038.3284318748      6.72e-07  Convergence criterion met
 ---------------------------------------
 SCF time:   CPU 23.64s  wall 2.00s 
<S^2> =          0.000000000
 Alpha HF Exchange    Energy =  -7.26654699271240
 Beta HF Exchange     Energy =  -7.26654699271241
 DFT Correlation      Energy =  -2.77980793718302
 DFT Exchange         Energy = -57.65387790820827
 One-Electron (alpha) Energy = -986.87821838461286
 One-Electron (beta)  Energy = -986.87821838461321
 Total Coulomb        Energy = 736.37609328443182
 Nuclear repulsion Energy = 274.01869144078694
 SCF   energy in the final basis set =    -1038.3284318748
 Total energy in the final basis set =    -1038.3284318748
 
 --------------------------------------------------------------
 
                    Orbital Energies (a.u.)
 --------------------------------------------------------------
 
 Alpha MOs
 -- Occupied --
*******-101.520 -10.290 -10.272 -10.209  -9.462  -9.434  -7.227
 -7.216  -7.216  -7.198  -7.189  -7.189  -0.881  -0.815  -0.759
 -0.711  -0.598  -0.501  -0.490  -0.452  -0.428  -0.403  -0.389
 -0.346  -0.311  -0.307  -0.290  -0.288
 -- Virtual --
 -0.055   0.017   0.070   0.119   0.129   0.135   0.153   0.167
  0.190   0.223   0.373   0.391   0.418   0.428   0.446   0.455
  0.471   0.497   0.517   0.531   0.560   0.583   0.592   0.657
  0.668   0.690   0.742   0.793   0.807   0.846   0.849   0.863
  0.879   0.891   0.894   0.909   0.918   0.927   0.947   0.986
  1.029   1.043   1.071   1.170   1.307   1.374   1.393   1.525
  1.558   1.689   1.785   1.836   1.843   1.867   2.011   2.023
  2.043   2.064   2.078   2.097   2.212   2.260   2.316   2.376
  2.477   2.544   2.591   2.631   2.678   2.722   2.804   2.851
  2.883   3.180   3.227   3.319   3.390   3.424   3.449   4.158
  4.266   4.292   4.432   4.566
 
 Beta MOs
 -- Occupied --
*******-101.520 -10.290 -10.272 -10.209  -9.462  -9.434  -7.227
 -7.216  -7.216  -7.198  -7.189  -7.189  -0.881  -0.815  -0.759
 -0.711  -0.598  -0.501  -0.490  -0.452  -0.428  -0.403  -0.389
 -0.346  -0.311  -0.307  -0.290  -0.288
 -- Virtual --
 -0.055   0.017   0.070   0.119   0.129   0.135   0.153   0.167
  0.190   0.223   0.373   0.391   0.418   0.428   0.446   0.455
  0.471   0.497   0.517   0.531   0.560   0.583   0.592   0.657
  0.668   0.690   0.742   0.793   0.807   0.846   0.849   0.863
  0.879   0.891   0.894   0.909   0.918   0.927   0.947   0.986
  1.029   1.043   1.071   1.170   1.307   1.374   1.393   1.525
  1.558   1.689   1.785   1.836   1.843   1.867   2.011   2.023
  2.043   2.064   2.078   2.097   2.212   2.260   2.316   2.376
  2.477   2.544   2.591   2.631   2.678   2.722   2.804   2.851
  2.883   3.180   3.227   3.319   3.390   3.424   3.449   4.158
  4.266   4.292   4.432   4.566
 --------------------------------------------------------------
 
          Ground-State Mulliken Net Atomic Charges

     Atom                 Charge (a.u.)    Spin (a.u.)
  --------------------------------------------------------
      1 Cl                   -0.210601       0.000000
      2 Cl                   -0.056362       0.000000
      3 C                    -0.106504       0.000000
      4 C                    -0.271507      -0.000000
      5 C                    -0.308204      -0.000000
      6 H                     0.169765      -0.000000
      7 H                     0.166573       0.000000
      8 H                     0.186237       0.000000
      9 H                     0.163287      -0.000000
     10 H                     0.143692       0.000000
     11 H                     0.123624       0.000000
  --------------------------------------------------------
  Sum of atomic charges =    -0.000000
  Sum of spin   charges =     0.000000

 -----------------------------------------------------------------
                    Cartesian Multipole Moments
 -----------------------------------------------------------------
    Charge (ESU x 10^10)
                 0.0000
    Dipole Moment (Debye)
         X       0.0035      Y      -2.9958      Z      -2.3627
       Tot       3.8154
    Quadrupole Moments (Debye-Ang)
        XX     -48.5409     XY       3.2762     YY     -46.0688
        XZ      -1.0982     YZ      -0.3580     ZZ     -42.3082
    Octopole Moments (Debye-Ang^2)
       XXX     -11.2256    XXY     -13.0944    XYY      -0.8929
       YYY     -30.2748    XXZ      -6.6864    XYZ       0.1580
       YYZ      -5.9052    XZZ      -0.5331    YZZ      -9.4954
       ZZZ     -17.4251
    Hexadecapole Moments (Debye-Ang^3)
      XXXX    -587.9711   XXXY      50.1980   XXYY    -153.2060
      XYYY      41.6319   YYYY    -329.0177   XXXZ      -8.4422
      XXYZ      -0.6676   XYYZ      -8.7570   YYYZ      -2.4136
      XXZZ    -113.5832   XYZZ      14.9460   YYZZ     -79.3890
      XZZZ      -7.6058   YZZZ      -7.1661   ZZZZ    -143.9887
 -----------------------------------------------------------------
 Calculating analytic gradient of the SCF energy
 Gradient of SCF Energy
            1           2           3           4           5           6
    1  -0.0151710   0.0001516   0.0128729   0.0007253   0.0007464   0.0010562
    2   0.0359209   0.0002382  -0.0304115  -0.0020431  -0.0024992  -0.0021046
    3   0.0159492   0.0003171  -0.0135645  -0.0016427  -0.0010222  -0.0007812
            7           8           9          10          11
    1  -0.0001085   0.0000684  -0.0001364  -0.0001146  -0.0000902
    2   0.0001679   0.0001787   0.0001464   0.0001215   0.0002847
    3   0.0002851   0.0000418   0.0001354   0.0001957   0.0000864
 Max gradient component =       3.592E-02
 RMS gradient           =       9.647E-03
 Gradient time:  CPU 9.38 s  wall 0.78 s
 Geometry Optimization Parameters
   NAtoms,    NIC,     NZ,  NCons,   NDum,   NFix, NCnnct, MaxDiis
       11      68       0       1       0       0       0       0

 Cartesian Hessian Update
 Hessian Updated using BFGS Update


** CONSTRAINED OPTIMIZATION IN DELOCALIZED INTERNAL COORDINATES **
   Searching for a Minimum

   Optimization Cycle:   3

                       Coordinates (Angstroms)
     ATOM                X               Y               Z
      1  Cl       -1.3451629201    1.5340072465    0.2691768532
      2  Cl        1.9569313694    0.0823822794    0.6099837534
      3  C        -0.5831315070   -0.2596745145   -0.5131291874
      4  C         0.8750991507   -0.0374114531   -0.8316764648
      5  C        -0.9425045366   -1.3640095219    0.4451125151
      6  H        -1.1437062070   -0.3052775186   -1.4481897303
      7  H         1.2258501775   -0.8976153314   -1.4114490599
      8  H         1.0160691238    0.8710272637   -1.4156640011
      9  H        -0.4688631835   -1.2168783694    1.4167997014
     10  H        -2.0236457136   -1.4265797369    0.5779425005
     11  H        -0.5866347534   -2.3145693436    0.0258901198
   Point Group: c1    Number of degrees of freedom:    27


   Energy is  -1038.328431875

              Constraints and their Current Values
                                        Value     Constraint
   Distance(Angs):        1   3             2.099997     2.100000
 Hessian Updated using BFGS Update

   Using Lagrange Multiplier Algorithm


 26 Hessian modes will be used to form the next step
  Hessian Eigenvalues:
    -0.967195    0.036499    0.045001    0.045740    0.078672    0.080637
     0.082925    0.084970    0.086469    0.121337    0.159978    0.160000
     0.175619    0.188605    0.224081    0.230589    0.255948    0.312185
     0.314692    0.339686    0.343195    0.346237    0.346965    0.347277
     0.349732    1.035913

 Minimum Search - Taking P-RFO Step
 Searching for Lamda that Maximizes Along the Constraint modes Only
 Value Taken    Lamda =   0.00000000
 Searching for Lamda that Minimizes Along All other modes
 Value Taken    Lamda =  -0.00022848
 Step Taken.  Stepsize is  0.077065

                             Maximum     Tolerance    Cnvgd?
         Gradient            0.001794       0.000300      NO
         Displacement        0.049204       0.001200      NO
         Energy change     -0.000083       0.000001      NO


 New Cartesian Coordinates Obtained by Inverse Iteration

 Displacement from previous Coordinates is:  0.062669
 ----------------------------------------------------------------
             Standard Nuclear Orientation (Angstroms)
    I     Atom           X                Y                Z
 ----------------------------------------------------------------
    1      Cl     -1.3397324997     1.5221172166     0.2624816715
    2      Cl      1.9557141476     0.0785313689     0.6104761399
    3      C      -0.5781663420    -0.2722624019    -0.5186827781
    4      C       0.8762151494    -0.0353383609    -0.8315448183
    5      C      -0.9438320394    -1.3636762886     0.4470825597
    6      H      -1.1483808992    -0.2990276508    -1.4478683134
    7      H       1.2352275804    -0.8885632070    -1.4183934663
    8      H       1.0100507056     0.8773458277    -1.4097835292
    9      H      -0.4672592105    -1.2138256891     1.4166391258
   10      H      -2.0249848314    -1.4191023410     0.5796413671
   11      H      -0.5945507608    -2.3207974740     0.0347490413
 ----------------------------------------------------------------
 Nuclear Repulsion Energy =   274.4455037701 hartrees
 There are       29 alpha and       29 beta electrons

                       Distance Matrix (Angstroms)
             Cl(  1)   Cl(  2)   C (  3)   C (  4)   C (  5)   H (  6)
   Cl(  2)  3.614555
   C (  3)  2.100000  2.796177
   C (  4)  2.921127  1.804912  1.506400
   C (  5)  2.918667  3.242534  1.502531  2.590741
   H (  6)  2.505690  3.743626  1.090526  2.132692  2.183153
   H (  7)  3.907319  2.360230  2.116058  1.096026  2.907582  2.455608
   H (  8)  2.955280  2.369353  2.153623  1.088698  3.505394  2.458482
   H (  9)  3.094943  2.861972  2.155067  2.871948  1.090696  3.083210
   H ( 10)  3.036599  4.253213  2.148218  3.510443  1.090658  2.476650
   H ( 11)  3.921116  3.548534  2.122039  2.852532  1.099135  2.567574
             H (  7)   H (  8)   H (  9)   H ( 10)
   H (  8)  1.780228
   H (  9)  3.322900  3.813674
   H ( 10)  3.860389  4.294523  1.780228
   H ( 11)  2.740622  3.858697  1.775165  1.776543
 
 Applying Cartesian multipole field
    Component          Value
    ---------          -----
     (2,0,0)        1.00000E-11
     (0,2,0)        2.00000E-11
     (0,0,2)       -3.00000E-10
 Nucleus-field energy     =    -0.0000000160 hartrees
 Requested basis set is 6-31G(d,p)
 There are 40 shells and 113 basis functions
 A cutoff of  1.0D-14 yielded    784 shell pairs
 There are      6443 function pairs
 Smallest overlap matrix eigenvalue = 5.79E-03
 Guess from superposition of atomic densities
 Warning:  Energy on first SCF cycle will be non-variational
 SAD guess density has 58.000000 electrons

 -----------------------------------------------------------------------
  General SCF calculation program by
  Eric Jon Sundstrom, Paul Horn, Yuezhi Mao, Dmitri Zuev, Alec White,
  David Stuck, Shaama M.S., Shane Yost, Joonho Lee, David Small,
  Daniel Levine, Susi Lehtola, Hugh Burton, Evgeny Epifanovsky
 -----------------------------------------------------------------------
 Exchange:     0.2000 Hartree-Fock + 0.0800 Slater + 0.7200 B88
 Correlation:  0.1900 VWN1RPA + 0.8100 LYP
 Using SG-1 standard quadrature grid
 using 12 threads for integral computing
 -------------------------------------------------------
 OpenMP Integral computing Module                
 Release: version 1.0, May 2013, Q-Chem Inc. Pittsburgh 
 -------------------------------------------------------
 -------------------------------------------------------
 OpenMP BLAS3 based DFT computing Module                
 Release: version 1.0, May 2013, Q-Chem Inc. Pittsburgh 
 -------------------------------------------------------
 A unrestricted SCF calculation will be
 performed using DIIS
 SCF converges when DIIS error is below 1.0e-06
 Alpha HF Exchange    Energy =  -7.28613188038328
 Beta HF Exchange     Energy =  -7.28613188038328
 DFT Correlation      Energy =  -2.76745384968880
 DFT Exchange         Energy = -57.35537473540005
 One-Electron (alpha) Energy = -985.55797283495394
 One-Electron (beta)  Energy = -985.55797283495394
 Total Coulomb        Energy = 732.60562326968795
 ---------------------------------------
  Cycle       Energy         DIIS error
 ---------------------------------------
    1   -1038.7599109920      2.73e-02  
 Alpha HF Exchange    Energy =  -7.29259957452618
 Beta HF Exchange     Energy =  -7.29259957452618
 DFT Correlation      Energy =  -2.78950862811028
 DFT Exchange         Energy = -57.86818430099693
 One-Electron (alpha) Energy = -988.89793858622306
 One-Electron (beta)  Energy = -988.89793858622340
 Total Coulomb        Energy = 740.31675600367225
    2   -1038.2765094928      2.71e-03  
 Alpha HF Exchange    Energy =  -7.24496114256355
 Beta HF Exchange     Energy =  -7.24496114256355
 DFT Correlation      Energy =  -2.77195738475635
 DFT Exchange         Energy = -57.48061849920046
 One-Electron (alpha) Energy = -985.85425261294358
 One-Electron (beta)  Energy = -985.85425261294336
 Total Coulomb        Energy = 733.72910587557953
    3   -1038.2763937653      2.78e-03  
 Alpha HF Exchange    Energy =  -7.26611584522801
 Beta HF Exchange     Energy =  -7.26611584522801
 DFT Correlation      Energy =  -2.77951028012824
 DFT Exchange         Energy = -57.64808734068144
 One-Electron (alpha) Energy = -987.23378339647979
 One-Electron (beta)  Energy = -987.23378339648036
 Total Coulomb        Energy = 736.65462807259200
    4   -1038.3272642775      4.33e-04  
 Alpha HF Exchange    Energy =  -7.26694874888373
 Beta HF Exchange     Energy =  -7.26694874888374
 DFT Correlation      Energy =  -2.78037055097556
 DFT Exchange         Energy = -57.65806584178473
 One-Electron (alpha) Energy = -987.33726339653288
 One-Electron (beta)  Energy = -987.33726339653310
 Total Coulomb        Energy = 736.87314575846926
    5   -1038.3282111710      2.18e-04  
 Alpha HF Exchange    Energy =  -7.26707085083168
 Beta HF Exchange     Energy =  -7.26707085083169
 DFT Correlation      Energy =  -2.78009673070612
 DFT Exchange         Energy = -57.65764045458624
 One-Electron (alpha) Energy = -987.31516704102160
 One-Electron (beta)  Energy = -987.31516704102148
 Total Coulomb        Energy = 736.82816625169778
    6   -1038.3285429632      4.30e-05  
 Alpha HF Exchange    Energy =  -7.26685071518702
 Beta HF Exchange     Energy =  -7.26685071518702
 DFT Correlation      Energy =  -2.78007471318072
 DFT Exchange         Energy = -57.65599674371170
 One-Electron (alpha) Energy = -987.30281346483184
 One-Electron (beta)  Energy = -987.30281346483241
 Total Coulomb        Energy = 736.80134041191673
    7   -1038.3285556509      8.01e-06  
 Alpha HF Exchange    Energy =  -7.26690075332747
 Beta HF Exchange     Energy =  -7.26690075332747
 DFT Correlation      Energy =  -2.78008656718913
 DFT Exchange         Energy = -57.65637755434689
 One-Electron (alpha) Energy = -987.30731829133265
 One-Electron (beta)  Energy = -987.30731829133288
 Total Coulomb        Energy = 736.81084241689905
    8   -1038.3285560398      2.76e-06  
 Alpha HF Exchange    Energy =  -7.26689842884038
 Beta HF Exchange     Energy =  -7.26689842884038
 DFT Correlation      Energy =  -2.78008702133976
 DFT Exchange         Energy = -57.65636232461280
 One-Electron (alpha) Energy = -987.30713276811059
 One-Electron (beta)  Energy = -987.30713276811082
 Total Coulomb        Energy = 736.81045189927829
    9   -1038.3285560865      6.59e-07  Convergence criterion met
 ---------------------------------------
 SCF time:   CPU 23.97s  wall 2.00s 
<S^2> =          0.000000000
 Alpha HF Exchange    Energy =  -7.26689842884038
 Beta HF Exchange     Energy =  -7.26689842884038
 DFT Correlation      Energy =  -2.78008702133976
 DFT Exchange         Energy = -57.65636232461280
 One-Electron (alpha) Energy = -987.30713276811059
 One-Electron (beta)  Energy = -987.30713276811082
 Total Coulomb        Energy = 736.81045189927829
 Nuclear repulsion Energy = 274.44550375412416
 SCF   energy in the final basis set =    -1038.3285560865
 Total energy in the final basis set =    -1038.3285560865
 
 --------------------------------------------------------------
 
                    Orbital Energies (a.u.)
 --------------------------------------------------------------
 
 Alpha MOs
 -- Occupied --
*******-101.519 -10.289 -10.272 -10.209  -9.463  -9.433  -7.227
 -7.217  -7.216  -7.197  -7.188  -7.188  -0.882  -0.815  -0.758
 -0.712  -0.598  -0.502  -0.490  -0.452  -0.428  -0.404  -0.390
 -0.344  -0.311  -0.307  -0.289  -0.287
 -- Virtual --
 -0.054   0.017   0.070   0.118   0.129   0.135   0.153   0.167
  0.191   0.225   0.374   0.391   0.418   0.429   0.446   0.457
  0.472   0.497   0.517   0.531   0.561   0.584   0.593   0.659
  0.669   0.689   0.741   0.793   0.807   0.844   0.849   0.863
  0.878   0.890   0.894   0.910   0.919   0.928   0.948   0.985
  1.029   1.044   1.073   1.174   1.306   1.372   1.395   1.525
  1.560   1.689   1.785   1.839   1.847   1.867   2.012   2.023
  2.043   2.065   2.079   2.101   2.210   2.259   2.315   2.378
  2.477   2.542   2.591   2.631   2.683   2.723   2.806   2.851
  2.885   3.180   3.226   3.321   3.390   3.425   3.447   4.158
  4.268   4.292   4.433   4.567
 
 Beta MOs
 -- Occupied --
*******-101.519 -10.289 -10.272 -10.209  -9.463  -9.433  -7.227
 -7.217  -7.216  -7.197  -7.188  -7.188  -0.882  -0.815  -0.758
 -0.712  -0.598  -0.502  -0.490  -0.452  -0.428  -0.404  -0.390
 -0.344  -0.311  -0.307  -0.289  -0.287
 -- Virtual --
 -0.054   0.017   0.070   0.118   0.129   0.135   0.153   0.167
  0.191   0.225   0.374   0.391   0.418   0.429   0.446   0.457
  0.472   0.497   0.517   0.531   0.561   0.584   0.593   0.659
  0.669   0.689   0.741   0.793   0.807   0.844   0.849   0.863
  0.878   0.890   0.894   0.910   0.919   0.928   0.948   0.985
  1.029   1.044   1.073   1.174   1.306   1.372   1.395   1.525
  1.560   1.689   1.785   1.839   1.847   1.867   2.012   2.023
  2.043   2.065   2.079   2.101   2.210   2.259   2.315   2.378
  2.477   2.542   2.591   2.631   2.683   2.723   2.806   2.851
  2.885   3.180   3.226   3.321   3.390   3.425   3.447   4.158
  4.268   4.292   4.433   4.567
 --------------------------------------------------------------
 
          Ground-State Mulliken Net Atomic Charges

     Atom                 Charge (a.u.)    Spin (a.u.)
  --------------------------------------------------------
      1 Cl                   -0.214991       0.000000
      2 Cl                   -0.055045      -0.000000
      3 C                    -0.107153       0.000000
      4 C                    -0.271511       0.000000
      5 C                    -0.307686       0.000000
      6 H                     0.171606       0.000000
      7 H                     0.166316      -0.000000
      8 H                     0.186863      -0.000000
      9 H                     0.163725       0.000000
     10 H                     0.144433       0.000000
     11 H                     0.123443      -0.000000
  --------------------------------------------------------
  Sum of atomic charges =     0.000000
  Sum of spin   charges =    -0.000000

 -----------------------------------------------------------------
                    Cartesian Multipole Moments
 -----------------------------------------------------------------
    Charge (ESU x 10^10)
                 0.0000
    Dipole Moment (Debye)
         X       0.0194      Y      -3.0083      Z      -2.3635
       Tot       3.8257
    Quadrupole Moments (Debye-Ang)
        XX     -48.4988     XY       3.3175     YY     -46.0904
        XZ      -1.0799     YZ      -0.3892     ZZ     -42.2850
    Octopole Moments (Debye-Ang^2)
       XXX     -11.3930    XXY     -12.9121    XYY      -0.9259
       YYY     -29.6289    XXZ      -6.6168    XYZ       0.1747
       YYZ      -5.8118    XZZ      -0.6072    YZZ      -9.2688
       ZZZ     -17.1628
    Hexadecapole Moments (Debye-Ang^3)
      XXXX    -586.3027   XXXY      49.5185   XXYY    -152.6297
      XYYY      41.1014   YYYY    -326.5925   XXXZ      -8.7215
      XXYZ      -0.5227   XYYZ      -8.8200   YYYZ      -1.9770
      XXZZ    -113.2684   XYZZ      14.6670   YYZZ     -79.0110
      XZZZ      -7.8839   YZZZ      -6.6276   ZZZZ    -143.9256
 -----------------------------------------------------------------
 Calculating analytic gradient of the SCF energy
 Gradient of SCF Energy
            1           2           3           4           5           6
    1  -0.0144637   0.0000142   0.0147156  -0.0003708  -0.0000239   0.0001236
    2   0.0342681   0.0000538  -0.0341774   0.0002728   0.0001274  -0.0002768
    3   0.0150499  -0.0000401  -0.0146628  -0.0000300  -0.0001450  -0.0001701
            7           8           9          10          11
    1  -0.0000816   0.0000379  -0.0000487   0.0000402   0.0000573
    2  -0.0002082  -0.0000839  -0.0000465   0.0000226   0.0000481
    3   0.0001087  -0.0000033   0.0000311   0.0000544  -0.0001929
 Max gradient component =       3.427E-02
 RMS gradient           =       9.863E-03
 Gradient time:  CPU 9.29 s  wall 0.78 s
 Geometry Optimization Parameters
   NAtoms,    NIC,     NZ,  NCons,   NDum,   NFix, NCnnct, MaxDiis
       11      68       0       1       0       0       0       0

 Cartesian Hessian Update
 Hessian Updated using BFGS Update


** CONSTRAINED OPTIMIZATION IN DELOCALIZED INTERNAL COORDINATES **
   Searching for a Minimum

   Optimization Cycle:   4

                       Coordinates (Angstroms)
     ATOM                X               Y               Z
      1  Cl       -1.3397324997    1.5221172166    0.2624816715
      2  Cl        1.9557141476    0.0785313689    0.6104761399
      3  C        -0.5781663420   -0.2722624019   -0.5186827781
      4  C         0.8762151494   -0.0353383609   -0.8315448183
      5  C        -0.9438320394   -1.3636762886    0.4470825597
      6  H        -1.1483808992   -0.2990276508   -1.4478683134
      7  H         1.2352275804   -0.8885632070   -1.4183934663
      8  H         1.0100507056    0.8773458277   -1.4097835292
      9  H        -0.4672592105   -1.2138256891    1.4166391258
     10  H        -2.0249848314   -1.4191023410    0.5796413671
     11  H        -0.5945507608   -2.3207974740    0.0347490413
   Point Group: c1    Number of degrees of freedom:    27


   Energy is  -1038.328556086

              Constraints and their Current Values
                                        Value     Constraint
   Distance(Angs):        1   3             2.100000     2.100000
 Hessian Updated using BFGS Update

 25 Hessian modes will be used to form the next step
  Hessian Eigenvalues:
     0.031422    0.045005    0.046506    0.078587    0.080787    0.083023
     0.084984    0.086466    0.121329    0.159977    0.160000    0.160051
     0.175301    0.188682    0.224063    0.233895    0.256014    0.312364
     0.323041    0.339677    0.343219    0.346187    0.346969    0.347273
     0.349761

 Minimum Search - Taking Simple RFO Step
 Searching for Lamda that Minimizes Along All modes
 Value Taken    Lamda =  -0.00000695
 Step Taken.  Stepsize is  0.012427

                             Maximum     Tolerance    Cnvgd?
         Gradient           0.000438      0.000300      NO
         Displacement       0.005949      0.001200      NO
         Energy change     -0.000124      0.000001      NO


 New Cartesian Coordinates Obtained by Inverse Iteration

 Displacement from previous Coordinates is:  0.015026
 ----------------------------------------------------------------
             Standard Nuclear Orientation (Angstroms)
    I     Atom           X                Y                Z
 ----------------------------------------------------------------
    1      Cl     -1.3401180863     1.5206872813     0.2607427339
    2      Cl      1.9555527241     0.0760324245     0.6108660024
    3      C      -0.5778845484    -0.2737017690    -0.5197488388
    4      C       0.8768935810    -0.0354096314    -0.8319244498
    5      C      -0.9440172433    -1.3639772672     0.4474886168
    6      H      -1.1494884820    -0.2974873042    -1.4479371381
    7      H       1.2377324957    -0.8860966444    -1.4211799912
    8      H       1.0095053499     0.8788743559    -1.4080969671
    9      H      -0.4667714075    -1.2124345086     1.4164421579
   10      H      -2.0252333037    -1.4184328604     0.5802462152
   11      H      -0.5958700795    -2.3226530766     0.0378986588
 ----------------------------------------------------------------
 Nuclear Repulsion Energy =   274.4460498884 hartrees
 There are       29 alpha and       29 beta electrons

                       Distance Matrix (Angstroms)
             Cl(  1)   Cl(  2)   C (  3)   C (  4)   C (  5)   H (  6)
   Cl(  2)  3.615392
   C (  3)  2.100000  2.796231
   C (  4)  2.920702  1.804874  1.506856
   C (  5)  2.917715  3.241578  1.502765  2.591854
   H (  6)  2.502336  3.744258  1.090335  2.134099  2.184550
   H (  7)  3.907274  2.360121  2.117562  1.095945  2.912100  2.458862
   H (  8)  2.952572  2.369762  2.153463  1.088796  3.505686  2.458997
   H (  9)  3.093272  2.859502  2.154623  2.871581  1.090688  3.083488
   H ( 10)  3.034780  4.252178  2.148306  3.511313  1.090696  2.477292
   H ( 11)  3.921075  3.548484  2.123557  2.856065  1.099104  2.572061
             H (  7)   H (  8)   H (  9)   H ( 10)
   H (  8)  1.779714
   H (  9)  3.326249  3.811953
   H ( 10)  3.864717  4.294272  1.780579
   H ( 11)  2.748582  3.862371  1.774721  1.776185
 
 Applying Cartesian multipole field
    Component          Value
    ---------          -----
     (2,0,0)        1.00000E-11
     (0,2,0)        2.00000E-11
     (0,0,2)       -3.00000E-10
 Nucleus-field energy     =    -0.0000000160 hartrees
 Requested basis set is 6-31G(d,p)
 There are 40 shells and 113 basis functions
 A cutoff of  1.0D-14 yielded    784 shell pairs
 There are      6443 function pairs
 Smallest overlap matrix eigenvalue = 5.79E-03
 Guess from superposition of atomic densities
 Warning:  Energy on first SCF cycle will be non-variational
 SAD guess density has 58.000000 electrons

 -----------------------------------------------------------------------
  General SCF calculation program by
  Eric Jon Sundstrom, Paul Horn, Yuezhi Mao, Dmitri Zuev, Alec White,
  David Stuck, Shaama M.S., Shane Yost, Joonho Lee, David Small,
  Daniel Levine, Susi Lehtola, Hugh Burton, Evgeny Epifanovsky
 -----------------------------------------------------------------------
 Exchange:     0.2000 Hartree-Fock + 0.0800 Slater + 0.7200 B88
 Correlation:  0.1900 VWN1RPA + 0.8100 LYP
 Using SG-1 standard quadrature grid
 using 12 threads for integral computing
 -------------------------------------------------------
 OpenMP Integral computing Module                
 Release: version 1.0, May 2013, Q-Chem Inc. Pittsburgh 
 -------------------------------------------------------
 -------------------------------------------------------
 OpenMP BLAS3 based DFT computing Module                
 Release: version 1.0, May 2013, Q-Chem Inc. Pittsburgh 
 -------------------------------------------------------
 A unrestricted SCF calculation will be
 performed using DIIS
 SCF converges when DIIS error is below 1.0e-06
 Alpha HF Exchange    Energy =  -7.28606265377375
 Beta HF Exchange     Energy =  -7.28606265377375
 DFT Correlation      Energy =  -2.76744436754447
 DFT Exchange         Energy = -57.35525104894450
 One-Electron (alpha) Energy = -985.55872508736593
 One-Electron (beta)  Energy = -985.55872508736593
 Total Coulomb        Energy = 732.60695826859046
 ---------------------------------------
  Cycle       Energy         DIIS error
 ---------------------------------------
    1   -1038.7592627578      2.73e-02  
 Alpha HF Exchange    Energy =  -7.29258338677928
 Beta HF Exchange     Energy =  -7.29258338677928
 DFT Correlation      Energy =  -2.78949677298357
 DFT Exchange         Energy = -57.86804680153243
 One-Electron (alpha) Energy = -988.89826119020597
 One-Electron (beta)  Energy = -988.89826119020631
 Total Coulomb        Energy = 740.31666311110064
    2   -1038.2765197450      2.71e-03  
 Alpha HF Exchange    Energy =  -7.24494914640031
 Beta HF Exchange     Energy =  -7.24494914640031
 DFT Correlation      Energy =  -2.77195898504948
 DFT Exchange         Energy = -57.48056619232894
 One-Electron (alpha) Energy = -985.85600866223115
 One-Electron (beta)  Energy = -985.85600866223058
 Total Coulomb        Energy = 733.73205297654658
    3   -1038.2763379457      2.79e-03  
 Alpha HF Exchange    Energy =  -7.26609796758938
 Beta HF Exchange     Energy =  -7.26609796758939
 DFT Correlation      Energy =  -2.77949992818282
 DFT Exchange         Energy = -57.64793818878647
 One-Electron (alpha) Energy = -987.23446219833454
 One-Electron (beta)  Energy = -987.23446219833465
 Total Coulomb        Energy = 736.65525290036010
    4   -1038.3272556760      4.35e-04  
 Alpha HF Exchange    Energy =  -7.26693151066519
 Beta HF Exchange     Energy =  -7.26693151066519
 DFT Correlation      Energy =  -2.78036433454147
 DFT Exchange         Energy = -57.65794176092017
 One-Electron (alpha) Energy = -987.33819679564260
 One-Electron (beta)  Energy = -987.33819679564272
 Total Coulomb        Energy = 736.87429849595128
    5   -1038.3282143397      2.19e-04  
 Alpha HF Exchange    Energy =  -7.26705534156250
 Beta HF Exchange     Energy =  -7.26705534156251
 DFT Correlation      Energy =  -2.78009043332349
 DFT Exchange         Energy = -57.65752806475055
 One-Electron (alpha) Energy = -987.31619049560868
 One-Electron (beta)  Energy = -987.31619049560879
 Total Coulomb        Energy = 736.82951285159857
    6   -1038.3285474484      4.29e-05  
 Alpha HF Exchange    Energy =  -7.26683507530812
 Beta HF Exchange     Energy =  -7.26683507530812
 DFT Correlation      Energy =  -2.78006819089106
 DFT Exchange         Energy = -57.65588233696965
 One-Electron (alpha) Energy = -987.30381017539560
 One-Electron (beta)  Energy = -987.30381017539503
 Total Coulomb        Energy = 736.80263108791939
    7   -1038.3285600689      8.02e-06  
 Alpha HF Exchange    Energy =  -7.26688507398882
 Beta HF Exchange     Energy =  -7.26688507398882
 DFT Correlation      Energy =  -2.78008002829242
 DFT Exchange         Energy = -57.65626280520389
 One-Electron (alpha) Energy = -987.30831038007341
 One-Electron (beta)  Energy = -987.30831038007341
 Total Coulomb        Energy = 736.81212341010166
    8   -1038.3285604591      2.76e-06  
 Alpha HF Exchange    Energy =  -7.26688280189015
 Beta HF Exchange     Energy =  -7.26688280189015
 DFT Correlation      Energy =  -2.78008049967644
 DFT Exchange         Energy = -57.65624799642516
 One-Electron (alpha) Energy = -987.30812989303831
 One-Electron (beta)  Energy = -987.30812989303831
 Total Coulomb        Energy = 736.81174350770630
    9   -1038.3285605058      6.59e-07  Convergence criterion met
 ---------------------------------------
 SCF time:   CPU 23.64s  wall 2.00s 
<S^2> =         -0.000000000
 Alpha HF Exchange    Energy =  -7.26688280189015
 Beta HF Exchange     Energy =  -7.26688280189015
 DFT Correlation      Energy =  -2.78008049967644
 DFT Exchange         Energy = -57.65624799642516
 One-Electron (alpha) Energy = -987.30812989303831
 One-Electron (beta)  Energy = -987.30812989303831
 Total Coulomb        Energy = 736.81174350770630
 Nuclear repulsion Energy = 274.44604987241576
 SCF   energy in the final basis set =    -1038.3285605058
 Total energy in the final basis set =    -1038.3285605058
 
 --------------------------------------------------------------
 
                    Orbital Energies (a.u.)
 --------------------------------------------------------------
 
 Alpha MOs
 -- Occupied --
*******-101.519 -10.289 -10.272 -10.209  -9.463  -9.433  -7.227
 -7.217  -7.216  -7.197  -7.188  -7.187  -0.882  -0.815  -0.758
 -0.712  -0.598  -0.502  -0.490  -0.452  -0.428  -0.404  -0.390
 -0.344  -0.311  -0.307  -0.289  -0.287
 -- Virtual --
 -0.054   0.017   0.070   0.118   0.129   0.135   0.153   0.167
  0.191   0.224   0.374   0.391   0.418   0.429   0.446   0.457
  0.472   0.497   0.517   0.531   0.561   0.584   0.593   0.659
  0.668   0.689   0.741   0.794   0.807   0.844   0.849   0.863
  0.878   0.891   0.894   0.911   0.920   0.928   0.948   0.984
  1.029   1.044   1.073   1.174   1.307   1.371   1.395   1.524
  1.560   1.688   1.785   1.839   1.846   1.867   2.012   2.023
  2.043   2.066   2.079   2.101   2.210   2.259   2.316   2.378
  2.477   2.542   2.591   2.631   2.684   2.722   2.806   2.851
  2.885   3.180   3.226   3.321   3.390   3.426   3.447   4.158
  4.268   4.292   4.432   4.567
 
 Beta MOs
 -- Occupied --
*******-101.519 -10.289 -10.272 -10.209  -9.463  -9.433  -7.227
 -7.217  -7.216  -7.197  -7.188  -7.187  -0.882  -0.815  -0.758
 -0.712  -0.598  -0.502  -0.490  -0.452  -0.428  -0.404  -0.390
 -0.344  -0.311  -0.307  -0.289  -0.287
 -- Virtual --
 -0.054   0.017   0.070   0.118   0.129   0.135   0.153   0.167
  0.191   0.224   0.374   0.391   0.418   0.429   0.446   0.457
  0.472   0.497   0.517   0.531   0.561   0.584   0.593   0.659
  0.668   0.689   0.741   0.794   0.807   0.844   0.849   0.863
  0.878   0.891   0.894   0.911   0.920   0.928   0.948   0.984
  1.029   1.044   1.073   1.174   1.307   1.371   1.395   1.524
  1.560   1.688   1.785   1.839   1.846   1.867   2.012   2.023
  2.043   2.066   2.079   2.101   2.210   2.259   2.316   2.378
  2.477   2.542   2.591   2.631   2.684   2.722   2.806   2.851
[...]
     11  H        -0.5918768413   -2.3229807486    0.0449570513
   Point Group: c1    Number of degrees of freedom:    27


   Energy is  -1038.328564226

              Constraints and their Current Values
                                        Value     Constraint
   Distance(Angs):        1   3             2.100000     2.100000
 Hessian Updated using BFGS Update

 26 Hessian modes will be used to form the next step
  Hessian Eigenvalues:
     0.003806    0.037175    0.045442    0.078759    0.081702    0.084545
     0.086451    0.087258    0.121464    0.159992    0.160035    0.160149
     0.161152    0.180458    0.189504    0.224601    0.246231    0.256441
     0.312622    0.339703    0.341518    0.343800    0.347010    0.347215
     0.349726    0.353722

 Minimum Search - Taking Simple RFO Step
 Searching for Lamda that Minimizes Along All modes
 Value Taken    Lamda =  -0.00000103
 Step Taken.  Stepsize is  0.012297

                             Maximum     Tolerance    Cnvgd?
         Gradient           0.000140      0.000300     YES
         Displacement       0.007997      0.001200      NO
         Energy change     -0.000001      0.000001      NO


 New Cartesian Coordinates Obtained by Inverse Iteration

 Displacement from previous Coordinates is:  0.014563
 ----------------------------------------------------------------
             Standard Nuclear Orientation (Angstroms)
    I     Atom           X                Y                Z
 ----------------------------------------------------------------
    1      Cl     -1.3430485031     1.5205446000     0.2546723789
    2      Cl      1.9578837428     0.0594735241     0.6094615607
    3      C      -0.5780007005    -0.2748891074    -0.5206461281
    4      C       0.8770952793    -0.0355491610    -0.8329073640
    5      C      -0.9437339656    -1.3630234287     0.4495351651
    6      H      -1.1492781151    -0.3007973073    -1.4488799572
    7      H       1.2364951836    -0.8788846309    -1.4332057694
    8      H       1.0091551705     0.8857221179    -1.3980123472
    9      H      -0.4712013538    -1.2043899266     1.4196586103
   10      H      -2.0252845910    -1.4205046821     0.5783220687
   11      H      -0.5897811470    -2.3223009982     0.0467987822
 ----------------------------------------------------------------
 Nuclear Repulsion Energy =   274.3507803261 hartrees
 There are       29 alpha and       29 beta electrons

                       Distance Matrix (Angstroms)
             Cl(  1)   Cl(  2)   C (  3)   C (  4)   C (  5)   H (  6)
   Cl(  2)  3.627225
   C (  3)  2.100000  2.796364
   C (  4)  2.921181  1.804871  1.507347
   C (  5)  2.917600  3.235500  1.503013  2.592733
   H (  6)  2.501384  3.744465  1.090251  2.134471  2.185075
   H (  7)  3.906436  2.360806  2.118955  1.095783  2.921045  2.454861
   H (  8)  2.944016  2.369119  2.153103  1.088818  3.504863  2.463585
   H (  9)  3.089106  2.855560  2.154103  2.873699  1.090684  3.082983
   H ( 10)  3.036440  4.249345  2.148208  3.511905  1.090707  2.476021
   H ( 11)  3.921490  3.532709  2.124624  2.855669  1.098951  2.576154
             H (  7)   H (  8)   H (  9)   H ( 10)
   H (  8)  1.779539
   H (  9)  3.340811  3.807794
   H ( 10)  3.870246  4.293298  1.780373
   H ( 11)  2.758469  3.864646  1.774410  1.776633
 
 Applying Cartesian multipole field
    Component          Value
    ---------          -----
     (2,0,0)        1.00000E-11
     (0,2,0)        2.00000E-11
     (0,0,2)       -3.00000E-10
 Nucleus-field energy     =    -0.0000000160 hartrees
 Requested basis set is 6-31G(d,p)
 There are 40 shells and 113 basis functions
 A cutoff of  1.0D-14 yielded    784 shell pairs
 There are      6443 function pairs
 Smallest overlap matrix eigenvalue = 5.79E-03
 Guess from superposition of atomic densities
 Warning:  Energy on first SCF cycle will be non-variational
 SAD guess density has 58.000000 electrons

 -----------------------------------------------------------------------
  General SCF calculation program by
  Eric Jon Sundstrom, Paul Horn, Yuezhi Mao, Dmitri Zuev, Alec White,
  David Stuck, Shaama M.S., Shane Yost, Joonho Lee, David Small,
  Daniel Levine, Susi Lehtola, Hugh Burton, Evgeny Epifanovsky
 -----------------------------------------------------------------------
 Exchange:     0.2000 Hartree-Fock + 0.0800 Slater + 0.7200 B88
 Correlation:  0.1900 VWN1RPA + 0.8100 LYP
 Using SG-1 standard quadrature grid
 using 12 threads for integral computing
 -------------------------------------------------------
 OpenMP Integral computing Module                
 Release: version 1.0, May 2013, Q-Chem Inc. Pittsburgh 
 -------------------------------------------------------
 -------------------------------------------------------
 OpenMP BLAS3 based DFT computing Module                
 Release: version 1.0, May 2013, Q-Chem Inc. Pittsburgh 
 -------------------------------------------------------
 A unrestricted SCF calculation will be
 performed using DIIS
 SCF converges when DIIS error is below 1.0e-06
 Alpha HF Exchange    Energy =  -7.28600551253579
 Beta HF Exchange     Energy =  -7.28600551253579
 DFT Correlation      Energy =  -2.76743488360863
 DFT Exchange         Energy = -57.35514783937182
 One-Electron (alpha) Energy = -985.46359035212743
 One-Electron (beta)  Energy = -985.46359035212743
 Total Coulomb        Energy = 732.51232681098907
 ---------------------------------------
  Cycle       Energy         DIIS error
 ---------------------------------------
    1   -1038.7586673312      2.73e-02  
 Alpha HF Exchange    Energy =  -7.29256816347469
 Beta HF Exchange     Energy =  -7.29256816347468
 DFT Correlation      Energy =  -2.78948098271553
 DFT Exchange         Energy = -57.86792654401545
 One-Electron (alpha) Energy = -988.80032036819455
 One-Electron (beta)  Energy = -988.80032036819375
 Total Coulomb        Energy = 740.21585548837083
    2   -1038.2765487916      2.71e-03  
 Alpha HF Exchange    Energy =  -7.24495223199475
 Beta HF Exchange     Energy =  -7.24495223199476
 DFT Correlation      Energy =  -2.77195692738449
 DFT Exchange         Energy = -57.48061351460183
 One-Electron (alpha) Energy = -985.76193138810879
 One-Electron (beta)  Energy = -985.76193138810982
 Total Coulomb        Energy = 733.63921479939302
    3   -1038.2763425727      2.79e-03  
 Alpha HF Exchange    Energy =  -7.26608485116884
 Beta HF Exchange     Energy =  -7.26608485116883
 DFT Correlation      Energy =  -2.77948768955946
 DFT Exchange         Energy = -57.64783293586871
 One-Electron (alpha) Energy = -987.13776785631342
 One-Electron (beta)  Energy = -987.13776785631308
 Total Coulomb        Energy = 736.55699002565541
    4   -1038.3272557046      4.36e-04  
 Alpha HF Exchange    Energy =  -7.26692146546504
 Beta HF Exchange     Energy =  -7.26692146546504
 DFT Correlation      Energy =  -2.78035400893841
 DFT Exchange         Energy = -57.65786749118018
 One-Electron (alpha) Energy = -987.24195106936509
 One-Electron (beta)  Energy = -987.24195106936520
 Total Coulomb        Energy = 736.77696771092030
    5   -1038.3282185487      2.19e-04  
 Alpha HF Exchange    Energy =  -7.26704550581128
 Beta HF Exchange     Energy =  -7.26704550581128
 DFT Correlation      Energy =  -2.78008010143358
 DFT Exchange         Energy = -57.65745514326560
 One-Electron (alpha) Energy = -987.21989496129561
 One-Electron (beta)  Energy = -987.21989496129527
 Total Coulomb        Energy = 736.73208401376985
    6   -1038.3285518550      4.29e-05  
 Alpha HF Exchange    Energy =  -7.26682479250899
 Beta HF Exchange     Energy =  -7.26682479250898
 DFT Correlation      Energy =  -2.78005762993595
 DFT Exchange         Energy = -57.65580547146198
 One-Electron (alpha) Energy = -987.20747765735109
 One-Electron (beta)  Energy = -987.20747765735052
 Total Coulomb        Energy = 736.70512323838409
    7   -1038.3285644526      8.03e-06  
 Alpha HF Exchange    Energy =  -7.26687495120129
 Beta HF Exchange     Energy =  -7.26687495120129
 DFT Correlation      Energy =  -2.78006951987992
 DFT Exchange         Energy = -57.65618721922235
 One-Electron (alpha) Energy = -987.21198872608852
 One-Electron (beta)  Energy = -987.21198872608863
 Total Coulomb        Energy = 736.71463893940518
    8   -1038.3285648442      2.76e-06  
 Alpha HF Exchange    Energy =  -7.26687268751786
 Beta HF Exchange     Energy =  -7.26687268751786
 DFT Correlation      Energy =  -2.78006999278779
 DFT Exchange         Energy = -57.65617247454452
 One-Electron (alpha) Energy = -987.21180931002914
 One-Electron (beta)  Energy = -987.21180931002903
 Total Coulomb        Energy = 736.71426126158860
    9   -1038.3285648907      6.60e-07  Convergence criterion met
 ---------------------------------------
 SCF time:   CPU 23.20s  wall 2.00s 
<S^2> =         -0.000000000
 Alpha HF Exchange    Energy =  -7.26687268751786
 Beta HF Exchange     Energy =  -7.26687268751786
 DFT Correlation      Energy =  -2.78006999278779
 DFT Exchange         Energy = -57.65617247454452
 One-Electron (alpha) Energy = -987.21180931002914
 One-Electron (beta)  Energy = -987.21180931002903
 Total Coulomb        Energy = 736.71426126158860
 Nuclear repulsion Energy = 274.35078031012540
 SCF   energy in the final basis set =    -1038.3285648907
 Total energy in the final basis set =    -1038.3285648907
 
 --------------------------------------------------------------
 
                    Orbital Energies (a.u.)
 --------------------------------------------------------------
 
 Alpha MOs
 -- Occupied --
*******-101.519 -10.289 -10.272 -10.209  -9.463  -9.433  -7.227
 -7.217  -7.217  -7.197  -7.188  -7.188  -0.882  -0.815  -0.758
 -0.712  -0.598  -0.502  -0.490  -0.452  -0.428  -0.404  -0.390
 -0.344  -0.311  -0.307  -0.289  -0.287
 -- Virtual --
 -0.054   0.017   0.070   0.119   0.129   0.135   0.152   0.167
  0.191   0.224   0.375   0.391   0.418   0.429   0.446   0.457
  0.472   0.497   0.516   0.530   0.562   0.584   0.592   0.659
  0.668   0.689   0.741   0.794   0.807   0.843   0.849   0.863
  0.878   0.891   0.894   0.911   0.920   0.928   0.948   0.983
  1.029   1.044   1.073   1.175   1.307   1.370   1.394   1.525
  1.562   1.688   1.784   1.839   1.846   1.868   2.011   2.023
  2.043   2.066   2.079   2.101   2.211   2.258   2.316   2.378
  2.477   2.542   2.591   2.631   2.685   2.721   2.806   2.851
  2.885   3.180   3.226   3.322   3.390   3.426   3.447   4.158
  4.268   4.292   4.432   4.567
 
 Beta MOs
 -- Occupied --
*******-101.519 -10.289 -10.272 -10.209  -9.463  -9.433  -7.227
 -7.217  -7.217  -7.197  -7.188  -7.188  -0.882  -0.815  -0.758
 -0.712  -0.598  -0.502  -0.490  -0.452  -0.428  -0.404  -0.390
 -0.344  -0.311  -0.307  -0.289  -0.287
 -- Virtual --
 -0.054   0.017   0.070   0.119   0.129   0.135   0.152   0.167
  0.191   0.224   0.375   0.391   0.418   0.429   0.446   0.457
  0.472   0.497   0.516   0.530   0.562   0.584   0.592   0.659
  0.668   0.689   0.741   0.794   0.807   0.843   0.849   0.863
  0.878   0.891   0.894   0.911   0.920   0.928   0.948   0.983
  1.029   1.044   1.073   1.175   1.307   1.370   1.394   1.525
  1.562   1.688   1.784   1.839   1.846   1.868   2.011   2.023
  2.043   2.066   2.079   2.101   2.211   2.258   2.316   2.378
  2.477   2.542   2.591   2.631   2.685   2.721   2.806   2.851
  2.885   3.180   3.226   3.322   3.390   3.426   3.447   4.158
  4.268   4.292   4.432   4.567
 --------------------------------------------------------------
 
          Ground-State Mulliken Net Atomic Charges

     Atom                 Charge (a.u.)    Spin (a.u.)
  --------------------------------------------------------
      1 Cl                   -0.215687      -0.000000
      2 Cl                   -0.055348       0.000000
      3 C                    -0.107265       0.000000
      4 C                    -0.271839      -0.000000
      5 C                    -0.307798       0.000000
      6 H                     0.172020      -0.000000
      7 H                     0.166516       0.000000
      8 H                     0.187352       0.000000
      9 H                     0.164025      -0.000000
     10 H                     0.144213       0.000000
     11 H                     0.123812      -0.000000
  --------------------------------------------------------
  Sum of atomic charges =    -0.000000
  Sum of spin   charges =    -0.000000

 -----------------------------------------------------------------
                    Cartesian Multipole Moments
 -----------------------------------------------------------------
    Charge (ESU x 10^10)
                -0.0000
    Dipole Moment (Debye)
         X       0.0251      Y      -2.9911      Z      -2.3565
       Tot       3.8079
    Quadrupole Moments (Debye-Ang)
        XX     -48.5163     XY       3.3550     YY     -46.0884
        XZ      -1.0934     YZ      -0.3798     ZZ     -42.2734
    Octopole Moments (Debye-Ang^2)
       XXX     -11.3423    XXY     -12.6364    XYY      -0.9161
       YYY     -28.8431    XXZ      -6.5125    XYZ       0.1538
       YYZ      -5.6933    XZZ      -0.5836    YZZ      -9.0652
       ZZZ     -16.8420
    Hexadecapole Moments (Debye-Ang^3)
      XXXX    -587.7441   XXXY      51.0313   XXYY    -152.7800
      XYYY      42.6672   YYYY    -325.8493   XXXZ      -8.9736
      XXYZ      -0.2568   XYYZ      -8.9291   YYYZ      -1.1000
      XXZZ    -113.4492   XYZZ      15.0655   YYZZ     -78.9592
      XZZZ      -8.1719   YZZZ      -5.6019   ZZZZ    -143.7502
 -----------------------------------------------------------------
 Calculating analytic gradient of the SCF energy
 Gradient of SCF Energy
            1           2           3           4           5           6
    1  -0.0145613  -0.0000101   0.0144646   0.0000943   0.0000202  -0.0000021
    2   0.0340903   0.0000165  -0.0340462  -0.0000916  -0.0001259   0.0000425
    3   0.0147025  -0.0000039  -0.0147197  -0.0000168  -0.0000328   0.0000173
            7           8           9          10          11
    1   0.0000018  -0.0000145   0.0000161   0.0000050  -0.0000140
    2   0.0000382   0.0000212   0.0000118   0.0000345   0.0000087
    3  -0.0000092   0.0000074  -0.0000032   0.0000376   0.0000208
 Max gradient component =       3.409E-02
 RMS gradient           =       9.809E-03
 Gradient time:  CPU 9.38 s  wall 0.79 s
 Geometry Optimization Parameters
   NAtoms,    NIC,     NZ,  NCons,   NDum,   NFix, NCnnct, MaxDiis
       11      68       0       1       0       0       0       0

 Cartesian Hessian Update
 Hessian Updated using BFGS Update


** CONSTRAINED OPTIMIZATION IN DELOCALIZED INTERNAL COORDINATES **
   Searching for a Minimum

   Optimization Cycle:   9

                       Coordinates (Angstroms)
     ATOM                X               Y               Z
      1  Cl       -1.3430485031    1.5205446000    0.2546723789
      2  Cl        1.9578837428    0.0594735241    0.6094615607
      3  C        -0.5780007005   -0.2748891074   -0.5206461281
      4  C         0.8770952793   -0.0355491610   -0.8329073640
      5  C        -0.9437339656   -1.3630234287    0.4495351651
      6  H        -1.1492781151   -0.3007973073   -1.4488799572
      7  H         1.2364951836   -0.8788846309   -1.4332057694
      8  H         1.0091551705    0.8857221179   -1.3980123472
      9  H        -0.4712013538   -1.2043899266    1.4196586103
     10  H        -2.0252845910   -1.4205046821    0.5783220687
     11  H        -0.5897811470   -2.3223009982    0.0467987822
   Point Group: c1    Number of degrees of freedom:    27


   Energy is  -1038.328564891

              Constraints and their Current Values
                                        Value     Constraint
   Distance(Angs):        1   3             2.100000     2.100000
 Hessian Updated using BFGS Update

 26 Hessian modes will be used to form the next step
  Hessian Eigenvalues:
     0.003879    0.034103    0.045681    0.076884    0.079530    0.082288
     0.084817    0.086550    0.121237    0.159763    0.159994    0.160038
     0.160362    0.178673    0.188498    0.224703    0.233138    0.256080
     0.312089    0.317165    0.339888    0.343254    0.346034    0.347023
     0.347312    0.349778

 Minimum Search - Taking Simple RFO Step
 Searching for Lamda that Minimizes Along All modes
 Value Taken    Lamda =   0.00000000
 Step Taken.  Stepsize is  0.003744

                             Maximum     Tolerance    Cnvgd?
         Gradient           0.000076      0.000300     YES
         Displacement       0.002393      0.001200      NO
         Energy change     -0.000001      0.000001     YES


                       Distance Matrix (Angstroms)
             Cl(  1)   Cl(  2)   C (  3)   C (  4)   C (  5)   H (  6)
   Cl(  2)  3.627225
   C (  3)  2.100000  2.796364
   C (  4)  2.921181  1.804871  1.507347
   C (  5)  2.917600  3.235500  1.503013  2.592733
   H (  6)  2.501384  3.744465  1.090251  2.134471  2.185075
   H (  7)  3.906436  2.360806  2.118955  1.095783  2.921045  2.454861
   H (  8)  2.944016  2.369119  2.153103  1.088818  3.504863  2.463585
   H (  9)  3.089106  2.855560  2.154103  2.873699  1.090684  3.082983
   H ( 10)  3.036440  4.249345  2.148208  3.511905  1.090707  2.476021
   H ( 11)  3.921490  3.532709  2.124624  2.855669  1.098951  2.576154
             H (  7)   H (  8)   H (  9)   H ( 10)
   H (  8)  1.779539
   H (  9)  3.340811  3.807794
   H ( 10)  3.870246  4.293298  1.780373
   H ( 11)  2.758469  3.864646  1.774410  1.776633
 
 Final energy is   -1038.32856489071     


 ******************************
 **  OPTIMIZATION CONVERGED  **
 ******************************

                       Coordinates (Angstroms)
     ATOM                X               Y               Z
      1  Cl       -1.3430485031    1.5205446000    0.2546723789
      2  Cl        1.9578837428    0.0594735241    0.6094615607
      3  C        -0.5780007005   -0.2748891074   -0.5206461281
      4  C         0.8770952793   -0.0355491610   -0.8329073640
      5  C        -0.9437339656   -1.3630234287    0.4495351651
      6  H        -1.1492781151   -0.3007973073   -1.4488799572
      7  H         1.2364951836   -0.8788846309   -1.4332057694
      8  H         1.0091551705    0.8857221179   -1.3980123472
      9  H        -0.4712013538   -1.2043899266    1.4196586103
     10  H        -2.0252845910   -1.4205046821    0.5783220687
     11  H        -0.5897811470   -2.3223009982    0.0467987822

Z-matrix Print:
$molecule
0 1
Cl
C  1 1.804871
H  2 1.088818 1 107.312989
H  2 1.095783 1 106.374399 3 116.659098 0
C  2 1.507347 1 114.889351 3 -123.993744 0
H  5 1.090251 2 109.464468 1 179.112845 0
C  5 1.503013 2 118.918910 1 -47.586725 0
H  7 1.090684 5 111.310429 2 57.944191 0
H  7 1.090707 5 110.834004 2 179.951650 0
H  7 1.098951 5 108.483147 2 -61.073159 0
Cl 5 2.100000 2 107.002256 1 73.596816 0
$end

PES scan, value:    2.1000 energy: -1038.3285648907
------- Summary of potential scan: ------ 
    2.1000     -1038.3285648907
----------------------------------------- 
Archival summary:
1\1\hpc0332\JobtypUnspecified\ProcedureUnspecified\6-31G**\l236\knomura\TueMar1201:56:562019TueMar1201:56:562019\0\\#,JobtypUnspecified,ProcedureUnspecified,6-31G**,\\0,1\Cl\C,1,1.80487\H,2,1.08882,1,107.313\H,2,1.09578,1,106.374,3,116.659,0\C,2,1.50735,1,114.889,3,-123.994,0\H,5,1.09025,2,109.464,1,179.113,0\C,5,1.50301,2,118.919,1,-47.5867,0\H,7,1.09068,5,111.31,2,57.9442,0\H,7,1.09071,5,110.834,2,179.952,0\H,7,1.09895,5,108.483,2,-61.0732,0\Cl,5,2.1,2,107.002,1,73.5968,0\\\@

 Total job time:  29.80s(wall), 339.92s(cpu) 
 Tue Mar 12 01:56:56 2019

        *************************************************************
        *                                                           *
        *  Thank you very much for using Q-Chem.  Have a nice day.  *
        *                                                           *
        *************************************************************


