
Running Job 1 of 1 ruruma/CH3CHClCH2Cl_afterGeo_middle_singlet.xyz.data/inputs/bond_triplet_4.6.in
qchem ruruma/CH3CHClCH2Cl_afterGeo_middle_singlet.xyz.data/inputs/bond_triplet_4.6.in_27482.0 /staging/scratch/2858534/qchem27482/ 1
/usr/usc/qchem/5.1.1/exe/qcprog.exe_s ruruma/CH3CHClCH2Cl_afterGeo_middle_singlet.xyz.data/inputs/bond_triplet_4.6.in_27482.0 /staging/scratch/2858534/qchem27482/
Check license passed

                  Welcome to Q-Chem
     A Quantum Leap Into The Future Of Chemistry


 Q-Chem 5.1, Q-Chem, Inc., Pleasanton, CA (2018)

 Yihan Shao,  Zhengting Gan,  E. Epifanovsky,  A. T. B. Gilbert,  M. Wormit,  
 J. Kussmann,  A. W. Lange,  A. Behn,  Jia Deng,  Xintian Feng,  D. Ghosh,  
 M. Goldey,  P. R. Horn,  L. D. Jacobson,  I. Kaliman,  T. Kus,  A. Landau,  
 Jie Liu,  E. I. Proynov,  R. M. Richard,  R. P. Steele,  E. J. Sundstrom,  
 H. L. Woodcock III,  P. M. Zimmerman,  D. Zuev,  B. Albrecht,  E. Alguire,  
 S. A. Baeppler,  D. Barton,  Z. Benda,  Y. A. Bernard,  E. J. Berquist,  
 K. B. Bravaya,  H. Burton,  D. Casanova,  Chun-Min Chang,  Yunqing Chen,  
 A. Chien,  K. D. Closser,  M. P. Coons,  S. Coriani,  S. Dasgupta,  
 A. L. Dempwolff,  M. Diedenhofen,  Hainam Do,  R. G. Edgar,  Po-Tung Fang,  
 S. Faraji,  S. Fatehi,  Qingguo Feng,  K. D. Fenk,  J. Fosso-Tande,  
 Qinghui Ge,  A. Ghysels,  G. Gidofalvi,  J. Gomes,  J. Gonthier,  A. Gunina,  
 D. Hait,  M. W. D. Hanson-Heine,  P. H. P. Harbach,  A. W. Hauser,  
 J. E. Herr,  E. G. Hohenstein,  Z. C. Holden,  Kerwin Hui,  B. C. Huynh,  
 T.-C. Jagau,  Hyunjun Ji,  B. Kaduk,  K. Khistyaev,  Jaehoon Kim,  
 P. Klunzinger,  K. Koh,  D. Kosenkov,  L. Koulias,  T. Kowalczyk,  
 C. M. Krauter,  A. Kunitsa,  Ka Un Lao,  A. Laurent,  K. V. Lawler,  
 Joonho Lee,  D. Lefrancois,  S. Lehtola,  D. S. Levine,  Yi-Pei Li,  
 You-Sheng Lin,  Fenglai Liu,  E. Livshits,  A. Luenser,  P. Manohar,  
 E. Mansoor,  S. F. Manzer,  Shan-Ping Mao,  Yuezhi Mao,  N. Mardirossian,  
 A. V. Marenich,  T. Markovich,  L. A. Martinez-Martinez,  S. A. Maurer,  
 N. J. Mayhall,  S. C. McKenzie,  J.-M. Mewes,  A. F. Morrison,  
 J. W. Mullinax,  K. Nanda,  T. S. Nguyen-Beck,  R. Olivares-Amaya,  
 J. A. Parkhill,  T. M. Perrine,  F. Plasser,  P. Pokhilko,  S. Prager,  
 A. Prociuk,  E. Ramos,  D. R. Rehn,  F. Rob,  M. Schneider,  N. Sergueev,  
 S. M. Sharada,  S. Sharma,  D. W. Small,  T. Stauch,  T. Stein,  
 Yu-Chuan Su,  A. J. W. Thom,  A. Tkatchenko,  T. Tsuchimochi,  N. M. Tubman,  
 L. Vogt,  M. L. Vidal,  O. Vydrov,  M. A. Watson,  J. Wenzel,  
 M. de Wergifosse,  T. A. Wesolowski,  A. White,  J. Witte,  A. Yamada,  
 Jun Yang,  K. Yao,  S. Yeganeh,  S. R. Yost,  Zhi-Qiang You,  A. Zech,  
 Igor Ying Zhang,  Xing Zhang,  Yan Zhao,  Ying Zhu,  B. R. Brooks,  
 G. K. L. Chan,  C. J. Cramer,  M. S. Gordon,  W. J. Hehre,  A. Klamt,  
 M. W. Schmidt,  C. D. Sherrill,  D. G. Truhlar,  A. Aspuru-Guzik,  R. Baer,  
 A. T. Bell,  N. A. Besley,  Jeng-Da Chai,  A. E. DePrince, III,  
 R. A. DiStasio Jr.,  A. Dreuw,  B. D. Dunietz,  T. R. Furlani,  
 Chao-Ping Hsu,  Yousung Jung,  Jing Kong,  D. S. Lambrecht,  WanZhen Liang,  
 C. Ochsenfeld,  V. A. Rassolov,  L. V. Slipchenko,  J. E. Subotnik,  
 T. Van Voorhis,  J. M. Herbert,  A. I. Krylov,  P. M. W. Gill,  M. Head-Gordon

 Contributors to earlier versions of Q-Chem not listed above: 
 R. D. Adamson,  B. Austin,  J. Baker,  G. J. O. Beran,  K. Brandhorst,  
 S. T. Brown,  E. F. C. Byrd,  A. K. Chakraborty,  C.-L. Cheng,  
 Siu Hung Chien,  D. M. Chipman,  D. L. Crittenden,  H. Dachsel,  
 R. J. Doerksen,  A. D. Dutoi,  L. Fusti-Molnar,  W. A. Goddard III,  
 A. Golubeva-Zadorozhnaya,  S. R. Gwaltney,  G. Hawkins,  A. Heyden,  
 S. Hirata,  G. Kedziora,  F. J. Keil,  C. Kelley,  Jihan Kim,  R. A. King,  
 R. Z. Khaliullin,  P. P. Korambath,  W. Kurlancheek,  A. M. Lee,  M. S. Lee,  
 S. V. Levchenko,  Ching Yeh Lin,  D. Liotard,  R. C. Lochan,  I. Lotan,  
 P. E. Maslen,  N. Nair,  D. P. O'Neill,  D. Neuhauser,  E. Neuscamman,  
 C. M. Oana,  R. Olson,  B. Peters,  R. Peverati,  P. A. Pieniazek,  
 Y. M. Rhee,  J. Ritchie,  M. A. Rohrdanz,  E. Rosta,  N. J. Russ,  
 H. F. Schaefer III,  N. E. Schultz,  N. Shenvi,  A. C. Simmonett,  A. Sodt,  
 D. Stuck,  K. S. Thanthiriwatte,  V. Vanovschi,  Tao Wang,  A. Warshel,  
 C. F. Williams,  Q. Wu,  X. Xu,  W. Zhang

 Please cite Q-Chem as follows:
 Y. Shao et al., Mol. Phys. 113, 184-215 (2015)
 DOI: 10.1080/00268976.2014.952696

 Q-Chem 5.1.1 for Intel X86 EM64T Linux

 Parts of Q-Chem use Armadillo 8.300.2 (Tropical Shenanigans).
 http://arma.sourceforge.net/

 Q-Chem begins on Tue Mar 12 03:12:51 2019  

Host: 
0

     Scratch files written to /staging/scratch/2858534/qchem27482//
 Aug318 |scratch|qcdevops|jenkins|workspace|build_RNUM 6013   
Processing $rem in /usr/usc/qchem/5.1.1/config/preferences.
 MEM_TOTAL  2000 
Input Ideriv = 2
Curr. Ideriv = -1
Max.  Ideriv = 2

Checking the input file for inconsistencies... 	...done.

--------------------------------------------------------------
User input:
--------------------------------------------------------------

$comment
potential surface scanner
$end

$rem
JOBTYPE  PES_SCAN
UNRESTRICTED TRUE
SYM_IGNORE  TRUE
GEOM_OPT_MAX_CYCLES 400
SCF_MAX_CYCLES 400
METHOD   B3LYP
BASIS   6-31G**
PDB_PRINT 2
SCF_CONVERGENCE 6
THRESH 14
SCF_PRINT 1
$end
$molecule
0 3
Cl 1.023099 3.100146 -1.670877
Cl 0.693741 1.424617 0.487813
C -0.912541 -0.858736 -0.036695
C -0.273962 0.195130 -0.772239
C -0.207233 -2.091898 0.403288
H -1.911090 -0.672469 0.351846
H 0.559070 -0.095904 -1.407830
H -0.929390 0.918125 -1.248102
H 0.153677 -1.981435 1.438527
H -0.878241 -2.957675 0.400385
H 0.663167 -2.314501 -0.221315
$end
$scan
stre 1 3 4.600000 4.601000 0.100000
$end
--------------------------------------------------------------
 ----------------------------------------------------------------
             Standard Nuclear Orientation (Angstroms)
    I     Atom           X                Y                Z
 ----------------------------------------------------------------
    1      Cl      1.0230990000     3.1001460000    -1.6708770000
    2      Cl      0.6937410000     1.4246170000     0.4878130000
    3      C      -0.9125410000    -0.8587360000    -0.0366950000
    4      C      -0.2739620000     0.1951300000    -0.7722390000
    5      C      -0.2072330000    -2.0918980000     0.4032880000
    6      H      -1.9110900000    -0.6724690000     0.3518460000
    7      H       0.5590700000    -0.0959040000    -1.4078300000
    8      H      -0.9293900000     0.9181250000    -1.2481020000
    9      H       0.1536770000    -1.9814350000     1.4385270000
   10      H      -0.8782410000    -2.9576750000     0.4003850000
   11      H       0.6631670000    -2.3145010000    -0.2213150000
 ----------------------------------------------------------------
 Nuclear Repulsion Energy =   251.8531819806 hartrees
 There are       30 alpha and       28 beta electrons
 Requested basis set is 6-31G(d,p)
 There are 40 shells and 113 basis functions

 Total QAlloc Memory Limit   2000 MB
 Mega-Array Size       188 MB
 MEM_STATIC part       192 MB
A total of 1 constraints
  
            1
    1   1.0100000
    2   1.0100000
    3   3.0100000
    4   4.6000000
    5   4.6010000
    6   0.1000000
    7   0.0000000
    8   0.0000000
    9   0.0000000
   10   0.0000000

                       Distance Matrix (Angstroms)
             Cl(  1)   Cl(  2)   C (  3)   C (  4)   C (  5)   H (  6)
   Cl(  2)  2.752420
   C (  3)  4.700000  2.840590
   C (  4)  3.305909  2.008935  1.435075
   C (  5)  5.724788  3.631085  1.487190  2.572317
   H (  6)  5.189749  3.346849  1.087548  2.167137  2.218232
   H (  7)  3.240255  2.433841  2.151177  1.087483  2.802028  3.087163
   H (  8)  2.958406  2.429915  2.150587  1.085704  3.508395  2.460398
   H (  9)  6.020528  3.577250  2.138587  3.131740  1.101897  2.675356
   H ( 10)  6.678504  4.656528  2.144239  3.417657  1.095368  2.508246
   H ( 11)  5.616866  3.805890  2.153182  2.734954  1.094202  3.106699
             H (  7)   H (  8)   H (  9)   H ( 10)
   H (  8)  1.808115
   H (  9)  3.438214  4.098592
   H ( 10)  3.677667  4.212120  1.759443
   H ( 11)  2.518100  3.747052  1.767933  1.782168
 
 A cutoff of  1.0D-14 yielded    747 shell pairs
 There are      6055 function pairs
 
 -------------------------------------------------------
 OpenMP Integral Computing Module                       
 Release: version 1.0, May 2013, Q-Chem Inc. Pittsburgh 
 -------------------------------------------------------
 Integral Job Info:
 Integral job number is                      11
 Integral operator is                         1
 short-range coefficients                     0
 long-range coefficients              100000000
 Omega coefficients                           0
 if combine SR and LR in K                    0
 Integral screening is                        0
 Integral computing path is                   2
 max size of driver memory is            800000
 size of driver memory is                593474
 size of scratch memory is             15267112
 max col of scratch BK array               1296
 max len of scratch array in speh3          155
 max len of scratch index in speh4           18
 max int batch size is                      520
 min int batch size is                       52
 fixed nKL is                                52
 max L of basis functions is                  2
 order of int derivative is                   0
 number of shells is                         40
 number of basis is                         113
 number of cartesian basis is               113
 number of contracted shell pairs           747
 number of primitive shell pairs           2999
 maxK2 (contraction) of shell pair           36
 max number of K2 of shell pair               1
 max number of CS2 of shell pair             60
 max number of PS2 of shell pair            306
 mem total for path MDJ                  517212
 -------------------------------------------------------
 Smallest overlap matrix eigenvalue = 5.44E-03

 Scale SEOQF with 1.000000e-01/1.000000e-01/1.000000e-01

 Standard Electronic Orientation quadrupole field applied
 Nucleus-field energy     =     0.0000000124 hartrees
 Guess from superposition of atomic densities
 Warning:  Energy on first SCF cycle will be non-variational
 SAD guess density has 58.000000 electrons

 -----------------------------------------------------------------------
  General SCF calculation program by
  Eric Jon Sundstrom, Paul Horn, Yuezhi Mao, Dmitri Zuev, Alec White,
  David Stuck, Shaama M.S., Shane Yost, Joonho Lee, David Small,
  Daniel Levine, Susi Lehtola, Hugh Burton, Evgeny Epifanovsky
 -----------------------------------------------------------------------
 Exchange:     0.2000 Hartree-Fock + 0.0800 Slater + 0.7200 B88
 Correlation:  0.1900 VWN1RPA + 0.8100 LYP
 Using SG-1 standard quadrature grid
 using 12 threads for integral computing
 -------------------------------------------------------
 OpenMP Integral computing Module                
 Release: version 1.0, May 2013, Q-Chem Inc. Pittsburgh 
 -------------------------------------------------------
 -------------------------------------------------------
 OpenMP BLAS3 based DFT computing Module                
 Release: version 1.0, May 2013, Q-Chem Inc. Pittsburgh 
 -------------------------------------------------------
 A unrestricted SCF calculation will be
 performed using DIIS
 SCF converges when DIIS error is below 1.0e-06
 Alpha HF Exchange    Energy =  -7.26293077517753
 Beta HF Exchange     Energy =  -7.26293077517753
 DFT Correlation      Energy =  -2.75588514145207
 DFT Exchange         Energy = -57.31343715758855
 One-Electron (alpha) Energy = -962.97328761368067
 One-Electron (beta)  Energy = -962.97328761368067
 Total Coulomb        Energy = 710.12766531518389
 ---------------------------------------
  Cycle       Energy         DIIS error
 ---------------------------------------
    1   -1038.5609117686      2.60e-02  
 Alpha HF Exchange    Energy =  -7.39615364376092
 Beta HF Exchange     Energy =  -7.17270907941785
 DFT Correlation      Energy =  -2.77451610260928
 DFT Exchange         Energy = -57.83519866004298
 One-Electron (alpha) Energy = -982.21912060044906
 One-Electron (beta)  Energy = -949.72212438645693
 Total Coulomb        Energy = 717.10735028093086
    2   -1038.1592901988      2.97e-03  
 Alpha HF Exchange    Energy =  -7.35381159268586
 Beta HF Exchange     Energy =  -7.14167031540339
 DFT Correlation      Energy =  -2.75349320843362
 DFT Exchange         Energy = -57.49269189614578
 One-Electron (alpha) Energy = -979.80743485964206
 One-Electron (beta)  Energy = -947.93923699355150
 Total Coulomb        Energy = 712.50216494558560
    3   -1038.1329919273      3.63e-03  
 Alpha HF Exchange    Energy =  -7.37035773358787
 Beta HF Exchange     Energy =  -7.14701418105834
 DFT Correlation      Energy =  -2.76168399382823
 DFT Exchange         Energy = -57.60297446532127
 One-Electron (alpha) Energy = -980.53337140728081
 One-Electron (beta)  Energy = -948.15789694300406
 Total Coulomb        Energy = 713.48870986861925
    4   -1038.2314068625      6.17e-04  
 Alpha HF Exchange    Energy =  -7.37641520815719
 Beta HF Exchange     Energy =  -7.15435069865327
 DFT Correlation      Energy =  -2.76276504642854
 DFT Exchange         Energy = -57.65076277269784
 One-Electron (alpha) Energy = -980.99690212607175
 One-Electron (beta)  Energy = -948.64451653937783
 Total Coulomb        Energy = 714.49853547876751
    5   -1038.2339949196      3.18e-04  
 Alpha HF Exchange    Energy =  -7.37604666958493
 Beta HF Exchange     Energy =  -7.15295435989431
 DFT Correlation      Energy =  -2.76237536833655
 DFT Exchange         Energy = -57.64402083818706
 One-Electron (alpha) Energy = -980.91608671926929
 One-Electron (beta)  Energy = -948.52672121044122
 Total Coulomb        Energy = 714.29017771689200
    6   -1038.2348454558      7.73e-05  
 Alpha HF Exchange    Energy =  -7.37575556780521
 Beta HF Exchange     Energy =  -7.15284603648680
 DFT Correlation      Energy =  -2.76218705010060
 DFT Exchange         Energy = -57.64159844596667
 One-Electron (alpha) Energy = -980.88186346107955
 One-Electron (beta)  Energy = -948.50580376041194
 Total Coulomb        Energy = 714.23197030533026
    7   -1038.2349020235      2.81e-05  
 Alpha HF Exchange    Energy =  -7.37596177418596
 Beta HF Exchange     Energy =  -7.15304416156337
 DFT Correlation      Energy =  -2.76218500015350
 DFT Exchange         Energy = -57.64302379595288
 One-Electron (alpha) Energy = -980.89415119724185
 One-Electron (beta)  Energy = -948.51831707864187
 Total Coulomb        Energy = 714.25859028098091
    8   -1038.2349107338      1.15e-05  
 Alpha HF Exchange    Energy =  -7.37597897839160
 Beta HF Exchange     Energy =  -7.15306496310012
 DFT Correlation      Energy =  -2.76217035006713
 DFT Exchange         Energy = -57.64307933162839
 One-Electron (alpha) Energy = -980.89113690913439
 One-Electron (beta)  Energy = -948.51893217345719
 Total Coulomb        Energy = 714.25626867390702
    9   -1038.2349120389      5.29e-06  
 Alpha HF Exchange    Energy =  -7.37595765904595
 Beta HF Exchange     Energy =  -7.15306448173423
 DFT Correlation      Energy =  -2.76216308956399
 DFT Exchange         Energy = -57.64298831049543
 One-Electron (alpha) Energy = -980.88949364301948
 One-Electron (beta)  Energy = -948.51856906461160
 Total Coulomb        Energy = 714.25414175936533
   10   -1038.2349124961      1.74e-06  
 Alpha HF Exchange    Energy =  -7.37596559725482
 Beta HF Exchange     Energy =  -7.15307060153037
 DFT Correlation      Energy =  -2.76216383712038
 DFT Exchange         Energy = -57.64304500758232
 One-Electron (alpha) Energy = -980.88987354776111
 One-Electron (beta)  Energy = -948.51939977199902
 Total Coulomb        Energy = 714.25542371238089
   11   -1038.2349126579      1.02e-06  
 Alpha HF Exchange    Energy =  -7.37596416639170
 Beta HF Exchange     Energy =  -7.15307160858546
 DFT Correlation      Energy =  -2.76216419094140
 DFT Exchange         Energy = -57.64304301665390
 One-Electron (alpha) Energy = -980.88975902059121
 One-Electron (beta)  Energy = -948.51957769390378
 Total Coulomb        Energy = 714.25548496719637
   12   -1038.2349127369      6.46e-07  Convergence criterion met
 ---------------------------------------
 SCF time:   CPU 30.84s  wall 2.00s 
<S^2> =          2.009440026
 Alpha HF Exchange    Energy =  -7.37596416639170
 Beta HF Exchange     Energy =  -7.15307160858546
 DFT Correlation      Energy =  -2.76216419094140
 DFT Exchange         Energy = -57.64304301665390
 One-Electron (alpha) Energy = -980.88975902059121
 One-Electron (beta)  Energy = -948.51957769390378
 Total Coulomb        Energy = 714.25548496719637
 Nuclear repulsion Energy = 251.85318199297927
 SCF   energy in the final basis set =    -1038.2349127369
 Total energy in the final basis set =    -1038.2349127369
 
 --------------------------------------------------------------
 
                    Orbital Energies (a.u.)
 --------------------------------------------------------------
 
 Alpha MOs
 -- Occupied --
*******-101.527 -10.267 -10.248 -10.215  -9.475  -9.440  -7.239
 -7.234  -7.227  -7.211  -7.193  -7.193  -0.865  -0.810  -0.776
 -0.720  -0.608  -0.510  -0.468  -0.455  -0.415  -0.410  -0.396
 -0.375  -0.324  -0.295  -0.291  -0.289  -0.244
 -- Virtual --
 -0.018   0.081   0.099   0.121   0.139   0.148   0.155   0.233
  0.279   0.356   0.383   0.418   0.427   0.434   0.478   0.495
  0.500   0.526   0.539   0.554   0.579   0.596   0.612   0.681
  0.699   0.713   0.774   0.814   0.825   0.831   0.847   0.858
  0.871   0.874   0.890   0.896   0.901   0.909   0.919   0.947
  1.024   1.036   1.123   1.242   1.271   1.356   1.426   1.493
  1.632   1.759   1.794   1.842   1.873   1.962   2.010   2.049
  2.072   2.089   2.138   2.236   2.316   2.326   2.405   2.417
  2.508   2.546   2.630   2.689   2.776   2.816   2.842   2.923
  3.142   3.232   3.363   3.387   3.420   3.500   4.132   4.240
  4.252   4.421   4.525
 
 Beta MOs
 -- Occupied --
*******-101.522 -10.267 -10.236 -10.215  -9.471  -9.435  -7.232
 -7.226  -7.225  -7.194  -7.190  -7.190  -0.846  -0.788  -0.737
 -0.713  -0.593  -0.505  -0.461  -0.437  -0.408  -0.396  -0.389
 -0.328  -0.315  -0.282  -0.278
 -- Virtual --
 -0.173  -0.124   0.010   0.084   0.101   0.124   0.145   0.155
  0.158   0.241   0.286   0.365   0.398   0.422   0.440   0.444
  0.483   0.505   0.517   0.544   0.551   0.570   0.592   0.618
  0.629   0.688   0.709   0.724   0.788   0.824   0.836   0.841
  0.864   0.875   0.890   0.899   0.907   0.915   0.919   0.925
  0.931   0.973   1.045   1.062   1.132   1.254   1.285   1.379
  1.433   1.493   1.637   1.776   1.804   1.858   1.883   1.985
  2.015   2.054   2.077   2.092   2.152   2.240   2.325   2.330
  2.415   2.427   2.519   2.555   2.635   2.697   2.779   2.820
  2.847   2.927   3.145   3.234   3.367   3.391   3.421   3.504
  4.149   4.255   4.266   4.422   4.536
 --------------------------------------------------------------
 
          Ground-State Mulliken Net Atomic Charges

     Atom                 Charge (a.u.)    Spin (a.u.)
  --------------------------------------------------------
      1 Cl                   -0.211347       0.766990
      2 Cl                   -0.060464       0.454411
      3 C                    -0.008128       0.839366
      4 C                    -0.288735      -0.052450
      5 C                    -0.353506      -0.062028
      6 H                     0.127962      -0.036995
      7 H                     0.183773       0.006479
      8 H                     0.193938       0.005980
      9 H                     0.151251       0.053221
     10 H                     0.135386       0.018343
     11 H                     0.129870       0.006683
  --------------------------------------------------------
  Sum of atomic charges =     0.000000
  Sum of spin   charges =     2.000000

 -----------------------------------------------------------------
                    Cartesian Multipole Moments
 -----------------------------------------------------------------
    Charge (ESU x 10^10)
                -0.0000
    Dipole Moment (Debye)
         X      -2.1663      Y      -4.7941      Z       0.6853
       Tot       5.3053
    Quadrupole Moments (Debye-Ang)
        XX     -45.1841     XY      -3.5463     YY     -53.0951
        XZ       1.2106     YZ       2.8894     ZZ     -45.8620
    Octopole Moments (Debye-Ang^2)
       XXX     -45.9197    XXY     -44.3066    XYY     -23.6747
       YYY    -153.1859    XXZ      20.3302    XYZ       6.2716
       YYZ      30.9649    XZZ     -14.4699    YZZ     -43.5696
       ZZZ      55.3656
    Hexadecapole Moments (Debye-Ang^3)
      XXXX    -220.2885   XXXY    -187.5373   XXYY    -244.5486
      XYYY    -201.7157   YYYY   -1266.4412   XXXZ      54.6729
      XXYZ      72.3148   XYYZ      28.3311   YYYZ     226.3390
      XXZZ     -93.5588   XYZZ     -64.7677   YYZZ    -257.9306
      XZZZ      54.3429   YZZZ     197.4968   ZZZZ    -324.7271
 -----------------------------------------------------------------
 Calculating analytic gradient of the SCF energy
 Gradient of SCF Energy
            1           2           3           4           5           6
    1  -0.0003529   0.0000121   0.0004943  -0.0000905  -0.0000318  -0.0000495
    2  -0.0007746   0.0000274   0.0009215  -0.0001585  -0.0000150  -0.0000575
    3   0.0003642   0.0000578  -0.0003586   0.0000273   0.0000046  -0.0001044
            7           8           9          10          11
    1   0.0000137   0.0000083   0.0000249  -0.0000127  -0.0000159
    2   0.0000334   0.0000222   0.0000121   0.0000099  -0.0000208
    3   0.0000010   0.0000370  -0.0000210   0.0000168  -0.0000247
 Max gradient component =       9.215E-04
 RMS gradient           =       2.548E-04
 Gradient time:  CPU 8.79 s  wall 0.74 s
 Geometry Optimization Parameters
   NAtoms,    NIC,     NZ,  NCons,   NDum,   NFix, NCnnct, MaxDiis
       11      71       0       1       0       0       0       0


** CONSTRAINED OPTIMIZATION IN DELOCALIZED INTERNAL COORDINATES **
   Searching for a Minimum

   Optimization Cycle:   1

                       Coordinates (Angstroms)
     ATOM                X               Y               Z
      1  Cl        1.0230990000    3.1001460000   -1.6708770000
      2  Cl        0.6937410000    1.4246170000    0.4878130000
      3  C        -0.9125410000   -0.8587360000   -0.0366950000
      4  C        -0.2739620000    0.1951300000   -0.7722390000
      5  C        -0.2072330000   -2.0918980000    0.4032880000
      6  H        -1.9110900000   -0.6724690000    0.3518460000
      7  H         0.5590700000   -0.0959040000   -1.4078300000
      8  H        -0.9293900000    0.9181250000   -1.2481020000
      9  H         0.1536770000   -1.9814350000    1.4385270000
     10  H        -0.8782410000   -2.9576750000    0.4003850000
     11  H         0.6631670000   -2.3145010000   -0.2213150000
   Point Group: c1    Number of degrees of freedom:    27


   Energy is  -1038.234912737

              Constraints and their Current Values
                                        Value     Constraint
   Distance(Angs):        1   3             4.700000     4.600000

 Attempting to Generate Delocalized Internal Coordinates

   Using Lagrange Multiplier Algorithm


 28 Hessian modes will be used to form the next step
  Hessian Eigenvalues:
    -0.997827    0.045000    0.045000    0.045328    0.047361    0.055698
     0.074650    0.080889    0.084475    0.092166    0.094467    0.123464
     0.140653    0.150081    0.158472    0.160000    0.160000    0.160000
     0.220372    0.291904    0.334732    0.337593    0.341996    0.343316
     0.343596    0.350976    0.351052    1.002177

 Minimum Search - Taking P-RFO Step
 Searching for Lamda that Maximizes Along the Constraint modes Only
 Value Taken    Lamda =   0.01780311
 Searching for Lamda that Minimizes Along All other modes
 Value Taken    Lamda =  -0.01729380
 Step Taken.  Stepsize is  0.185724

                             Maximum     Tolerance    Cnvgd?
         Gradient            0.188973       0.000300      NO
         Displacement        0.185713       0.001200      NO
         Energy change     *********       0.000001      NO


 New Cartesian Coordinates Obtained by Inverse Iteration

 Displacement from previous Coordinates is:  0.228315
 ----------------------------------------------------------------
             Standard Nuclear Orientation (Angstroms)
    I     Atom           X                Y                Z
 ----------------------------------------------------------------
    1      Cl      1.0115811347     3.0351235148    -1.6421764334
    2      Cl      0.6830206017     1.3797133979     0.5156457189
    3      C      -0.9027920159    -0.8349135849    -0.0503662094
    4      C      -0.2808264757     0.1853399588    -0.7750446336
    5      C      -0.1988344545    -2.0667493846     0.3954612536
    6      H      -1.8997522499    -0.6439150037     0.3399492796
    7      H       0.5526520894    -0.1016892690    -1.4118728142
    8      H      -0.9475473613     0.8893198716    -1.2455034177
    9      H       0.1647895259    -1.9507236563     1.4291373510
   10      H      -0.8715682141    -2.9311949541     0.3994683369
   11      H       0.6695744199    -2.2949108905    -0.2298974317
 ----------------------------------------------------------------
 Nuclear Repulsion Energy =   254.5260464628 hartrees
 There are       30 alpha and       28 beta electrons

                       Distance Matrix (Angstroms)
             Cl(  1)   Cl(  2)   C (  3)   C (  4)   C (  5)   H (  6)
   Cl(  2)  2.739440
   C (  3)  4.601725  2.782040
   C (  4)  3.247076  2.005346  1.397468
   C (  5)  5.625494  3.559525  1.487191  2.539432
   H (  6)  5.093133  3.285827  1.087546  2.133494  2.218256
   H (  7)  3.178561  2.434518  2.123590  1.087484  2.773563  3.062218
   H (  8)  2.932577  2.449670  2.098413  1.077699  3.462901  2.402325
   H (  9)  5.916815  3.492111  2.138619  3.101574  1.101894  2.675147
   H ( 10)  6.581149  4.584122  2.144230  3.382491  1.095378  2.508457
   H ( 11)  5.524560  3.749517  2.153174  2.711474  1.094196  3.106759
             H (  7)   H (  8)   H (  9)   H ( 10)
   H (  8)  1.805651
   H (  9)  3.411848  4.056704
   H ( 10)  3.649036  4.160293  1.759426
   H ( 11)  2.494185  3.712932  1.767956  1.782156
 
 Applying Cartesian multipole field
    Component          Value
    ---------          -----
     (2,0,0)        1.00000E-11
     (0,2,0)        2.00000E-11
     (0,0,2)       -3.00000E-11
 Nucleus-field energy     =     0.0000000118 hartrees
 Requested basis set is 6-31G(d,p)
 There are 40 shells and 113 basis functions
 A cutoff of  1.0D-14 yielded    749 shell pairs
 There are      6091 function pairs
 Smallest overlap matrix eigenvalue = 4.86E-03
 Guess from superposition of atomic densities
 Warning:  Energy on first SCF cycle will be non-variational
 SAD guess density has 58.000000 electrons

 -----------------------------------------------------------------------
  General SCF calculation program by
  Eric Jon Sundstrom, Paul Horn, Yuezhi Mao, Dmitri Zuev, Alec White,
  David Stuck, Shaama M.S., Shane Yost, Joonho Lee, David Small,
  Daniel Levine, Susi Lehtola, Hugh Burton, Evgeny Epifanovsky
 -----------------------------------------------------------------------
 Exchange:     0.2000 Hartree-Fock + 0.0800 Slater + 0.7200 B88
 Correlation:  0.1900 VWN1RPA + 0.8100 LYP
 Using SG-1 standard quadrature grid
 using 12 threads for integral computing
 -------------------------------------------------------
 OpenMP Integral computing Module                
 Release: version 1.0, May 2013, Q-Chem Inc. Pittsburgh 
 -------------------------------------------------------
 -------------------------------------------------------
 OpenMP BLAS3 based DFT computing Module                
 Release: version 1.0, May 2013, Q-Chem Inc. Pittsburgh 
 -------------------------------------------------------
 A unrestricted SCF calculation will be
 performed using DIIS
 SCF converges when DIIS error is below 1.0e-06
 Alpha HF Exchange    Energy =  -7.26900724600397
 Beta HF Exchange     Energy =  -7.26900724600397
 DFT Correlation      Energy =  -2.75761290841545
 DFT Exchange         Energy = -57.32541431901822
 One-Electron (alpha) Energy = -965.61733900639672
 One-Electron (beta)  Energy = -965.61733900639672
 Total Coulomb        Energy = 712.71378591142889
 ---------------------------------------
  Cycle       Energy         DIIS error
 ---------------------------------------
    1   -1038.6158873462      2.66e-02  
 Alpha HF Exchange    Energy =  -7.39990608457995
 Beta HF Exchange     Energy =  -7.17513133064872
 DFT Correlation      Energy =  -2.77670797412664
 DFT Exchange         Energy = -57.85814032338300
 One-Electron (alpha) Energy = -985.06633564058836
 One-Electron (beta)  Energy = -952.25903888315088
 Total Coulomb        Energy = 719.85382333990106
    2   -1038.1553904220      3.04e-03  
 Alpha HF Exchange    Energy =  -7.35669801067312
 Beta HF Exchange     Energy =  -7.14345280527828
 DFT Correlation      Energy =  -2.75514317158665
 DFT Exchange         Energy = -57.50841761990868
 One-Electron (alpha) Energy = -982.57477402385155
 One-Electron (beta)  Energy = -950.41818679780602
 Total Coulomb        Energy = 715.10415766727817
    3   -1038.1264682872      3.72e-03  
 Alpha HF Exchange    Energy =  -7.37343513098564
 Beta HF Exchange     Energy =  -7.14886288055459
 DFT Correlation      Energy =  -2.76366895188782
 DFT Exchange         Energy = -57.62086004593691
 One-Electron (alpha) Energy = -983.34623963159527
 One-Electron (beta)  Energy = -950.65873316621469
 Total Coulomb        Energy = 716.15595468766878
    4   -1038.2297986449      6.27e-04  
 Alpha HF Exchange    Energy =  -7.37960739495844
 Beta HF Exchange     Energy =  -7.15618928058185
 DFT Correlation      Energy =  -2.76479005224271
 DFT Exchange         Energy = -57.66920462276349
 One-Electron (alpha) Energy = -983.81369246958684
 One-Electron (beta)  Energy = -951.14698894320907
 Total Coulomb        Energy = 717.17191759473224
    5   -1038.2325086940      3.10e-04  
 Alpha HF Exchange    Energy =  -7.37916384335661
 Beta HF Exchange     Energy =  -7.15476569906851
 DFT Correlation      Energy =  -2.76436790638685
 DFT Exchange         Energy = -57.66197313119349
 One-Electron (alpha) Energy = -983.72931927067668
 One-Electron (beta)  Energy = -951.02575744397745
 Total Coulomb        Energy = 716.95598944563039
    6   -1038.2333113744      7.67e-05  
 Alpha HF Exchange    Energy =  -7.37890180960403
 Beta HF Exchange     Energy =  -7.15469803862221
 DFT Correlation      Energy =  -2.76420777120930
 DFT Exchange         Energy = -57.65989252246872
 One-Electron (alpha) Energy = -983.69964800237017
 One-Electron (beta)  Energy = -951.00890613811748
 Total Coulomb        Energy = 716.90684028417297
    7   -1038.2333675236      2.71e-05  
 Alpha HF Exchange    Energy =  -7.37910733761477
 Beta HF Exchange     Energy =  -7.15488273901042
 DFT Correlation      Energy =  -2.76419838273299
 DFT Exchange         Energy = -57.66124679617432
 One-Electron (alpha) Energy = -983.71094417036727
 One-Electron (beta)  Energy = -951.02036631095132
 Total Coulomb        Energy = 716.93132310687815
    8   -1038.2333761554      1.01e-05  
 Alpha HF Exchange    Energy =  -7.37911297853095
 Beta HF Exchange     Energy =  -7.15490559625437
 DFT Correlation      Energy =  -2.76418574051200
 DFT Exchange         Energy = -57.66127042040863
 One-Electron (alpha) Energy = -983.70758026699298
 One-Electron (beta)  Energy = -951.02112531079649
 Total Coulomb        Energy = 716.92875652086070
    9   -1038.2333773180      5.18e-06  
 Alpha HF Exchange    Energy =  -7.37909394016679
 Beta HF Exchange     Energy =  -7.15490361073208
 DFT Correlation      Energy =  -2.76417819957250
 DFT Exchange         Energy = -57.66118459833244
 One-Electron (alpha) Energy = -983.70610469634994
 One-Electron (beta)  Energy = -951.02069526982814
 Total Coulomb        Energy = 716.92673607864594
   10   -1038.2333777617      1.76e-06  
 Alpha HF Exchange    Energy =  -7.37910222894237
 Beta HF Exchange     Energy =  -7.15491088821389
 DFT Correlation      Energy =  -2.76417940880673
 DFT Exchange         Energy = -57.66124676020621
 One-Electron (alpha) Energy = -983.70649562891492
 One-Electron (beta)  Energy = -951.02163449386910
 Total Coulomb        Energy = 716.92814501066175
   11   -1038.2333779237      1.01e-06  
 Alpha HF Exchange    Energy =  -7.37909990787107
 Beta HF Exchange     Energy =  -7.15491156474294
 DFT Correlation      Energy =  -2.76417948916710
 DFT Exchange         Energy = -57.66124000062084
 One-Electron (alpha) Energy = -983.70632806287711
 One-Electron (beta)  Energy = -951.02179018303127
 Total Coulomb        Energy = 716.92812472657522
   12   -1038.2333780071      6.27e-07  Convergence criterion met
 ---------------------------------------
 SCF time:   CPU 30.00s  wall 2.00s 
<S^2> =          2.009543859
 Alpha HF Exchange    Energy =  -7.37909990787107
 Beta HF Exchange     Energy =  -7.15491156474294
 DFT Correlation      Energy =  -2.76417948916710
 DFT Exchange         Energy = -57.66124000062084
 One-Electron (alpha) Energy = -983.70632806287711
 One-Electron (beta)  Energy = -951.02179018303127
 Total Coulomb        Energy = 716.92812472657522
 Nuclear repulsion Energy = 254.52604647460899
 SCF   energy in the final basis set =    -1038.2333780071
 Total energy in the final basis set =    -1038.2333780071
 
 --------------------------------------------------------------
 
                    Orbital Energies (a.u.)
 --------------------------------------------------------------
 
 Alpha MOs
 -- Occupied --
*******-101.527 -10.261 -10.244 -10.214  -9.475  -9.440  -7.239
 -7.234  -7.228  -7.211  -7.193  -7.193  -0.871  -0.812  -0.776
 -0.723  -0.606  -0.513  -0.471  -0.457  -0.415  -0.409  -0.395
 -0.377  -0.324  -0.295  -0.291  -0.288  -0.243
 -- Virtual --
 -0.014   0.082   0.098   0.122   0.143   0.150   0.157   0.236
  0.288   0.358   0.384   0.417   0.428   0.434   0.483   0.496
  0.501   0.528   0.544   0.557   0.579   0.593   0.614   0.680
  0.705   0.717   0.774   0.814   0.825   0.832   0.847   0.857
  0.870   0.875   0.892   0.896   0.902   0.912   0.923   0.953
  1.031   1.051   1.125   1.245   1.276   1.359   1.426   1.501
  1.635   1.762   1.797   1.861   1.896   1.970   2.011   2.052
  2.079   2.089   2.156   2.247   2.319   2.335   2.408   2.418
  2.518   2.559   2.641   2.701   2.785   2.818   2.852   2.938
  3.143   3.252   3.368   3.390   3.423   3.517   4.148   4.244
  4.252   4.424   4.534
 
 Beta MOs
 -- Occupied --
*******-101.521 -10.262 -10.233 -10.214  -9.471  -9.435  -7.232
 -7.226  -7.225  -7.193  -7.190  -7.189  -0.852  -0.789  -0.737
 -0.715  -0.593  -0.508  -0.463  -0.438  -0.407  -0.395  -0.390
 -0.329  -0.316  -0.282  -0.278
 -- Virtual --
 -0.173  -0.125   0.013   0.085   0.100   0.125   0.147   0.156
  0.162   0.244   0.295   0.367   0.400   0.422   0.439   0.445
  0.488   0.508   0.517   0.544   0.556   0.574   0.594   0.616
  0.630   0.688   0.715   0.729   0.789   0.824   0.835   0.845
  0.862   0.875   0.890   0.900   0.907   0.916   0.919   0.927
  0.935   0.981   1.058   1.071   1.134   1.257   1.291   1.383
  1.433   1.501   1.640   1.778   1.810   1.874   1.904   1.993
  2.015   2.057   2.083   2.093   2.169   2.252   2.325   2.341
  2.417   2.429   2.530   2.566   2.645   2.709   2.789   2.823
  2.858   2.943   3.147   3.255   3.373   3.394   3.424   3.521
  4.165   4.259   4.266   4.425   4.544
 --------------------------------------------------------------
 
          Ground-State Mulliken Net Atomic Charges

     Atom                 Charge (a.u.)    Spin (a.u.)
  --------------------------------------------------------
      1 Cl                   -0.212509       0.764501
      2 Cl                   -0.058305       0.477316
      3 C                    -0.002210       0.815001
      4 C                    -0.290444      -0.049848
      5 C                    -0.354032      -0.059946
      6 H                     0.127339      -0.036101
      7 H                     0.183123       0.007129
      8 H                     0.191784       0.005692
      9 H                     0.151311       0.051969
     10 H                     0.134691       0.017978
     11 H                     0.129252       0.006309
  --------------------------------------------------------
  Sum of atomic charges =     0.000000
  Sum of spin   charges =     2.000000

 -----------------------------------------------------------------
                    Cartesian Multipole Moments
 -----------------------------------------------------------------
    Charge (ESU x 10^10)
                -0.0000
    Dipole Moment (Debye)
         X      -2.1671      Y      -4.7153      Z       0.6536
       Tot       5.2305
    Quadrupole Moments (Debye-Ang)
        XX     -45.1008     XY      -3.4843     YY     -52.8537
        XZ       1.2280     YZ       2.8228     ZZ     -45.7481
    Octopole Moments (Debye-Ang^2)
       XXX     -45.2774    XXY     -42.9253    XYY     -22.9960
       YYY    -148.0373    XXZ      19.5934    XYZ       6.0376
       YYZ      29.7094    XZZ     -14.1844    YZZ     -42.1287
       ZZZ      53.3918
    Hexadecapole Moments (Debye-Ang^3)
      XXXX    -216.5913   XXXY    -180.7445   XXYY    -235.6898
      XYYY    -193.8539   YYYY   -1215.1916   XXXZ      51.9300
      XXYZ      69.0204   XYYZ      26.7202   YYYZ     215.3304
      XXZZ     -91.8010   XYZZ     -62.1784   YYZZ    -248.5176
      XZZZ      51.4576   YZZZ     188.0490   ZZZZ    -318.7525
 -----------------------------------------------------------------
 Calculating analytic gradient of the SCF energy
 Gradient of SCF Energy
            1           2           3           4           5           6
    1  -0.0007989  -0.0019286   0.0117128  -0.0104794   0.0008018   0.0002726
    2  -0.0017910  -0.0038732   0.0223787  -0.0111301   0.0011655   0.0009033
    3   0.0008624  -0.0010565  -0.0136318   0.0128023  -0.0008219  -0.0006523
            7           8           9          10          11
    1  -0.0003902   0.0008147   0.0001239  -0.0001559   0.0000273
    2  -0.0008605  -0.0067542   0.0000113   0.0001360  -0.0001858
    3   0.0000986   0.0024156   0.0000262  -0.0000909   0.0000483
 Max gradient component =       2.238E-02
 RMS gradient           =       6.284E-03
 Gradient time:  CPU 8.68 s  wall 0.73 s
 Geometry Optimization Parameters
   NAtoms,    NIC,     NZ,  NCons,   NDum,   NFix, NCnnct, MaxDiis
       11      71       0       1       0       0       0       0

 Cartesian Hessian Update
 Hessian Updated using BFGS Update


** CONSTRAINED OPTIMIZATION IN DELOCALIZED INTERNAL COORDINATES **
   Searching for a Minimum

   Optimization Cycle:   2

                       Coordinates (Angstroms)
     ATOM                X               Y               Z
      1  Cl        1.0115811347    3.0351235148   -1.6421764334
      2  Cl        0.6830206017    1.3797133979    0.5156457189
      3  C        -0.9027920159   -0.8349135849   -0.0503662094
      4  C        -0.2808264757    0.1853399588   -0.7750446336
      5  C        -0.1988344545   -2.0667493846    0.3954612536
      6  H        -1.8997522499   -0.6439150037    0.3399492796
      7  H         0.5526520894   -0.1016892690   -1.4118728142
      8  H        -0.9475473613    0.8893198716   -1.2455034177
      9  H         0.1647895259   -1.9507236563    1.4291373510
     10  H        -0.8715682141   -2.9311949541    0.3994683369
     11  H         0.6695744199   -2.2949108905   -0.2298974317
   Point Group: c1    Number of degrees of freedom:    27


   Energy is  -1038.233378007

              Constraints and their Current Values
                                        Value     Constraint
   Distance(Angs):        1   3             4.601725     4.600000
 Hessian Updated using BFGS Update

   Using Lagrange Multiplier Algorithm


 27 Hessian modes will be used to form the next step
  Hessian Eigenvalues:
    -0.964943    0.044957    0.045001    0.045329    0.048003    0.057206
     0.076942    0.083114    0.089002    0.092172    0.094470    0.123630
     0.140652    0.152323    0.159105    0.160000    0.160116    0.220808
     0.334730    0.337324    0.339881    0.341996    0.343316    0.350959
     0.351049    0.440225    1.052894

 Minimum Search - Taking P-RFO Step
 Searching for Lamda that Maximizes Along the Constraint modes Only
 Value Taken    Lamda =   0.00012530
 Searching for Lamda that Minimizes Along All other modes
 Value Taken    Lamda =  -0.00131622
 Step Taken.  Stepsize is  0.073406

                             Maximum     Tolerance    Cnvgd?
         Gradient            0.014297       0.000300      NO
         Displacement        0.041933       0.001200      NO
         Energy change      0.001535       0.000001      NO


 New Cartesian Coordinates Obtained by Inverse Iteration

 Displacement from previous Coordinates is:  0.083006
 ----------------------------------------------------------------
             Standard Nuclear Orientation (Angstroms)
    I     Atom           X                Y                Z
 ----------------------------------------------------------------
    1      Cl      1.0058983175     3.0243644505    -1.6500839752
    2      Cl      0.6878826674     1.3970866846     0.5155814827
    3      C      -0.9040613497    -0.8409670739    -0.0465646821
    4      C      -0.2766792950     0.1963710089    -0.7779394386
    5      C      -0.2014320249    -2.0749038752     0.3978984133
    6      H      -1.9017560008    -0.6557286725     0.3454085759
    7      H       0.5581889979    -0.0868366084    -1.4148514050
    8      H      -0.9423725604     0.9080778941    -1.2493022133
    9      H       0.1594745585    -1.9615949294     1.4327515071
   10      H      -0.8733540410    -2.9400166813     0.3981301218
   11      H       0.6685077305    -2.3004521975    -0.2262273866
 ----------------------------------------------------------------
 Nuclear Repulsion Energy =   254.1859092735 hartrees
 There are       30 alpha and       28 beta electrons

                       Distance Matrix (Angstroms)
             Cl(  1)   Cl(  2)   C (  3)   C (  4)   C (  5)   H (  6)
   Cl(  2)  2.727503
   C (  3)  4.600001  2.803423
   C (  4)  3.225397  2.011292  1.415835
   C (  5)  5.626226  3.586007  1.487896  2.558700
   H (  6)  5.097012  3.308963  1.087819  2.151478  2.215381
   H (  7)  3.152039  2.438323  2.139883  1.087598  2.795621  3.077902
   H (  8)  2.904316  2.451872  2.123018  1.082523  3.487183  2.430846
   H (  9)  5.922845  3.521528  2.138993  3.119968  1.101823  2.671380
   H ( 10)  6.580320  4.611043  2.145858  3.402365  1.095399  2.505666
   H ( 11)  5.522216  3.771266  2.152986  2.726149  1.094166  3.104535
             H (  7)   H (  8)   H (  9)   H ( 10)
   H (  8)  1.808023
   H (  9)  3.432570  4.079522
   H ( 10)  3.671083  4.186482  1.759115
   H ( 11)  2.514973  3.733133  1.768092  1.782190
 
 Applying Cartesian multipole field
    Component          Value
    ---------          -----
     (2,0,0)        1.00000E-11
     (0,2,0)        2.00000E-11
     (0,0,2)       -3.00000E-11
 Nucleus-field energy     =     0.0000000117 hartrees
 Requested basis set is 6-31G(d,p)
 There are 40 shells and 113 basis functions
 A cutoff of  1.0D-14 yielded    749 shell pairs
 There are      6091 function pairs
 Smallest overlap matrix eigenvalue = 5.10E-03
 Guess from superposition of atomic densities
 Warning:  Energy on first SCF cycle will be non-variational
 SAD guess density has 58.000000 electrons

 -----------------------------------------------------------------------
  General SCF calculation program by
  Eric Jon Sundstrom, Paul Horn, Yuezhi Mao, Dmitri Zuev, Alec White,
  David Stuck, Shaama M.S., Shane Yost, Joonho Lee, David Small,
  Daniel Levine, Susi Lehtola, Hugh Burton, Evgeny Epifanovsky
 -----------------------------------------------------------------------
 Exchange:     0.2000 Hartree-Fock + 0.0800 Slater + 0.7200 B88
 Correlation:  0.1900 VWN1RPA + 0.8100 LYP
 Using SG-1 standard quadrature grid
 using 12 threads for integral computing
 -------------------------------------------------------
 OpenMP Integral computing Module                
 Release: version 1.0, May 2013, Q-Chem Inc. Pittsburgh 
 -------------------------------------------------------
 -------------------------------------------------------
 OpenMP BLAS3 based DFT computing Module                
 Release: version 1.0, May 2013, Q-Chem Inc. Pittsburgh 
 -------------------------------------------------------
 A unrestricted SCF calculation will be
 performed using DIIS
 SCF converges when DIIS error is below 1.0e-06
 Alpha HF Exchange    Energy =  -7.26597641396896
 Beta HF Exchange     Energy =  -7.26597641396896
 DFT Correlation      Energy =  -2.75702407784763
 DFT Exchange         Energy = -57.31936238594346
 One-Electron (alpha) Energy = -965.29309816892965
 One-Electron (beta)  Energy = -965.29309816892965
 Total Coulomb        Energy = 712.42045483869526
 ---------------------------------------
  Cycle       Energy         DIIS error
 ---------------------------------------
    1   -1038.5881715056      2.63e-02  
 Alpha HF Exchange    Energy =  -7.39807838375761
 Beta HF Exchange     Energy =  -7.17397142675246
 DFT Correlation      Energy =  -2.77585207660255
 DFT Exchange         Energy = -57.84671807054697
 One-Electron (alpha) Energy = -984.68825495019541
 One-Electron (beta)  Energy = -951.95545620718553
 Total Coulomb        Energy = 719.49420625916161
    2   -1038.1582155706      3.00e-03  
 Alpha HF Exchange    Energy =  -7.35541172168423
 Beta HF Exchange     Energy =  -7.14232470561809
 DFT Correlation      Energy =  -2.75464112160416
 DFT Exchange         Energy = -57.50056428625250
 One-Electron (alpha) Energy = -982.23765070855893
 One-Electron (beta)  Energy = -950.12156030919698
 Total Coulomb        Energy = 714.79514723762088
    3   -1038.1310963300      3.66e-03  
 Alpha HF Exchange    Energy =  -7.37199554251344
 Beta HF Exchange     Energy =  -7.14785043220879
 DFT Correlation      Energy =  -2.76297729459378
 DFT Exchange         Energy = -57.61210755221990
 One-Electron (alpha) Energy = -982.98956485789722
 One-Electron (beta)  Energy = -950.36122583925271
 Total Coulomb        Energy = 715.82915486313402
    4   -1038.2306573703      6.26e-04  
 Alpha HF Exchange    Energy =  -7.37806959652826
 Beta HF Exchange     Energy =  -7.15508172463251
 DFT Correlation      Energy =  -2.76406919194098
 DFT Exchange         Energy = -57.65969999038875
 One-Electron (alpha) Energy = -983.45200216111971
 One-Electron (beta)  Energy = -950.84395776062286
 Total Coulomb        Energy = 716.83360150088424
    5   -1038.2333696391      3.10e-04  
 Alpha HF Exchange    Energy =  -7.37768194968189
 Beta HF Exchange     Energy =  -7.15370355497064
 DFT Correlation      Energy =  -2.76366582477494
 DFT Exchange         Energy = -57.65288698770171
 One-Electron (alpha) Energy = -983.37161708491124
 One-Electron (beta)  Energy = -950.72667462157722
 Total Coulomb        Energy = 716.62614519758733
    6   -1038.2341755408      7.66e-05  
 Alpha HF Exchange    Energy =  -7.37740654139637
 Beta HF Exchange     Energy =  -7.15360405626646
 DFT Correlation      Energy =  -2.76349118940946
 DFT Exchange         Energy = -57.65060894110747
 One-Electron (alpha) Energy = -983.33956035141591
 One-Electron (beta)  Energy = -950.70714887520478
 Total Coulomb        Energy = 716.57167909723319
    7   -1038.2342315723      2.73e-05  
 Alpha HF Exchange    Energy =  -7.37761432226963
 Beta HF Exchange     Energy =  -7.15379452484031
 DFT Correlation      Energy =  -2.76348587061004
 DFT Exchange         Energy = -57.65200359984098
 One-Electron (alpha) Energy = -983.35160130711961
 One-Electron (beta)  Energy = -950.71926401805706
 Total Coulomb        Energy = 716.59761423963027
    8   -1038.2342401178      1.08e-05  
 Alpha HF Exchange    Energy =  -7.37762473812692
 Beta HF Exchange     Energy =  -7.15381396364245
 DFT Correlation      Energy =  -2.76347139503658
 DFT Exchange         Energy = -57.65202930680914
 One-Electron (alpha) Energy = -983.34818589107135
 One-Electron (beta)  Energy = -950.71971138977608
 Total Coulomb        Energy = 716.59468606601445
    9   -1038.2342413332      5.25e-06  
 Alpha HF Exchange    Energy =  -7.37760490830330
 Beta HF Exchange     Energy =  -7.15381313083315
 DFT Correlation      Energy =  -2.76346423317157
 DFT Exchange         Energy = -57.65194403682313
 One-Electron (alpha) Energy = -983.34668257868236
 One-Electron (beta)  Energy = -950.71936602195262
 Total Coulomb        Energy = 716.59272386272926
   10   -1038.2342417618      1.73e-06  
 Alpha HF Exchange    Energy =  -7.37761307263386
 Beta HF Exchange     Energy =  -7.15381985071948
 DFT Correlation      Energy =  -2.76346517936602
 DFT Exchange         Energy = -57.65200348387062
 One-Electron (alpha) Energy = -983.34706697955914
 One-Electron (beta)  Energy = -950.72025047001955
 Total Coulomb        Energy = 716.59406784343719
   11   -1038.2342419075      9.77e-07  Convergence criterion met
 ---------------------------------------
 SCF time:   CPU 26.85s  wall 2.00s 
<S^2> =          2.009547917
 Alpha HF Exchange    Energy =  -7.37761307263386
 Beta HF Exchange     Energy =  -7.15381985071948
 DFT Correlation      Energy =  -2.76346517936602
 DFT Exchange         Energy = -57.65200348387062
 One-Electron (alpha) Energy = -983.34706697955914
 One-Electron (beta)  Energy = -950.72025047001955
 Total Coulomb        Energy = 716.59406784343719
 Nuclear repulsion Energy = 254.18590928527655
 SCF   energy in the final basis set =    -1038.2342419075
 Total energy in the final basis set =    -1038.2342419075
 
 --------------------------------------------------------------
 
                    Orbital Energies (a.u.)
 --------------------------------------------------------------
 
 Alpha MOs
 -- Occupied --
*******-101.526 -10.264 -10.246 -10.214  -9.475  -9.439  -7.239
 -7.234  -7.228  -7.210  -7.192  -7.192  -0.868  -0.811  -0.775
 -0.722  -0.607  -0.511  -0.470  -0.456  -0.415  -0.409  -0.395
 -0.377  -0.325  -0.295  -0.291  -0.287  -0.243
 -- Virtual --
 -0.017   0.081   0.099   0.121   0.141   0.149   0.156   0.234
  0.285   0.357   0.383   0.418   0.428   0.434   0.481   0.497
  0.500   0.528   0.544   0.554   0.579   0.594   0.615   0.682
  0.702   0.714   0.772   0.814   0.825   0.831   0.846   0.857
  0.870   0.876   0.891   0.896   0.901   0.912   0.922   0.955
  1.033   1.048   1.122   1.245   1.274   1.357   1.422   1.497
  1.635   1.760   1.797   1.852   1.884   1.965   2.010   2.051
  2.075   2.088   2.146   2.241   2.318   2.332   2.407   2.418
  2.512   2.552   2.636   2.696   2.780   2.817   2.846   2.931
  3.142   3.242   3.364   3.388   3.422   3.508   4.141   4.245
  4.251   4.423   4.529
 
 Beta MOs
 -- Occupied --
*******-101.521 -10.265 -10.235 -10.215  -9.471  -9.434  -7.232
 -7.227  -7.225  -7.193  -7.189  -7.189  -0.849  -0.788  -0.736
 -0.714  -0.593  -0.506  -0.463  -0.438  -0.407  -0.395  -0.389
 -0.330  -0.316  -0.282  -0.278
 -- Virtual --
 -0.172  -0.125   0.011   0.085   0.101   0.125   0.146   0.156
  0.161   0.243   0.292   0.367   0.399   0.422   0.440   0.445
  0.486   0.507   0.518   0.544   0.557   0.571   0.593   0.617
  0.632   0.689   0.712   0.725   0.787   0.824   0.835   0.843
  0.862   0.874   0.890   0.900   0.906   0.916   0.919   0.927
  0.935   0.982   1.054   1.073   1.131   1.256   1.289   1.381
  1.429   1.497   1.639   1.777   1.808   1.866   1.894   1.988
  2.015   2.056   2.080   2.092   2.159   2.245   2.326   2.337
  2.416   2.428   2.524   2.560   2.640   2.704   2.783   2.822
  2.851   2.935   3.146   3.244   3.369   3.393   3.423   3.512
  4.158   4.258   4.266   4.423   4.540
 --------------------------------------------------------------
 
          Ground-State Mulliken Net Atomic Charges

     Atom                 Charge (a.u.)    Spin (a.u.)
  --------------------------------------------------------
      1 Cl                   -0.215243       0.760739
      2 Cl                   -0.058553       0.473307
      3 C                    -0.005720       0.824432
      4 C                    -0.288021      -0.050011
      5 C                    -0.353614      -0.060714
      6 H                     0.127738      -0.036469
      7 H                     0.184360       0.006566
      8 H                     0.193124       0.005389
      9 H                     0.151269       0.052242
     10 H                     0.135093       0.018173
     11 H                     0.129568       0.006347
  --------------------------------------------------------
  Sum of atomic charges =    -0.000000
  Sum of spin   charges =     2.000000

 -----------------------------------------------------------------
                    Cartesian Multipole Moments
 -----------------------------------------------------------------
    Charge (ESU x 10^10)
                -0.0000
    Dipole Moment (Debye)
         X      -2.1673      Y      -4.7381      Z       0.6765
       Tot       5.2540
    Quadrupole Moments (Debye-Ang)
        XX     -45.1317     XY      -3.4854     YY     -52.8887
        XZ       1.2336     YZ       2.8594     ZZ     -45.8002
    Octopole Moments (Debye-Ang^2)
       XXX     -45.2056    XXY     -43.0351    XYY     -23.1049
       YYY    -148.6355    XXZ      19.7453    XYZ       6.1680
       YYZ      30.1368    XZZ     -14.2306    YZZ     -42.3585
       ZZZ      53.7520
    Hexadecapole Moments (Debye-Ang^3)
      XXXX    -216.3213   XXXY    -180.5637   XXYY    -235.7713
      XYYY    -193.8841   YYYY   -1216.8030   XXXZ      51.9096
      XXYZ      69.2567   XYYZ      27.1272   YYYZ     216.8916
      XXZZ     -92.2612   XYZZ     -62.4052   YYZZ    -249.7319
      XZZZ      51.5834   YZZZ     188.7313   ZZZZ    -321.1632
 -----------------------------------------------------------------
 Calculating analytic gradient of the SCF energy
 Gradient of SCF Energy
            1           2           3           4           5           6
    1  -0.0010363  -0.0007250   0.0062086  -0.0038874  -0.0000117  -0.0000116
    2  -0.0023452  -0.0018872   0.0122886  -0.0041205   0.0001170   0.0000020
    3   0.0013354  -0.0002151  -0.0065674   0.0052404  -0.0000404  -0.0000919
            7           8           9          10          11
    1  -0.0001247  -0.0004203   0.0000513   0.0000221  -0.0000650
    2  -0.0003900  -0.0035691  -0.0000309  -0.0000722   0.0000074
    3  -0.0002195   0.0005509  -0.0000039   0.0000592  -0.0000478
 Max gradient component =       1.229E-02
 RMS gradient           =       3.105E-03
 Gradient time:  CPU 9.01 s  wall 0.76 s
 Geometry Optimization Parameters
   NAtoms,    NIC,     NZ,  NCons,   NDum,   NFix, NCnnct, MaxDiis
       11      71       0       1       0       0       0       0

 Cartesian Hessian Update
 Hessian Updated using BFGS Update


** CONSTRAINED OPTIMIZATION IN DELOCALIZED INTERNAL COORDINATES **
   Searching for a Minimum

   Optimization Cycle:   3

                       Coordinates (Angstroms)
     ATOM                X               Y               Z
      1  Cl        1.0058983175    3.0243644505   -1.6500839752
      2  Cl        0.6878826674    1.3970866846    0.5155814827
      3  C        -0.9040613497   -0.8409670739   -0.0465646821
      4  C        -0.2766792950    0.1963710089   -0.7779394386
      5  C        -0.2014320249   -2.0749038752    0.3978984133
      6  H        -1.9017560008   -0.6557286725    0.3454085759
      7  H         0.5581889979   -0.0868366084   -1.4148514050
      8  H        -0.9423725604    0.9080778941   -1.2493022133
      9  H         0.1594745585   -1.9615949294    1.4327515071
     10  H        -0.8733540410   -2.9400166813    0.3981301218
     11  H         0.6685077305   -2.3004521975   -0.2262273866
   Point Group: c1    Number of degrees of freedom:    27


   Energy is  -1038.234241907

              Constraints and their Current Values
                                        Value     Constraint
   Distance(Angs):        1   3             4.600001     4.600000
 Hessian Updated using BFGS Update

   Using Lagrange Multiplier Algorithm


 28 Hessian modes will be used to form the next step
  Hessian Eigenvalues:
    -0.951058    0.044789    0.044995    0.045330    0.046411    0.052311
     0.073243    0.079751    0.083985    0.092170    0.094483    0.123027
     0.140441    0.150014    0.159409    0.159997    0.160000    0.160934
     0.221379    0.324062    0.334735    0.338987    0.341995    0.343302
     0.347316    0.351000    0.353174    1.071185

 Minimum Search - Taking P-RFO Step
 Searching for Lamda that Maximizes Along the Constraint modes Only
 Value Taken    Lamda =   0.00000066
 Searching for Lamda that Minimizes Along All other modes
 Value Taken    Lamda =  -0.00050138
 Step Taken.  Stepsize is  0.079014

                             Maximum     Tolerance    Cnvgd?
         Gradient            0.003996       0.000300      NO
         Displacement        0.042912       0.001200      NO
         Energy change     -0.000864       0.000001      NO


 New Cartesian Coordinates Obtained by Inverse Iteration

 Displacement from previous Coordinates is:  0.094623
 ----------------------------------------------------------------
             Standard Nuclear Orientation (Angstroms)
    I     Atom           X                Y                Z
 ----------------------------------------------------------------
    1      Cl      1.0023057217     3.0076224965    -1.6687057488
    2      Cl      0.6901999722     1.4181405622     0.5158090695
    3      C      -0.9078137706    -0.8476624102    -0.0413661140
    4      C      -0.2747057030     0.2058043449    -0.7731285819
    5      C      -0.2023662448    -2.0817254506     0.3971533635
    6      H      -1.9068004748    -0.6657500106     0.3485615467
    7      H       0.5620572247    -0.0763271043    -1.4073141580
    8      H      -0.9343551726     0.9283996919    -1.2446221544
    9      H       0.1535588461    -1.9737922166     1.4342803611
   10      H      -0.8728414631    -2.9477748512     0.3884550061
   11      H       0.6710580643    -2.3015350519    -0.2243215899
 ----------------------------------------------------------------
 Nuclear Repulsion Energy =   253.8792573593 hartrees
 There are       30 alpha and       28 beta electrons

                       Distance Matrix (Angstroms)
             Cl(  1)   Cl(  2)   C (  3)   C (  4)   C (  5)   H (  6)
   Cl(  2)  2.719553
   C (  3)  4.600001  2.828066
   C (  4)  3.206712  2.015481  1.430418
   C (  5)  5.623208  3.613837  1.487571  2.570522
   H (  6)  5.101562  3.333914  1.087709  2.163684  2.216403
   H (  7)  3.126162  2.438905  2.149719  1.087181  2.803938  3.086386
   H (  8)  2.872920  2.445024  2.145443  1.086088  3.506007  2.454628
   H (  9)  5.929872  3.554825  2.138273  3.131566  1.101801  2.671112
   H ( 10)  6.573800  4.639023  2.143931  3.413518  1.095287  2.505654
   H ( 11)  5.512089  3.792644  2.154079  2.735399  1.094266  3.106339
             H (  7)   H (  8)   H (  9)   H ( 10)
   H (  8)  1.809750
   H (  9)  3.441207  4.096681
   H ( 10)  3.678170  4.206596  1.759514
   H ( 11)  2.522480  3.748445  1.768101  1.782343
 
 Applying Cartesian multipole field
    Component          Value
    ---------          -----
     (2,0,0)        1.00000E-11
     (0,2,0)        2.00000E-11
     (0,0,2)       -3.00000E-11
 Nucleus-field energy     =     0.0000000116 hartrees
 Requested basis set is 6-31G(d,p)
 There are 40 shells and 113 basis functions
 A cutoff of  1.0D-14 yielded    748 shell pairs
 There are      6079 function pairs
 Smallest overlap matrix eigenvalue = 5.28E-03
 Guess from superposition of atomic densities
 Warning:  Energy on first SCF cycle will be non-variational
 SAD guess density has 58.000000 electrons

 -----------------------------------------------------------------------
  General SCF calculation program by
  Eric Jon Sundstrom, Paul Horn, Yuezhi Mao, Dmitri Zuev, Alec White,
  David Stuck, Shaama M.S., Shane Yost, Joonho Lee, David Small,
  Daniel Levine, Susi Lehtola, Hugh Burton, Evgeny Epifanovsky
 -----------------------------------------------------------------------
 Exchange:     0.2000 Hartree-Fock + 0.0800 Slater + 0.7200 B88
 Correlation:  0.1900 VWN1RPA + 0.8100 LYP
 Using SG-1 standard quadrature grid
 using 12 threads for integral computing
 -------------------------------------------------------
 OpenMP Integral computing Module                
 Release: version 1.0, May 2013, Q-Chem Inc. Pittsburgh 
 -------------------------------------------------------
 -------------------------------------------------------
 OpenMP BLAS3 based DFT computing Module                
 Release: version 1.0, May 2013, Q-Chem Inc. Pittsburgh 
 -------------------------------------------------------
 A unrestricted SCF calculation will be
 performed using DIIS
 SCF converges when DIIS error is below 1.0e-06
 Alpha HF Exchange    Energy =  -7.26385916887251
 Beta HF Exchange     Energy =  -7.26385916887251
 DFT Correlation      Energy =  -2.75662046227410
 DFT Exchange         Energy = -57.31514122379490
 One-Electron (alpha) Energy = -964.99729346254776
 One-Electron (beta)  Energy = -964.99729346254776
 Total Coulomb        Energy = 712.14620177862992
 ---------------------------------------
  Cycle       Energy         DIIS error
 ---------------------------------------
    1   -1038.5686077994      2.61e-02  
 Alpha HF Exchange    Energy =  -7.39675729795935
 Beta HF Exchange     Energy =  -7.17318572967771
 DFT Correlation      Energy =  -2.77525103452783
 DFT Exchange         Energy = -57.83872900961695
 One-Electron (alpha) Energy = -984.34694690423271
 One-Electron (beta)  Energy = -951.68484231777893
 Total Coulomb        Energy = 719.17659727079104
    2   -1038.1598576521      2.97e-03  
 Alpha HF Exchange    Energy =  -7.35446813855877
 Beta HF Exchange     Energy =  -7.14156212241811
 DFT Correlation      Energy =  -2.75428703679002
 DFT Exchange         Energy = -57.49505672301935
 One-Electron (alpha) Energy = -981.92170148636058
 One-Electron (beta)  Energy = -949.85253563050026
 Total Coulomb        Energy = 714.50647190165421
    3   -1038.1338818651      3.61e-03  
 Alpha HF Exchange    Energy =  -7.37095240211010
 Beta HF Exchange     Energy =  -7.14716133065971
 DFT Correlation      Energy =  -2.76249298059906
 DFT Exchange         Energy = -57.60599973520218
 One-Electron (alpha) Energy = -982.66143010914311
 One-Electron (beta)  Energy = -950.09382364742737
 Total Coulomb        Energy = 715.53168196378510
    4   -1038.2309208705      6.27e-04  
 Alpha HF Exchange    Energy =  -7.37695401621159
 Beta HF Exchange     Energy =  -7.15433053921896
 DFT Correlation      Energy =  -2.76356290183931
 DFT Exchange         Energy = -57.65305258431775
 One-Electron (alpha) Energy = -983.12019528932581
 One-Electron (beta)  Energy = -950.57240316048387
 Total Coulomb        Energy = 716.52759451483382
    5   -1038.2336466057      3.10e-04  
 Alpha HF Exchange    Energy =  -7.37660854851010
 Beta HF Exchange     Energy =  -7.15298309746669
 DFT Correlation      Energy =  -2.76317325892887
 DFT Exchange         Energy = -57.64654658836336
 One-Electron (alpha) Energy = -983.04265153519714
 One-Electron (beta)  Energy = -950.45803337251311
 Total Coulomb        Energy = 716.32628157949262
    6   -1038.2344574506      7.65e-05  
 Alpha HF Exchange    Energy =  -7.37632406362498
 Beta HF Exchange     Energy =  -7.15286095776922
 DFT Correlation      Energy =  -2.76298847093533
 DFT Exchange         Energy = -57.64412850955014
 One-Electron (alpha) Energy = -983.00899305251744
 One-Electron (beta)  Energy = -950.43665288273144
 Total Coulomb        Energy = 716.26817710948296
    7   -1038.2345134568      2.75e-05  
 Alpha HF Exchange    Energy =  -7.37653248441684
 Beta HF Exchange     Energy =  -7.15305382732745
 DFT Correlation      Energy =  -2.76298574867711
 DFT Exchange         Energy = -57.64554244328531
 One-Electron (alpha) Energy = -983.02144149305127
 One-Electron (beta)  Energy = -950.44906742349190
 Total Coulomb        Energy = 716.29484409847555
    8   -1038.2345219509      1.14e-05  
 Alpha HF Exchange    Energy =  -7.37654739741904
 Beta HF Exchange     Energy =  -7.15307209016836
 DFT Correlation      Energy =  -2.76297044340514
 DFT Exchange         Energy = -57.64557891226657
 One-Electron (alpha) Energy = -983.01811266461937
 One-Electron (beta)  Energy = -950.44940641712310
 Total Coulomb        Energy = 716.29190732928339
    9   -1038.2345232248      5.26e-06  
 Alpha HF Exchange    Energy =  -7.37652679743061
 Beta HF Exchange     Energy =  -7.15307126290433
 DFT Correlation      Energy =  -2.76296328109736
 DFT Exchange         Energy = -57.64548995593938
 One-Electron (alpha) Energy = -983.01653942256848
 One-Electron (beta)  Energy = -950.44904868951278
 Total Coulomb        Energy = 716.28985839671407
   10   -1038.2345236419      1.69e-06  
 Alpha HF Exchange    Energy =  -7.37653500186303
 Beta HF Exchange     Energy =  -7.15307776021659
 DFT Correlation      Energy =  -2.76296416854222
 DFT Exchange         Energy = -57.64554876727191
 One-Electron (alpha) Energy = -983.01693971762836
 One-Electron (beta)  Energy = -950.44991254775255
 Total Coulomb        Energy = 716.29119681694658
   11   -1038.2345237755      9.45e-07  Convergence criterion met
 ---------------------------------------
 SCF time:   CPU 27.66s  wall 2.00s 
<S^2> =          2.009528690
 Alpha HF Exchange    Energy =  -7.37653500186303
 Beta HF Exchange     Energy =  -7.15307776021659
 DFT Correlation      Energy =  -2.76296416854222
 DFT Exchange         Energy = -57.64554876727191
 One-Electron (alpha) Energy = -983.01693971762836
 One-Electron (beta)  Energy = -950.44991254775255
 Total Coulomb        Energy = 716.29119681694658
 Nuclear repulsion Energy = 253.87925737087335
 SCF   energy in the final basis set =    -1038.2345237755
 Total energy in the final basis set =    -1038.2345237755
 
 --------------------------------------------------------------
 
                    Orbital Energies (a.u.)
 --------------------------------------------------------------
 
 Alpha MOs
 -- Occupied --
*******-101.526 -10.266 -10.248 -10.215  -9.476  -9.439  -7.239
 -7.235  -7.228  -7.210  -7.192  -7.192  -0.866  -0.811  -0.775
 -0.721  -0.608  -0.510  -0.469  -0.455  -0.415  -0.410  -0.396
 -0.377  -0.324  -0.295  -0.290  -0.286  -0.244
 -- Virtual --
 -0.019   0.081   0.100   0.121   0.140   0.148   0.156   0.233
  0.282   0.357   0.383   0.418   0.427   0.435   0.479   0.497
  0.500   0.527   0.544   0.552   0.579   0.595   0.617   0.682
  0.699   0.712   0.770   0.814   0.824   0.830   0.845   0.857
  0.870   0.876   0.890   0.896   0.900   0.912   0.923   0.956
  1.033   1.049   1.122   1.243   1.272   1.356   1.423   1.494
  1.632   1.759   1.796   1.843   1.876   1.963   2.010   2.049
  2.073   2.088   2.140   2.237   2.317   2.329   2.407   2.419
  2.508   2.548   2.631   2.691   2.777   2.816   2.842   2.925
  3.142   3.233   3.363   3.387   3.420   3.502   4.136   4.246
  4.250   4.421   4.526
 
 Beta MOs
 -- Occupied --
*******-101.520 -10.267 -10.236 -10.215  -9.472  -9.434  -7.232
 -7.227  -7.226  -7.192  -7.189  -7.188  -0.847  -0.788  -0.736
 -0.713  -0.593  -0.505  -0.462  -0.437  -0.408  -0.396  -0.389
 -0.330  -0.316  -0.282  -0.278
 -- Virtual --
 -0.171  -0.125   0.009   0.084   0.102   0.124   0.146   0.155
  0.159   0.242   0.289   0.366   0.399   0.422   0.440   0.445
  0.484   0.507   0.518   0.544   0.557   0.569   0.593   0.617
  0.633   0.690   0.710   0.723   0.785   0.824   0.836   0.841
  0.861   0.874   0.889   0.899   0.906   0.916   0.920   0.927
  0.935   0.983   1.051   1.076   1.130   1.255   1.286   1.380
  1.429   1.494   1.637   1.776   1.806   1.860   1.886   1.985
  2.015   2.054   2.077   2.091   2.153   2.241   2.325   2.334
  2.416   2.429   2.519   2.557   2.636   2.699   2.780   2.821
  2.848   2.929   3.145   3.236   3.368   3.391   3.422   3.506
  4.153   4.258   4.266   4.422   4.537
 --------------------------------------------------------------
 
          Ground-State Mulliken Net Atomic Charges

     Atom                 Charge (a.u.)    Spin (a.u.)
  --------------------------------------------------------
      1 Cl                   -0.217342       0.757659
      2 Cl                   -0.058905       0.469870
      3 C                    -0.008114       0.831755
      4 C                    -0.286689      -0.050162
      5 C                    -0.353495      -0.061328
      6 H                     0.128065      -0.036704
      7 H                     0.185210       0.006243
      8 H                     0.194425       0.005304
      9 H                     0.151327       0.052567
     10 H                     0.135473       0.018387
     11 H                     0.130045       0.006410
  --------------------------------------------------------
  Sum of atomic charges =    -0.000000
  Sum of spin   charges =     2.000000

 -----------------------------------------------------------------
                    Cartesian Multipole Moments
 -----------------------------------------------------------------
    Charge (ESU x 10^10)
                -0.0000
    Dipole Moment (Debye)
         X      -2.1691      Y      -4.7552      Z       0.7146
       Tot       5.2752
    Quadrupole Moments (Debye-Ang)
        XX     -45.1472     XY      -3.4855     YY     -52.8587
        XZ       1.2475     YZ       2.9184     ZZ     -45.9122
    Octopole Moments (Debye-Ang^2)
       XXX     -45.1098    XXY     -43.1093    XYY     -23.1270
       YYY    -148.8922    XXZ      20.0061    XYZ       6.2757
       YYZ      30.6265    XZZ     -14.2778    YZZ     -42.6032
       ZZZ      54.4771
    Hexadecapole Moments (Debye-Ang^3)
      XXXX    -216.2053   XXXY    -180.3092   XXYY    -235.4396
      XYYY    -193.7132   YYYY   -1215.5816   XXXZ      52.4876
      XXYZ      69.7137   XYYZ      27.7854   YYYZ     219.1700
      XXZZ     -93.1821   XYZZ     -62.6197   YYZZ    -251.0224
      XZZZ      52.2600   YZZZ     189.9061   ZZZZ    -325.6377
 -----------------------------------------------------------------
 Calculating analytic gradient of the SCF energy
 Gradient of SCF Energy
            1           2           3           4           5           6
    1  -0.0012761   0.0001105   0.0016868   0.0005603  -0.0001229  -0.0000607
    2  -0.0028076  -0.0000881   0.0035163   0.0003278  -0.0001919  -0.0001497
    3   0.0016975  -0.0000606  -0.0012198   0.0001382   0.0001246  -0.0000230
            7           8           9          10          11
    1  -0.0001371  -0.0008458   0.0000422  -0.0000065   0.0000492
    2  -0.0001186  -0.0005531   0.0000486   0.0000792  -0.0000631
    3  -0.0000515  -0.0005163  -0.0000435  -0.0000101  -0.0000354
 Max gradient component =       3.516E-03
 RMS gradient           =       9.691E-04
 Gradient time:  CPU 8.78 s  wall 0.74 s
 Geometry Optimization Parameters
   NAtoms,    NIC,     NZ,  NCons,   NDum,   NFix, NCnnct, MaxDiis
       11      71       0       1       0       0       0       0

 Cartesian Hessian Update
 Hessian Updated using BFGS Update


** CONSTRAINED OPTIMIZATION IN DELOCALIZED INTERNAL COORDINATES **
   Searching for a Minimum

   Optimization Cycle:   4

                       Coordinates (Angstroms)
     ATOM                X               Y               Z
      1  Cl        1.0023057217    3.0076224965   -1.6687057488
      2  Cl        0.6901999722    1.4181405622    0.5158090695
      3  C        -0.9078137706   -0.8476624102   -0.0413661140
      4  C        -0.2747057030    0.2058043449   -0.7731285819
      5  C        -0.2023662448   -2.0817254506    0.3971533635
      6  H        -1.9068004748   -0.6657500106    0.3485615467
      7  H         0.5620572247   -0.0763271043   -1.4073141580
      8  H        -0.9343551726    0.9283996919   -1.2446221544
      9  H         0.1535588461   -1.9737922166    1.4342803611
     10  H        -0.8728414631   -2.9477748512    0.3884550061
     11  H         0.6710580643   -2.3015350519   -0.2243215899
   Point Group: c1    Number of degrees of freedom:    27


   Energy is  -1038.234523775

              Constraints and their Current Values
                                        Value     Constraint
   Distance(Angs):        1   3             4.600001     4.600000
 Hessian Updated using BFGS Update

   Using Lagrange Multiplier Algorithm


 28 Hessian modes will be used to form the next step
  Hessian Eigenvalues:
    -0.949819    0.038870    0.044995    0.045244    0.045332    0.049220
     0.074018    0.079607    0.083992    0.092171    0.094487    0.122856
     0.140011    0.150100    0.159494    0.160000    0.160015    0.161108
     0.220987    0.334707    0.335539    0.340840    0.342024    0.343338
     0.350422    0.351071    0.367589    1.077439

 Minimum Search - Taking P-RFO Step
 Searching for Lamda that Maximizes Along the Constraint modes Only
 Value Taken    Lamda =   0.00000001
 Searching for Lamda that Minimizes Along All other modes
 Value Taken    Lamda =  -0.00002897
 Step Taken.  Stepsize is  0.026232

                             Maximum     Tolerance    Cnvgd?
         Gradient            0.000789       0.000300      NO
         Displacement        0.013223       0.001200      NO
         Energy change     -0.000282       0.000001      NO


 New Cartesian Coordinates Obtained by Inverse Iteration

 Displacement from previous Coordinates is:  0.037682
 ----------------------------------------------------------------
             Standard Nuclear Orientation (Angstroms)
    I     Atom           X                Y                Z
 ----------------------------------------------------------------
    1      Cl      1.0011364004     3.0013730140    -1.6790571184
    2      Cl      0.6898166538     1.4240195854     0.5168378824
    3      C      -0.9091504585    -0.8487388816    -0.0397150074
    4      C      -0.2743185508     0.2076920539    -0.7690028814
    5      C      -0.2027818426    -2.0830415655     0.3960153801
    6      H      -1.9087354792    -0.6676007089     0.3488769226
    7      H       0.5634503216    -0.0741658747    -1.4020644241
    8      H      -0.9305552688     0.9336893441    -1.2397325378
    9      H       0.1508364942    -1.9784478365     1.4342892536
   10      H      -0.8715260964    -2.9505013037     0.3829423218
   11      H       0.6721248262    -2.2988778264    -0.2245887915
 ----------------------------------------------------------------
 Nuclear Repulsion Energy =   253.7793164300 hartrees
 There are       30 alpha and       28 beta electrons

                       Distance Matrix (Angstroms)
             Cl(  1)   Cl(  2)   C (  3)   C (  4)   C (  5)   H (  6)
   Cl(  2)  2.721565
   C (  3)  4.600000  2.834057
   C (  4)  3.203067  2.015539  1.432103
   C (  5)  5.621976  3.620885  1.487387  2.570962
   H (  6)  5.103062  3.339994  1.087651  2.164974  2.217199
   H (  7)  3.118851  2.437768  2.150468  1.087229  2.802817  3.087015
   H (  8)  2.863521  2.439584  2.148849  1.085958  3.507990  2.458586
   H (  9)  5.934185  3.564969  2.138341  3.132804  1.101816  2.671755
   H ( 10)  6.571416  4.646736  2.144169  3.414355  1.095389  2.507708
   H ( 11)  5.506032  3.796049  2.153489  2.734051  1.094165  3.106569
             H (  7)   H (  8)   H (  9)   H ( 10)
   H (  8)  1.809469
   H (  9)  3.441140  4.098822
   H ( 10)  3.676780  4.209928  1.759387
   H ( 11)  2.519445  3.748145  1.768133  1.782292
 
 Applying Cartesian multipole field
    Component          Value
    ---------          -----
     (2,0,0)        1.00000E-11
     (0,2,0)        2.00000E-11
     (0,0,2)       -3.00000E-11
 Nucleus-field energy     =     0.0000000115 hartrees
 Requested basis set is 6-31G(d,p)
 There are 40 shells and 113 basis functions
 A cutoff of  1.0D-14 yielded    748 shell pairs
 There are      6079 function pairs
 Smallest overlap matrix eigenvalue = 5.30E-03
 Guess from superposition of atomic densities
 Warning:  Energy on first SCF cycle will be non-variational
 SAD guess density has 58.000000 electrons

 -----------------------------------------------------------------------
  General SCF calculation program by
  Eric Jon Sundstrom, Paul Horn, Yuezhi Mao, Dmitri Zuev, Alec White,
  David Stuck, Shaama M.S., Shane Yost, Joonho Lee, David Small,
  Daniel Levine, Susi Lehtola, Hugh Burton, Evgeny Epifanovsky
 -----------------------------------------------------------------------
 Exchange:     0.2000 Hartree-Fock + 0.0800 Slater + 0.7200 B88
 Correlation:  0.1900 VWN1RPA + 0.8100 LYP
 Using SG-1 standard quadrature grid
 using 12 threads for integral computing
 -------------------------------------------------------
 OpenMP Integral computing Module                
 Release: version 1.0, May 2013, Q-Chem Inc. Pittsburgh 
 -------------------------------------------------------
 -------------------------------------------------------
 OpenMP BLAS3 based DFT computing Module                
 Release: version 1.0, May 2013, Q-Chem Inc. Pittsburgh 
 -------------------------------------------------------
 A unrestricted SCF calculation will be
 performed using DIIS
 SCF converges when DIIS error is below 1.0e-06
 Alpha HF Exchange    Energy =  -7.26366462907138
 Beta HF Exchange     Energy =  -7.26366462907138
 DFT Correlation      Energy =  -2.75657636181089
 DFT Exchange         Energy = -57.31476117386552
 One-Electron (alpha) Energy = -964.89822405840903
 One-Electron (beta)  Energy = -964.89822405840903
 Total Coulomb        Energy = 712.04906746823576
 ---------------------------------------
  Cycle       Energy         DIIS error
 ---------------------------------------
    1   -1038.5667310009      2.61e-02  
 Alpha HF Exchange    Energy =  -7.39660642666762
 Beta HF Exchange     Energy =  -7.17310584646679
 DFT Correlation      Energy =  -2.77518159274622
 DFT Exchange         Energy = -57.83791904508245
 One-Electron (alpha) Energy = -984.23735004125444
 One-Electron (beta)  Energy = -951.59277492467402
 Total Coulomb        Energy = 719.07364264970545
    2   -1038.1599787857      2.97e-03  
 Alpha HF Exchange    Energy =  -7.35437039367200
 Beta HF Exchange     Energy =  -7.14154990932557
 DFT Correlation      Energy =  -2.75423954580024
 DFT Exchange         Energy = -57.49467423910586
 One-Electron (alpha) Energy = -981.81453302857199
 One-Electron (beta)  Energy = -949.76216119886180
 Total Coulomb        Energy = 714.40824234036597
    3   -1038.1339695335      3.61e-03  
 Alpha HF Exchange    Energy =  -7.37083050281340
 Beta HF Exchange     Energy =  -7.14710092752327
 DFT Correlation      Energy =  -2.76243319631149
 DFT Exchange         Energy = -57.60537907111317
 One-Electron (alpha) Energy = -982.55268018709660
 One-Electron (beta)  Energy = -950.00251333174788
 Total Coulomb        Energy = 715.43069077765324
    4   -1038.2309299974      6.27e-04  
 Alpha HF Exchange    Energy =  -7.37683079785650
 Beta HF Exchange     Energy =  -7.15428348080034
 DFT Correlation      Energy =  -2.76350158632357
 DFT Exchange         Energy = -57.65245054697752
 One-Electron (alpha) Energy = -983.01126085309579
 One-Electron (beta)  Energy = -950.48113734236370
 Total Coulomb        Energy = 716.42648587357212
    5   -1038.2336622923      3.11e-04  
 Alpha HF Exchange    Energy =  -7.37649063352688
[...]

 Minimum Search - Taking Simple RFO Step
 Searching for Lamda that Minimizes Along All modes
 Value Taken    Lamda =   0.00000000
 Step Taken.  Stepsize is  0.010158

                             Maximum     Tolerance    Cnvgd?
         Gradient           0.000111      0.000300     YES
         Displacement       0.005425      0.001200      NO
         Energy change     -0.000001      0.000001      NO


 New Cartesian Coordinates Obtained by Inverse Iteration

 Displacement from previous Coordinates is:  0.012041
 ----------------------------------------------------------------
             Standard Nuclear Orientation (Angstroms)
    I     Atom           X                Y                Z
 ----------------------------------------------------------------
    1      Cl      1.0147383480     2.9764895339    -1.7192341161
    2      Cl      0.6832251481     1.4468383133     0.5227771658
    3      C      -0.9066453811    -0.8453173776    -0.0274668313
    4      C      -0.2809925092     0.2099024630    -0.7604865755
    5      C      -0.2008251334    -2.0855187959     0.3914837475
    6      H      -1.9029681587    -0.6657813575     0.3703737636
    7      H       0.5603398288    -0.0649355627    -1.3915794417
    8      H      -0.9373826536     0.9379720114    -1.2262247923
    9      H       0.1231810363    -2.0093620488     1.4415593124
   10      H      -0.8628552399    -2.9570644522     0.3364534984
   11      H       0.6904817147    -2.2778227268    -0.2128547308
 ----------------------------------------------------------------
 Nuclear Repulsion Energy =   253.2401333312 hartrees
 There are       30 alpha and       28 beta electrons

                       Distance Matrix (Angstroms)
             Cl(  1)   Cl(  2)   C (  3)   C (  4)   C (  5)   H (  6)
   Cl(  2)  2.734291
   C (  3)  4.600000  2.843314
   C (  4)  3.201893  2.026448  1.429073
   C (  5)  5.617531  3.643670  1.487213  2.569518
   H (  6)  5.113278  3.342871  1.087736  2.162515  2.216617
   H (  7)  3.092588  2.442401  2.149848  1.087039  2.800258  3.087617
   H (  8)  2.865203  2.438098  2.148973  1.085286  3.507277  2.460388
   H (  9)  5.970277  3.619825  2.138593  3.152380  1.101562  2.656676
   H ( 10)  6.554256  4.671128  2.143322  3.401694  1.095858  2.516538
   H ( 11)  5.475593  3.796618  2.153429  2.726250  1.093908  3.108829
             H (  7)   H (  8)   H (  9)   H ( 10)
   H (  8)  1.810066
   H (  9)  3.463896  4.114444
   H ( 10)  3.657320  4.197479  1.758313
   H ( 11)  2.510617  3.744088  1.769460  1.782124
 
 Applying Cartesian multipole field
    Component          Value
    ---------          -----
     (2,0,0)        1.00000E-11
     (0,2,0)        2.00000E-11
     (0,0,2)       -3.00000E-11
 Nucleus-field energy     =     0.0000000112 hartrees
 Requested basis set is 6-31G(d,p)
 There are 40 shells and 113 basis functions
 A cutoff of  1.0D-14 yielded    747 shell pairs
 There are      6070 function pairs
 Smallest overlap matrix eigenvalue = 5.21E-03
 Guess from superposition of atomic densities
 Warning:  Energy on first SCF cycle will be non-variational
 SAD guess density has 58.000000 electrons

 -----------------------------------------------------------------------
  General SCF calculation program by
  Eric Jon Sundstrom, Paul Horn, Yuezhi Mao, Dmitri Zuev, Alec White,
  David Stuck, Shaama M.S., Shane Yost, Joonho Lee, David Small,
  Daniel Levine, Susi Lehtola, Hugh Burton, Evgeny Epifanovsky
 -----------------------------------------------------------------------
 Exchange:     0.2000 Hartree-Fock + 0.0800 Slater + 0.7200 B88
 Correlation:  0.1900 VWN1RPA + 0.8100 LYP
 Using SG-1 standard quadrature grid
 using 12 threads for integral computing
 -------------------------------------------------------
 OpenMP Integral computing Module                
 Release: version 1.0, May 2013, Q-Chem Inc. Pittsburgh 
 -------------------------------------------------------
 -------------------------------------------------------
 OpenMP BLAS3 based DFT computing Module                
 Release: version 1.0, May 2013, Q-Chem Inc. Pittsburgh 
 -------------------------------------------------------
 A unrestricted SCF calculation will be
 performed using DIIS
 SCF converges when DIIS error is below 1.0e-06
 Alpha HF Exchange    Energy =  -7.26326161951252
 Beta HF Exchange     Energy =  -7.26326161951252
 DFT Correlation      Energy =  -2.75633739114109
 DFT Exchange         Energy = -57.31404900605544
 One-Electron (alpha) Energy = -964.35802720478353
 One-Electron (beta)  Energy = -964.35802720478353
 Total Coulomb        Energy = 711.50969066088726
 ---------------------------------------
  Cycle       Energy         DIIS error
 ---------------------------------------
    1   -1038.5631400425      2.60e-02  
 Alpha HF Exchange    Energy =  -7.39661599315822
 Beta HF Exchange     Energy =  -7.17283362642173
 DFT Correlation      Energy =  -2.77503799909078
 DFT Exchange         Energy = -57.83762005270863
 One-Electron (alpha) Energy = -983.71803708348466
 One-Electron (beta)  Energy = -951.07038006331072
 Total Coulomb        Energy = 718.57001010628096
    2   -1038.1603813694      2.96e-03  
 Alpha HF Exchange    Energy =  -7.35430600478671
 Beta HF Exchange     Energy =  -7.14123675584875
 DFT Correlation      Energy =  -2.75405890848493
 DFT Exchange         Energy = -57.49336946413265
 One-Electron (alpha) Energy = -981.27021573078093
 One-Electron (beta)  Energy = -949.22244523042275
 Total Coulomb        Energy = 713.86118748066349
    3   -1038.1343112713      3.60e-03  
 Alpha HF Exchange    Energy =  -7.37072012816619
 Beta HF Exchange     Energy =  -7.14663598269066
 DFT Correlation      Energy =  -2.76227817390566
 DFT Exchange         Energy = -57.60389656358974
 One-Electron (alpha) Energy = -982.01865989198279
 One-Electron (beta)  Energy = -949.45937452413671
 Total Coulomb        Energy = 714.89064220665693
    4   -1038.2307897154      6.41e-04  
 Alpha HF Exchange    Energy =  -7.37677485111694
 Beta HF Exchange     Energy =  -7.15391891590415
 DFT Correlation      Energy =  -2.76334818310925
 DFT Exchange         Energy = -57.65135687169992
 One-Electron (alpha) Energy = -982.48076412464445
 One-Electron (beta)  Energy = -949.94437496781700
 Total Coulomb        Energy = 715.89674532903462
    5   -1038.2336592428      3.15e-04  
 Alpha HF Exchange    Energy =  -7.37645814781674
 Beta HF Exchange     Energy =  -7.15256556190206
 DFT Correlation      Energy =  -2.76296727128201
 DFT Exchange         Energy = -57.64501043922316
 One-Electron (alpha) Energy = -982.40533440112199
 One-Electron (beta)  Energy = -949.83026821101839
 Total Coulomb        Energy = 715.69796866306001
    6   -1038.2345020269      7.71e-05  
 Alpha HF Exchange    Energy =  -7.37616138497724
 Beta HF Exchange     Energy =  -7.15243374702093
 DFT Correlation      Energy =  -2.76277803704894
 DFT Exchange         Energy = -57.64249598993815
 One-Electron (alpha) Energy = -982.37068906289790
 One-Electron (beta)  Energy = -949.80761484009190
 Total Coulomb        Energy = 715.63748016648515
    7   -1038.2345595530      2.77e-05  
 Alpha HF Exchange    Energy =  -7.37637706661995
 Beta HF Exchange     Energy =  -7.15263118617165
 DFT Correlation      Energy =  -2.76277459257406
 DFT Exchange         Energy = -57.64394678899059
 One-Electron (alpha) Energy = -982.38339212977939
 One-Electron (beta)  Energy = -949.82023024623879
 Total Coulomb        Energy = 715.66465024568504
    8   -1038.2345684222      1.14e-05  
 Alpha HF Exchange    Energy =  -7.37639164261090
 Beta HF Exchange     Energy =  -7.15264982488122
 DFT Correlation      Energy =  -2.76275915101864
 DFT Exchange         Energy = -57.64398148108570
 One-Electron (alpha) Energy = -982.37994674384117
 One-Electron (beta)  Energy = -949.82054979060126
 Total Coulomb        Energy = 715.66157556566793
    9   -1038.2345697259      5.45e-06  
 Alpha HF Exchange    Energy =  -7.37637114118340
 Beta HF Exchange     Energy =  -7.15264899759726
 DFT Correlation      Energy =  -2.76275178473700
 DFT Exchange         Energy = -57.64389256309767
 One-Electron (alpha) Energy = -982.37839783241850
 One-Electron (beta)  Energy = -949.82018597544993
 Total Coulomb        Energy = 715.65954477923867
   10   -1038.2345701728      1.74e-06  
 Alpha HF Exchange    Energy =  -7.37637965679698
 Beta HF Exchange     Energy =  -7.15265562709769
 DFT Correlation      Energy =  -2.76275272225369
 DFT Exchange         Energy = -57.64395299773967
 One-Electron (alpha) Energy = -982.37880988257041
 One-Electron (beta)  Energy = -949.82107348918282
 Total Coulomb        Energy = 715.66092071578089
   11   -1038.2345703174      9.78e-07  Convergence criterion met
 ---------------------------------------
 SCF time:   CPU 27.23s  wall 3.00s 
<S^2> =          2.009751695
 Alpha HF Exchange    Energy =  -7.37637965679698
 Beta HF Exchange     Energy =  -7.15265562709769
 DFT Correlation      Energy =  -2.76275272225369
 DFT Exchange         Energy = -57.64395299773967
 One-Electron (alpha) Energy = -982.37880988257041
 One-Electron (beta)  Energy = -949.82107348918282
 Total Coulomb        Energy = 715.66092071578089
 Nuclear repulsion Energy = 253.24013334245109
 SCF   energy in the final basis set =    -1038.2345703174
 Total energy in the final basis set =    -1038.2345703174
 
 --------------------------------------------------------------
 
                    Orbital Energies (a.u.)
 --------------------------------------------------------------
 
 Alpha MOs
 -- Occupied --
*******-101.526 -10.266 -10.249 -10.215  -9.474  -9.439  -7.238
 -7.233  -7.227  -7.210  -7.192  -7.192  -0.864  -0.811  -0.775
 -0.721  -0.608  -0.510  -0.468  -0.455  -0.414  -0.409  -0.397
 -0.376  -0.323  -0.295  -0.291  -0.287  -0.245
 -- Virtual --
 -0.020   0.081   0.100   0.121   0.140   0.147   0.156   0.234
  0.285   0.357   0.383   0.419   0.427   0.435   0.479   0.496
  0.500   0.527   0.544   0.552   0.579   0.598   0.619   0.681
  0.700   0.712   0.768   0.814   0.824   0.830   0.845   0.857
  0.871   0.876   0.889   0.895   0.899   0.913   0.923   0.955
  1.030   1.049   1.124   1.244   1.268   1.357   1.425   1.492
  1.628   1.757   1.794   1.842   1.874   1.964   2.009   2.049
  2.072   2.089   2.140   2.238   2.317   2.332   2.405   2.419
  2.508   2.550   2.632   2.690   2.776   2.817   2.841   2.924
  3.141   3.234   3.366   3.386   3.421   3.503   4.135   4.244
  4.251   4.420   4.527
 
 Beta MOs
 -- Occupied --
*******-101.520 -10.266 -10.237 -10.216  -9.470  -9.434  -7.231
 -7.225  -7.224  -7.193  -7.189  -7.189  -0.845  -0.788  -0.736
 -0.714  -0.594  -0.505  -0.462  -0.438  -0.408  -0.395  -0.388
 -0.328  -0.315  -0.282  -0.278
 -- Virtual --
 -0.172  -0.127   0.009   0.084   0.102   0.124   0.145   0.154
  0.159   0.243   0.292   0.366   0.399   0.423   0.440   0.445
  0.484   0.507   0.517   0.543   0.557   0.569   0.594   0.618
  0.636   0.689   0.711   0.723   0.783   0.824   0.835   0.841
  0.862   0.873   0.890   0.898   0.905   0.917   0.919   0.928
  0.935   0.982   1.051   1.074   1.133   1.256   1.283   1.380
  1.432   1.492   1.633   1.774   1.804   1.858   1.884   1.987
  2.014   2.054   2.076   2.092   2.153   2.242   2.324   2.338
  2.415   2.429   2.519   2.559   2.636   2.699   2.779   2.821
  2.846   2.928   3.145   3.236   3.370   3.391   3.422   3.507
  4.152   4.257   4.267   4.421   4.537
 --------------------------------------------------------------
 
          Ground-State Mulliken Net Atomic Charges

     Atom                 Charge (a.u.)    Spin (a.u.)
  --------------------------------------------------------
      1 Cl                   -0.216566       0.758585
      2 Cl                   -0.065394       0.476394
      3 C                    -0.005237       0.823544
      4 C                    -0.286182      -0.049625
      5 C                    -0.354159      -0.060723
      6 H                     0.128361      -0.036334
      7 H                     0.185763       0.005829
      8 H                     0.195207       0.005561
      9 H                     0.151302       0.051277
     10 H                     0.136391       0.020387
     11 H                     0.130513       0.005107
  --------------------------------------------------------
  Sum of atomic charges =     0.000000
  Sum of spin   charges =     2.000000

 -----------------------------------------------------------------
                    Cartesian Multipole Moments
 -----------------------------------------------------------------
    Charge (ESU x 10^10)
                -0.0000
    Dipole Moment (Debye)
         X      -2.2097      Y      -4.7839      Z       0.7568
       Tot       5.3236
    Quadrupole Moments (Debye-Ang)
        XX     -45.1642     XY      -3.4776     YY     -52.6587
        XZ       1.2664     YZ       2.9602     ZZ     -46.0706
    Octopole Moments (Debye-Ang^2)
       XXX     -45.3374    XXY     -43.1373    XYY     -23.1996
       YYY    -148.5370    XXZ      20.5009    XYZ       6.3128
       YYZ      31.2423    XZZ     -14.5050    YZZ     -42.9157
       ZZZ      55.9849
    Hexadecapole Moments (Debye-Ang^3)
      XXXX    -217.5334   XXXY    -180.9349   XXYY    -234.3139
      XYYY    -193.6887   YYYY   -1205.9184   XXXZ      55.4950
      XXYZ      70.8492   XYYZ      29.2913   YYYZ     223.2097
      XXZZ     -95.6984   XYZZ     -62.8928   YYZZ    -252.6335
      XZZZ      55.0424   YZZZ     192.4972   ZZZZ    -337.7003
 -----------------------------------------------------------------
 Calculating analytic gradient of the SCF energy
 Gradient of SCF Energy
            1           2           3           4           5           6
    1  -0.0012289   0.0000080   0.0012761  -0.0000562  -0.0000115  -0.0000191
    2  -0.0025012   0.0000894   0.0024753  -0.0000826  -0.0000084  -0.0000245
    3   0.0011854   0.0000604  -0.0010609  -0.0001399  -0.0000479  -0.0000558
            7           8           9          10          11
    1   0.0000478  -0.0000173   0.0000096  -0.0000010  -0.0000075
    2   0.0000489   0.0000259  -0.0000093  -0.0000068  -0.0000067
    3   0.0000555   0.0000617  -0.0000206  -0.0000112  -0.0000267
 Max gradient component =       2.501E-03
 RMS gradient           =       7.409E-04
 Gradient time:  CPU 8.81 s  wall 0.75 s
 Geometry Optimization Parameters
   NAtoms,    NIC,     NZ,  NCons,   NDum,   NFix, NCnnct, MaxDiis
       11      71       0       1       0       0       0       0

 Cartesian Hessian Update
 Hessian Updated using BFGS Update


** CONSTRAINED OPTIMIZATION IN DELOCALIZED INTERNAL COORDINATES **
   Searching for a Minimum

   Optimization Cycle:  14

                       Coordinates (Angstroms)
     ATOM                X               Y               Z
      1  Cl        1.0147383480    2.9764895339   -1.7192341161
      2  Cl        0.6832251481    1.4468383133    0.5227771658
      3  C        -0.9066453811   -0.8453173776   -0.0274668313
      4  C        -0.2809925092    0.2099024630   -0.7604865755
      5  C        -0.2008251334   -2.0855187959    0.3914837475
      6  H        -1.9029681587   -0.6657813575    0.3703737636
      7  H         0.5603398288   -0.0649355627   -1.3915794417
      8  H        -0.9373826536    0.9379720114   -1.2262247923
      9  H         0.1231810363   -2.0093620488    1.4415593124
     10  H        -0.8628552399   -2.9570644522    0.3364534984
     11  H         0.6904817147   -2.2778227268   -0.2128547308
   Point Group: c1    Number of degrees of freedom:    27


   Energy is  -1038.234570317

              Constraints and their Current Values
                                        Value     Constraint
   Distance(Angs):        1   3             4.600000     4.600000
 Hessian Updated using BFGS Update

 26 Hessian modes will be used to form the next step
  Hessian Eigenvalues:
     0.001451    0.013211    0.021746    0.045228    0.046437    0.072273
     0.084135    0.085057    0.092138    0.094382    0.122378    0.124917
     0.142095    0.159955    0.160030    0.160587    0.161386    0.221572
     0.333100    0.334738    0.339729    0.341890    0.343363    0.350714
     0.350983    0.389426

 Minimum Search - Taking Simple RFO Step
 Searching for Lamda that Minimizes Along All modes
 Value Taken    Lamda =   0.00000000
 Step Taken.  Stepsize is  0.011062

                             Maximum     Tolerance    Cnvgd?
         Gradient           0.000063      0.000300     YES
         Displacement       0.005677      0.001200      NO
         Energy change     -0.000001      0.000001     YES


                       Distance Matrix (Angstroms)
             Cl(  1)   Cl(  2)   C (  3)   C (  4)   C (  5)   H (  6)
   Cl(  2)  2.734291
   C (  3)  4.600000  2.843314
   C (  4)  3.201893  2.026448  1.429073
   C (  5)  5.617531  3.643670  1.487213  2.569518
   H (  6)  5.113278  3.342871  1.087736  2.162515  2.216617
   H (  7)  3.092588  2.442401  2.149848  1.087039  2.800258  3.087617
   H (  8)  2.865203  2.438098  2.148973  1.085286  3.507277  2.460388
   H (  9)  5.970277  3.619825  2.138593  3.152380  1.101562  2.656676
   H ( 10)  6.554256  4.671128  2.143322  3.401694  1.095858  2.516538
   H ( 11)  5.475593  3.796618  2.153429  2.726250  1.093908  3.108829
             H (  7)   H (  8)   H (  9)   H ( 10)
   H (  8)  1.810066
   H (  9)  3.463896  4.114444
   H ( 10)  3.657320  4.197479  1.758313
   H ( 11)  2.510617  3.744088  1.769460  1.782124
 
 Final energy is   -1038.23457031741     


 ******************************
 **  OPTIMIZATION CONVERGED  **
 ******************************

                       Coordinates (Angstroms)
     ATOM                X               Y               Z
      1  Cl        1.0147383480    2.9764895339   -1.7192341161
      2  Cl        0.6832251481    1.4468383133    0.5227771658
      3  C        -0.9066453811   -0.8453173776   -0.0274668313
      4  C        -0.2809925092    0.2099024630   -0.7604865755
      5  C        -0.2008251334   -2.0855187959    0.3914837475
      6  H        -1.9029681587   -0.6657813575    0.3703737636
      7  H         0.5603398288   -0.0649355627   -1.3915794417
      8  H        -0.9373826536    0.9379720114   -1.2262247923
      9  H         0.1231810363   -2.0093620488    1.4415593124
     10  H        -0.8628552399   -2.9570644522    0.3364534984
     11  H         0.6904817147   -2.2778227268   -0.2128547308

Z-matrix Print:
$molecule
0 3
Cl
C  1 2.026448
H  2 1.085286 1 98.629596
H  2 1.087039 1 98.841760 3 114.920324 0
C  2 1.429073 1 109.524392 3 -122.511930 0
H  5 1.087736 2 117.822957 1 86.387287 0
C  5 1.487213 2 123.536697 1 -84.167470 0
H  7 1.093908 5 112.189010 2 -21.330133 0
H  7 1.095858 5 111.245138 2 -143.659501 0
H  7 1.101562 5 110.516452 2 98.508957 0
Cl 1 2.734291 2 83.103184 3 -49.624319 0
$end

PES scan, value:    4.6000 energy: -1038.2345703174
------- Summary of potential scan: ------ 
    4.6000     -1038.2345703174
----------------------------------------- 
Archival summary:
1\1\hpc0332\JobtypUnspecified\ProcedureUnspecified\6-31G**\l236(3)\knomura\TueMar1203:13:402019TueMar1203:13:402019\0\\#,JobtypUnspecified,ProcedureUnspecified,6-31G**,\\0,3\Cl\C,1,2.02645\H,2,1.08529,1,98.6296\H,2,1.08704,1,98.8418,3,114.92,0\C,2,1.42907,1,109.524,3,-122.512,0\H,5,1.08774,2,117.823,1,86.3873,0\C,5,1.48721,2,123.537,1,-84.1675,0\H,7,1.09391,5,112.189,2,-21.3301,0\H,7,1.09586,5,111.245,2,-143.66,0\H,7,1.10156,5,110.516,2,98.509,0\Cl,1,2.73429,2,83.1032,3,-49.6243,0\\\@

 Total job time:  49.57s(wall), 579.53s(cpu) 
 Tue Mar 12 03:13:40 2019

        *************************************************************
        *                                                           *
        *  Thank you very much for using Q-Chem.  Have a nice day.  *
        *                                                           *
        *************************************************************


