
Running Job 1 of 1 ruruma/CH3CHClCH2Cl_afterGeo_middle_singlet.xyz.data/inputs/bond_triplet_2.5.in
qchem ruruma/CH3CHClCH2Cl_afterGeo_middle_singlet.xyz.data/inputs/bond_triplet_2.5.in_28414.0 /staging/scratch/2858534/qchem28414/ 1
/usr/usc/qchem/5.1.1/exe/qcprog.exe_s ruruma/CH3CHClCH2Cl_afterGeo_middle_singlet.xyz.data/inputs/bond_triplet_2.5.in_28414.0 /staging/scratch/2858534/qchem28414/
Check license passed

                  Welcome to Q-Chem
     A Quantum Leap Into The Future Of Chemistry


 Q-Chem 5.1, Q-Chem, Inc., Pleasanton, CA (2018)

 Yihan Shao,  Zhengting Gan,  E. Epifanovsky,  A. T. B. Gilbert,  M. Wormit,  
 J. Kussmann,  A. W. Lange,  A. Behn,  Jia Deng,  Xintian Feng,  D. Ghosh,  
 M. Goldey,  P. R. Horn,  L. D. Jacobson,  I. Kaliman,  T. Kus,  A. Landau,  
 Jie Liu,  E. I. Proynov,  R. M. Richard,  R. P. Steele,  E. J. Sundstrom,  
 H. L. Woodcock III,  P. M. Zimmerman,  D. Zuev,  B. Albrecht,  E. Alguire,  
 S. A. Baeppler,  D. Barton,  Z. Benda,  Y. A. Bernard,  E. J. Berquist,  
 K. B. Bravaya,  H. Burton,  D. Casanova,  Chun-Min Chang,  Yunqing Chen,  
 A. Chien,  K. D. Closser,  M. P. Coons,  S. Coriani,  S. Dasgupta,  
 A. L. Dempwolff,  M. Diedenhofen,  Hainam Do,  R. G. Edgar,  Po-Tung Fang,  
 S. Faraji,  S. Fatehi,  Qingguo Feng,  K. D. Fenk,  J. Fosso-Tande,  
 Qinghui Ge,  A. Ghysels,  G. Gidofalvi,  J. Gomes,  J. Gonthier,  A. Gunina,  
 D. Hait,  M. W. D. Hanson-Heine,  P. H. P. Harbach,  A. W. Hauser,  
 J. E. Herr,  E. G. Hohenstein,  Z. C. Holden,  Kerwin Hui,  B. C. Huynh,  
 T.-C. Jagau,  Hyunjun Ji,  B. Kaduk,  K. Khistyaev,  Jaehoon Kim,  
 P. Klunzinger,  K. Koh,  D. Kosenkov,  L. Koulias,  T. Kowalczyk,  
 C. M. Krauter,  A. Kunitsa,  Ka Un Lao,  A. Laurent,  K. V. Lawler,  
 Joonho Lee,  D. Lefrancois,  S. Lehtola,  D. S. Levine,  Yi-Pei Li,  
 You-Sheng Lin,  Fenglai Liu,  E. Livshits,  A. Luenser,  P. Manohar,  
 E. Mansoor,  S. F. Manzer,  Shan-Ping Mao,  Yuezhi Mao,  N. Mardirossian,  
 A. V. Marenich,  T. Markovich,  L. A. Martinez-Martinez,  S. A. Maurer,  
 N. J. Mayhall,  S. C. McKenzie,  J.-M. Mewes,  A. F. Morrison,  
 J. W. Mullinax,  K. Nanda,  T. S. Nguyen-Beck,  R. Olivares-Amaya,  
 J. A. Parkhill,  T. M. Perrine,  F. Plasser,  P. Pokhilko,  S. Prager,  
 A. Prociuk,  E. Ramos,  D. R. Rehn,  F. Rob,  M. Schneider,  N. Sergueev,  
 S. M. Sharada,  S. Sharma,  D. W. Small,  T. Stauch,  T. Stein,  
 Yu-Chuan Su,  A. J. W. Thom,  A. Tkatchenko,  T. Tsuchimochi,  N. M. Tubman,  
 L. Vogt,  M. L. Vidal,  O. Vydrov,  M. A. Watson,  J. Wenzel,  
 M. de Wergifosse,  T. A. Wesolowski,  A. White,  J. Witte,  A. Yamada,  
 Jun Yang,  K. Yao,  S. Yeganeh,  S. R. Yost,  Zhi-Qiang You,  A. Zech,  
 Igor Ying Zhang,  Xing Zhang,  Yan Zhao,  Ying Zhu,  B. R. Brooks,  
 G. K. L. Chan,  C. J. Cramer,  M. S. Gordon,  W. J. Hehre,  A. Klamt,  
 M. W. Schmidt,  C. D. Sherrill,  D. G. Truhlar,  A. Aspuru-Guzik,  R. Baer,  
 A. T. Bell,  N. A. Besley,  Jeng-Da Chai,  A. E. DePrince, III,  
 R. A. DiStasio Jr.,  A. Dreuw,  B. D. Dunietz,  T. R. Furlani,  
 Chao-Ping Hsu,  Yousung Jung,  Jing Kong,  D. S. Lambrecht,  WanZhen Liang,  
 C. Ochsenfeld,  V. A. Rassolov,  L. V. Slipchenko,  J. E. Subotnik,  
 T. Van Voorhis,  J. M. Herbert,  A. I. Krylov,  P. M. W. Gill,  M. Head-Gordon

 Contributors to earlier versions of Q-Chem not listed above: 
 R. D. Adamson,  B. Austin,  J. Baker,  G. J. O. Beran,  K. Brandhorst,  
 S. T. Brown,  E. F. C. Byrd,  A. K. Chakraborty,  C.-L. Cheng,  
 Siu Hung Chien,  D. M. Chipman,  D. L. Crittenden,  H. Dachsel,  
 R. J. Doerksen,  A. D. Dutoi,  L. Fusti-Molnar,  W. A. Goddard III,  
 A. Golubeva-Zadorozhnaya,  S. R. Gwaltney,  G. Hawkins,  A. Heyden,  
 S. Hirata,  G. Kedziora,  F. J. Keil,  C. Kelley,  Jihan Kim,  R. A. King,  
 R. Z. Khaliullin,  P. P. Korambath,  W. Kurlancheek,  A. M. Lee,  M. S. Lee,  
 S. V. Levchenko,  Ching Yeh Lin,  D. Liotard,  R. C. Lochan,  I. Lotan,  
 P. E. Maslen,  N. Nair,  D. P. O'Neill,  D. Neuhauser,  E. Neuscamman,  
 C. M. Oana,  R. Olson,  B. Peters,  R. Peverati,  P. A. Pieniazek,  
 Y. M. Rhee,  J. Ritchie,  M. A. Rohrdanz,  E. Rosta,  N. J. Russ,  
 H. F. Schaefer III,  N. E. Schultz,  N. Shenvi,  A. C. Simmonett,  A. Sodt,  
 D. Stuck,  K. S. Thanthiriwatte,  V. Vanovschi,  Tao Wang,  A. Warshel,  
 C. F. Williams,  Q. Wu,  X. Xu,  W. Zhang

 Please cite Q-Chem as follows:
 Y. Shao et al., Mol. Phys. 113, 184-215 (2015)
 DOI: 10.1080/00268976.2014.952696

 Q-Chem 5.1.1 for Intel X86 EM64T Linux

 Parts of Q-Chem use Armadillo 8.300.2 (Tropical Shenanigans).
 http://arma.sourceforge.net/

 Q-Chem begins on Tue Mar 12 03:32:27 2019  

Host: 
0

     Scratch files written to /staging/scratch/2858534/qchem28414//
 Aug318 |scratch|qcdevops|jenkins|workspace|build_RNUM 6013   
Processing $rem in /usr/usc/qchem/5.1.1/config/preferences.
 MEM_TOTAL  2000 
Input Ideriv = 2
Curr. Ideriv = -1
Max.  Ideriv = 2

Checking the input file for inconsistencies... 	...done.

--------------------------------------------------------------
User input:
--------------------------------------------------------------

$comment
potential surface scanner
$end

$rem
JOBTYPE  PES_SCAN
UNRESTRICTED TRUE
SYM_IGNORE  TRUE
GEOM_OPT_MAX_CYCLES 400
SCF_MAX_CYCLES 400
METHOD   B3LYP
BASIS   6-31G**
PDB_PRINT 2
SCF_CONVERGENCE 6
THRESH 14
SCF_PRINT 1
$end
$molecule
0 3
Cl -0.333963 1.622566 1.097828
Cl 1.564031 1.471856 -0.770777
C -0.739133 -0.494939 -0.355449
C 0.117604 -0.257983 -1.438327
C -0.451133 -1.531635 0.678298
H -1.740238 -0.080788 -0.397686
H 0.963925 -0.915798 -1.599436
H -0.240685 0.294108 -2.298297
H -0.907317 -1.279714 1.637112
H -0.876490 -2.492579 0.351297
H 0.623701 -1.669694 0.820239
$end
$scan
stre 1 3 2.500000 2.501000 0.100000
$end
--------------------------------------------------------------
 ----------------------------------------------------------------
             Standard Nuclear Orientation (Angstroms)
    I     Atom           X                Y                Z
 ----------------------------------------------------------------
    1      Cl     -0.3339630000     1.6225660000     1.0978280000
    2      Cl      1.5640310000     1.4718560000    -0.7707770000
    3      C      -0.7391330000    -0.4949390000    -0.3554490000
    4      C       0.1176040000    -0.2579830000    -1.4383270000
    5      C      -0.4511330000    -1.5316350000     0.6782980000
    6      H      -1.7402380000    -0.0807880000    -0.3976860000
    7      H       0.9639250000    -0.9157980000    -1.5994360000
    8      H      -0.2406850000     0.2941080000    -2.2982970000
    9      H      -0.9073170000    -1.2797140000     1.6371120000
   10      H      -0.8764900000    -2.4925790000     0.3512970000
   11      H       0.6237010000    -1.6696940000     0.8202390000
 ----------------------------------------------------------------
 Nuclear Repulsion Energy =   267.9679466406 hartrees
 There are       30 alpha and       28 beta electrons
 Requested basis set is 6-31G(d,p)
 There are 40 shells and 113 basis functions

 Total QAlloc Memory Limit   2000 MB
 Mega-Array Size       188 MB
 MEM_STATIC part       192 MB
A total of 1 constraints
  
            1
    1   1.0100000
    2   1.0100000
    3   3.0100000
    4   2.5000000
    5   2.5010000
    6   0.1000000
    7   0.0000000
    8   0.0000000
    9   0.0000000
   10   0.0000000

                       Distance Matrix (Angstroms)
             Cl(  1)   Cl(  2)   C (  3)   C (  4)   C (  5)   H (  6)
   Cl(  2)  2.667729
   C (  3)  2.600001  3.057016
   C (  4)  3.189429  2.351620  1.400989
   C (  5)  3.184135  3.896365  1.492084  2.534907
   H (  6)  2.667506  3.669890  1.084212  2.136799  2.219119
   H (  7)  3.924670  2.597632  2.150589  1.083945  2.751312  3.074726
   H (  8)  3.647899  2.641478  2.155390  1.082924  3.498249  2.449802
   H (  9)  3.007123  4.413233  2.148129  3.398930  1.091280  2.504313
   H ( 10)  4.217353  4.788730  2.123422  3.030577  1.100578  2.669040
   H ( 11)  3.439935  3.644844  2.149327  2.711122  1.092921  3.097769
             H (  7)   H (  8)   H (  9)   H ( 10)
   H (  8)  1.844821
   H (  9)  3.756225  4.290543
   H ( 10)  3.111065  3.897463  1.767855
   H ( 11)  2.557135  3.785360  1.778590  1.774153
 
 A cutoff of  1.0D-14 yielded    777 shell pairs
 There are      6402 function pairs
 
 -------------------------------------------------------
 OpenMP Integral Computing Module                       
 Release: version 1.0, May 2013, Q-Chem Inc. Pittsburgh 
 -------------------------------------------------------
 Integral Job Info:
 Integral job number is                      11
 Integral operator is                         1
 short-range coefficients                     0
 long-range coefficients              100000000
 Omega coefficients                           0
 if combine SR and LR in K                    0
 Integral screening is                        0
 Integral computing path is                   2
 max size of driver memory is            800000
 size of driver memory is                593474
 size of scratch memory is             15267112
 max col of scratch BK array               1296
 max len of scratch array in speh3          155
 max len of scratch index in speh4           18
 max int batch size is                      520
 min int batch size is                       52
 fixed nKL is                                52
 max L of basis functions is                  2
 order of int derivative is                   0
 number of shells is                         40
 number of basis is                         113
 number of cartesian basis is               113
 number of contracted shell pairs           777
 number of primitive shell pairs           3136
 maxK2 (contraction) of shell pair           36
 max number of K2 of shell pair               1
 max number of CS2 of shell pair             61
 max number of PS2 of shell pair            318
 mem total for path MDJ                  519084
 -------------------------------------------------------
 Smallest overlap matrix eigenvalue = 5.14E-03

 Scale SEOQF with 1.000000e-01/1.000000e-01/1.000000e-01

 Standard Electronic Orientation quadrupole field applied
 Nucleus-field energy     =     0.0000000035 hartrees
 Guess from superposition of atomic densities
 Warning:  Energy on first SCF cycle will be non-variational
 SAD guess density has 58.000000 electrons

 -----------------------------------------------------------------------
  General SCF calculation program by
  Eric Jon Sundstrom, Paul Horn, Yuezhi Mao, Dmitri Zuev, Alec White,
  David Stuck, Shaama M.S., Shane Yost, Joonho Lee, David Small,
  Daniel Levine, Susi Lehtola, Hugh Burton, Evgeny Epifanovsky
 -----------------------------------------------------------------------
 Exchange:     0.2000 Hartree-Fock + 0.0800 Slater + 0.7200 B88
 Correlation:  0.1900 VWN1RPA + 0.8100 LYP
 Using SG-1 standard quadrature grid
 using 12 threads for integral computing
 -------------------------------------------------------
 OpenMP Integral computing Module                
 Release: version 1.0, May 2013, Q-Chem Inc. Pittsburgh 
 -------------------------------------------------------
 -------------------------------------------------------
 OpenMP BLAS3 based DFT computing Module                
 Release: version 1.0, May 2013, Q-Chem Inc. Pittsburgh 
 -------------------------------------------------------
 A unrestricted SCF calculation will be
 performed using DIIS
 SCF converges when DIIS error is below 1.0e-06
 Alpha HF Exchange    Energy =  -7.25915870088463
 Beta HF Exchange     Energy =  -7.25915870088463
 DFT Correlation      Energy =  -2.75757482977510
 DFT Exchange         Energy = -57.30515991470709
 One-Electron (alpha) Energy = -979.07814782299874
 One-Electron (beta)  Energy = -979.07814782299874
 Total Coulomb        Energy = 726.24871728205744
 ---------------------------------------
  Cycle       Energy         DIIS error
 ---------------------------------------
    1   -1038.5206838661      2.57e-02  
 Alpha HF Exchange    Energy =  -7.39942062164593
 Beta HF Exchange     Energy =  -7.16735134790843
 DFT Correlation      Energy =  -2.77764572004145
 DFT Exchange         Energy = -57.83772697732228
 One-Electron (alpha) Energy = -999.77164963051018
 One-Electron (beta)  Energy = -965.42530015815714
 Total Coulomb        Energy = 734.23631798598274
    2   -1038.1748298255      2.71e-03  
 Alpha HF Exchange    Energy =  -7.35488120430271
 Beta HF Exchange     Energy =  -7.12450787494275
 DFT Correlation      Energy =  -2.75751811576569
 DFT Exchange         Energy = -57.45759468577865
 One-Electron (alpha) Energy = -996.88581801710677
 One-Electron (beta)  Energy = -962.35493476989484
 Total Coulomb        Energy = 727.80159413307456
    3   -1038.1657138906      2.91e-03  
 Alpha HF Exchange    Energy =  -7.37419472670308
 Beta HF Exchange     Energy =  -7.13765538071223
 DFT Correlation      Energy =  -2.76641328976106
 DFT Exchange         Energy = -57.60334331009751
 One-Electron (alpha) Energy = -998.24694615589078
 One-Electron (beta)  Energy = -963.36503727922320
 Total Coulomb        Energy = 730.30548324629831
    4   -1038.2201602520      9.25e-04  
 Alpha HF Exchange    Energy =  -7.37763321034253
 Beta HF Exchange     Energy =  -7.14099441856797
 DFT Correlation      Energy =  -2.76697674276276
 DFT Exchange         Energy = -57.62720367442675
 One-Electron (alpha) Energy = -998.46447530309081
 One-Electron (beta)  Energy = -963.55837487697841
 Total Coulomb        Energy = 730.74018604969194
    5   -1038.2275255324      2.82e-04  
 Alpha HF Exchange    Energy =  -7.37834337069988
 Beta HF Exchange     Energy =  -7.14083930713005
 DFT Correlation      Energy =  -2.76687775353147
 DFT Exchange         Energy = -57.62882718557188
 One-Electron (alpha) Energy = -998.50699616562065
 One-Electron (beta)  Energy = -963.53521422178756
 Total Coulomb        Energy = 730.76093227349236
    6   -1038.2282190868      8.14e-05  
 Alpha HF Exchange    Energy =  -7.37791670982129
 Beta HF Exchange     Energy =  -7.14021288587982
 DFT Correlation      Energy =  -2.76678572751514
 DFT Exchange         Energy = -57.62486964437187
 One-Electron (alpha) Energy = -998.48158555247062
 One-Electron (beta)  Energy = -963.48109073336821
 Total Coulomb        Energy = 730.67623431405639
    7   -1038.2282802953      3.44e-05  
 Alpha HF Exchange    Energy =  -7.37805137298211
 Beta HF Exchange     Energy =  -7.14033271318729
 DFT Correlation      Energy =  -2.76675278321969
 DFT Exchange         Energy = -57.62541973657470
 One-Electron (alpha) Energy = -998.49108677212359
 One-Electron (beta)  Energy = -963.48313537692707
 Total Coulomb        Energy = 730.68853718415062
    8   -1038.2282949268      1.39e-05  
 Alpha HF Exchange    Energy =  -7.37813873691954
 Beta HF Exchange     Energy =  -7.14037289328879
 DFT Correlation      Energy =  -2.76675709749024
 DFT Exchange         Energy = -57.62582504665639
 One-Electron (alpha) Energy = -998.49861888855207
 One-Electron (beta)  Energy = -963.48221776267280
 Total Coulomb        Energy = 730.69568242469006
    9   -1038.2283013568      6.87e-06  
 Alpha HF Exchange    Energy =  -7.37811649135375
 Beta HF Exchange     Energy =  -7.14038705353184
 DFT Correlation      Energy =  -2.76673389683723
 DFT Exchange         Energy = -57.62564841933720
 One-Electron (alpha) Energy = -998.49578890875750
 One-Electron (beta)  Energy = -963.47821200979479
 Total Coulomb        Energy = 730.68863673002579
   10   -1038.2283034055      2.89e-06  
 Alpha HF Exchange    Energy =  -7.37812668698374
 Beta HF Exchange     Energy =  -7.14042216359513
 DFT Correlation      Energy =  -2.76673287836009
 DFT Exchange         Energy = -57.62577595516254
 One-Electron (alpha) Energy = -998.49666042711260
 One-Electron (beta)  Energy = -963.47990810129613
 Total Coulomb        Energy = 730.69137585922886
   11   -1038.2283037092      1.06e-06  
 Alpha HF Exchange    Energy =  -7.37812516258544
 Beta HF Exchange     Energy =  -7.14043009176745
 DFT Correlation      Energy =  -2.76673241607469
 DFT Exchange         Energy = -57.62579072756910
 One-Electron (alpha) Energy = -998.49640094178574
 One-Electron (beta)  Energy = -963.48036621886706
 Total Coulomb        Energy = 730.69159518967899
   12   -1038.2283037249      6.41e-07  Convergence criterion met
 ---------------------------------------
 SCF time:   CPU 31.79s  wall 3.00s 
<S^2> =          2.005673551
 Alpha HF Exchange    Energy =  -7.37812516258544
 Beta HF Exchange     Energy =  -7.14043009176745
 DFT Correlation      Energy =  -2.76673241607469
 DFT Exchange         Energy = -57.62579072756910
 One-Electron (alpha) Energy = -998.49640094178574
 One-Electron (beta)  Energy = -963.48036621886706
 Total Coulomb        Energy = 730.69159518967899
 Nuclear repulsion Energy = 267.96794664408770
 SCF   energy in the final basis set =    -1038.2283037249
 Total energy in the final basis set =    -1038.2283037249
 
 --------------------------------------------------------------
 
                    Orbital Energies (a.u.)
 --------------------------------------------------------------
 
 Alpha MOs
 -- Occupied --
*******-101.526 -10.265 -10.259 -10.212  -9.456  -9.439  -7.220
 -7.217  -7.209  -7.207  -7.195  -7.192  -0.850  -0.803  -0.775
 -0.724  -0.606  -0.512  -0.468  -0.454  -0.408  -0.398  -0.388
 -0.368  -0.318  -0.306  -0.287  -0.273  -0.247
 -- Virtual --
 -0.039   0.082   0.106   0.115   0.151   0.153   0.157   0.242
  0.289   0.358   0.398   0.416   0.438   0.466   0.483   0.501
  0.509   0.524   0.536   0.571   0.595   0.638   0.663   0.678
  0.706   0.732   0.748   0.817   0.825   0.846   0.853   0.857
  0.876   0.883   0.884   0.893   0.906   0.914   0.924   0.939
  1.054   1.135   1.171   1.273   1.307   1.344   1.417   1.471
  1.612   1.765   1.820   1.845   1.875   1.932   2.014   2.050
  2.063   2.090   2.190   2.241   2.320   2.361   2.373   2.445
  2.519   2.573   2.624   2.654   2.782   2.820   2.855   2.940
  3.158   3.233   3.373   3.396   3.424   3.563   4.180   4.253
  4.276   4.419   4.569
 
 Beta MOs
 -- Occupied --
*******-101.520 -10.259 -10.255 -10.212  -9.451  -9.434  -7.209
 -7.207  -7.205  -7.192  -7.190  -7.189  -0.831  -0.772  -0.739
 -0.714  -0.597  -0.508  -0.463  -0.441  -0.405  -0.394  -0.347
 -0.318  -0.305  -0.280  -0.275
 -- Virtual --
 -0.164  -0.156   0.002   0.084   0.108   0.117   0.153   0.158
  0.161   0.247   0.294   0.369   0.416   0.420   0.446   0.478
  0.487   0.514   0.521   0.540   0.555   0.589   0.609   0.657
  0.676   0.691   0.720   0.746   0.757   0.824   0.835   0.853
  0.868   0.877   0.900   0.902   0.911   0.922   0.930   0.934
  0.939   0.952   1.086   1.147   1.182   1.287   1.319   1.361
  1.431   1.478   1.616   1.771   1.835   1.856   1.884   1.945
  2.017   2.052   2.066   2.092   2.202   2.243   2.324   2.373
  2.380   2.451   2.527   2.582   2.629   2.658   2.785   2.822
  2.859   2.943   3.160   3.235   3.377   3.399   3.425   3.567
  4.192   4.268   4.291   4.423   4.579
 --------------------------------------------------------------
 
          Ground-State Mulliken Net Atomic Charges

     Atom                 Charge (a.u.)    Spin (a.u.)
  --------------------------------------------------------
      1 Cl                   -0.222806       0.690348
      2 Cl                   -0.152056       0.694116
      3 C                     0.005651       0.435672
      4 C                    -0.217947       0.203991
      5 C                    -0.341766      -0.027328
      6 H                     0.159004      -0.017437
      7 H                     0.166436      -0.006244
      8 H                     0.170361      -0.008938
      9 H                     0.152881       0.011754
     10 H                     0.135744       0.021154
     11 H                     0.144497       0.002912
  --------------------------------------------------------
  Sum of atomic charges =    -0.000000
  Sum of spin   charges =     2.000000

 -----------------------------------------------------------------
                    Cartesian Multipole Moments
 -----------------------------------------------------------------
    Charge (ESU x 10^10)
                -0.0000
    Dipole Moment (Debye)
         X      -1.7404      Y      -4.2750      Z      -1.8282
       Tot       4.9645
    Quadrupole Moments (Debye-Ang)
        XX     -45.0083     XY      -1.2731     YY     -48.5513
        XZ       0.3666     YZ      -1.3957     ZZ     -43.2363
    Octopole Moments (Debye-Ang^2)
       XXX     -31.7703    XXY     -27.3780    XYY      -9.7763
       YYY     -84.0536    XXZ       2.9743    XYZ       3.0376
       YYZ       1.7354    XZZ     -10.3095    YZZ     -27.0135
       ZZZ       0.3481
    Hexadecapole Moments (Debye-Ang^3)
      XXXX    -290.2502   XXXY     -89.8674   XXYY    -140.4159
      XYYY     -82.4683   YYYY    -559.7815   XXXZ      66.9376
      XXYZ      -1.1702   XYYZ      24.2358   YYYZ     -11.7718
      XXZZ     -98.5156   XYZZ     -32.9285   YYZZ    -149.2826
      XZZZ      63.3082   YZZZ     -14.3457   ZZZZ    -300.0715
 -----------------------------------------------------------------
 Calculating analytic gradient of the SCF energy
 Gradient of SCF Energy
            1           2           3           4           5           6
    1  -0.0013163  -0.0000093   0.0011896  -0.0000419   0.0000619  -0.0000262
    2  -0.0063015   0.0000832   0.0062287   0.0000625   0.0000086  -0.0001292
    3  -0.0042801   0.0000498   0.0042679   0.0000422   0.0000197  -0.0000773
            7           8           9          10          11
    1   0.0000502  -0.0000168   0.0000475   0.0000280   0.0000334
    2   0.0000852   0.0000184  -0.0000251  -0.0000228  -0.0000080
    3   0.0000152   0.0000123  -0.0000106  -0.0000014  -0.0000378
 Max gradient component =       6.302E-03
 RMS gradient           =       1.893E-03
 Gradient time:  CPU 9.28 s  wall 0.78 s
 Geometry Optimization Parameters
   NAtoms,    NIC,     NZ,  NCons,   NDum,   NFix, NCnnct, MaxDiis
       11      88       0       1       0       0       0       0


** CONSTRAINED OPTIMIZATION IN DELOCALIZED INTERNAL COORDINATES **
   Searching for a Minimum

   Optimization Cycle:   1

                       Coordinates (Angstroms)
     ATOM                X               Y               Z
      1  Cl       -0.3339630000    1.6225660000    1.0978280000
      2  Cl        1.5640310000    1.4718560000   -0.7707770000
      3  C        -0.7391330000   -0.4949390000   -0.3554490000
      4  C         0.1176040000   -0.2579830000   -1.4383270000
      5  C        -0.4511330000   -1.5316350000    0.6782980000
      6  H        -1.7402380000   -0.0807880000   -0.3976860000
      7  H         0.9639250000   -0.9157980000   -1.5994360000
      8  H        -0.2406850000    0.2941080000   -2.2982970000
      9  H        -0.9073170000   -1.2797140000    1.6371120000
     10  H        -0.8764900000   -2.4925790000    0.3512970000
     11  H         0.6237010000   -1.6696940000    0.8202390000
   Point Group: c1    Number of degrees of freedom:    27


   Energy is  -1038.228303725

              Constraints and their Current Values
                                        Value     Constraint
   Distance(Angs):        1   3             2.600001     2.500000

 Attempting to Generate Delocalized Internal Coordinates

   Using Lagrange Multiplier Algorithm


 28 Hessian modes will be used to form the next step
  Hessian Eigenvalues:
    -0.978018    0.045000    0.045655    0.053875    0.066426    0.069059
     0.072820    0.078809    0.081956    0.083068    0.084579    0.088310
     0.116038    0.132695    0.138078    0.154192    0.160000    0.160000
     0.160000    0.327413    0.332222    0.336183    0.344773    0.346651
     0.355219    0.356434    0.434419    1.022476

 Minimum Search - Taking P-RFO Step
 Searching for Lamda that Maximizes Along the Constraint modes Only
 Value Taken    Lamda =   0.01978564
 Searching for Lamda that Minimizes Along All other modes
 Value Taken    Lamda =  -0.01544346
 Step Taken.  Stepsize is  0.185675

                             Maximum     Tolerance    Cnvgd?
         Gradient            0.188974       0.000300      NO
         Displacement        0.185665       0.001200      NO
         Energy change     *********       0.000001      NO


 New Cartesian Coordinates Obtained by Inverse Iteration

 Displacement from previous Coordinates is:  0.197093
 ----------------------------------------------------------------
             Standard Nuclear Orientation (Angstroms)
    I     Atom           X                Y                Z
 ----------------------------------------------------------------
    1      Cl     -0.3332187219     1.5354275028     1.0692678633
    2      Cl      1.5802595293     1.4625015258    -0.7799633473
    3      C      -0.7402586751    -0.4842968228    -0.3498129957
    4      C       0.1183191838    -0.2458593064    -1.4351497588
    5      C      -0.4513986452    -1.5189648515     0.6857184601
    6      H      -1.7533653991    -0.0856405170    -0.4039658195
    7      H       0.9659512391    -0.9009031863    -1.6006341250
    8      H      -0.2461654573     0.3057519871    -2.2928218436
    9      H      -0.9133308282    -1.2691346584     1.6423330380
   10      H      -0.8699980945    -2.4823438168     0.3571676930
   11      H       0.6235078691    -1.6511378565     0.8326628356
 ----------------------------------------------------------------
 Nuclear Repulsion Energy =   270.3547169144 hartrees
 There are       30 alpha and       28 beta electrons

                       Distance Matrix (Angstroms)
             Cl(  1)   Cl(  2)   C (  3)   C (  4)   C (  5)   H (  6)
   Cl(  2)  2.662024
   C (  3)  2.501751  3.059388
   C (  4)  3.106280  2.342015  1.404266
   C (  5)  3.080648  3.894226  1.492080  2.538397
   H (  6)  2.610574  3.694749  1.090066  2.142945  2.221924
   H (  7)  3.840824  2.576152  2.156216  1.083950  2.760125  3.080804
   H (  8)  3.580967  2.638681  2.154899  1.082925  3.499059  2.447982
   H (  9)  2.920702  4.421238  2.148155  3.403277  1.091287  2.508716
   H ( 10)  4.115544  4.781070  2.123404  3.031672  1.100577  2.665305
   H ( 11)  3.335492  3.634651  2.149332  2.715326  1.092926  3.103153
             H (  7)   H (  8)   H (  9)   H ( 10)
   H (  8)  1.845093
   H (  9)  3.766183  4.290783
   H ( 10)  3.115229  3.896805  1.767881
   H ( 11)  2.569252  3.788721  1.778585  1.774136
 
 Applying Cartesian multipole field
    Component          Value
    ---------          -----
     (2,0,0)        1.00000E-11
     (0,2,0)        2.00000E-11
     (0,0,2)       -3.00000E-11
 Nucleus-field energy     =     0.0000000032 hartrees
 Requested basis set is 6-31G(d,p)
 There are 40 shells and 113 basis functions
 A cutoff of  1.0D-14 yielded    780 shell pairs
 There are      6410 function pairs
 Smallest overlap matrix eigenvalue = 5.10E-03
 Guess from superposition of atomic densities
 Warning:  Energy on first SCF cycle will be non-variational
 SAD guess density has 58.000000 electrons

 -----------------------------------------------------------------------
  General SCF calculation program by
  Eric Jon Sundstrom, Paul Horn, Yuezhi Mao, Dmitri Zuev, Alec White,
  David Stuck, Shaama M.S., Shane Yost, Joonho Lee, David Small,
  Daniel Levine, Susi Lehtola, Hugh Burton, Evgeny Epifanovsky
 -----------------------------------------------------------------------
 Exchange:     0.2000 Hartree-Fock + 0.0800 Slater + 0.7200 B88
 Correlation:  0.1900 VWN1RPA + 0.8100 LYP
 Using SG-1 standard quadrature grid
 using 12 threads for integral computing
 -------------------------------------------------------
 OpenMP Integral computing Module                
 Release: version 1.0, May 2013, Q-Chem Inc. Pittsburgh 
 -------------------------------------------------------
 -------------------------------------------------------
 OpenMP BLAS3 based DFT computing Module                
 Release: version 1.0, May 2013, Q-Chem Inc. Pittsburgh 
 -------------------------------------------------------
 A unrestricted SCF calculation will be
 performed using DIIS
 SCF converges when DIIS error is below 1.0e-06
 Alpha HF Exchange    Energy =  -7.26081073253572
 Beta HF Exchange     Energy =  -7.26081073253572
 DFT Correlation      Energy =  -2.75886707855057
 DFT Exchange         Energy = -57.30793584543253
 One-Electron (alpha) Energy = -981.46907283365499
 One-Electron (beta)  Energy = -981.46907283365499
 Total Coulomb        Energy = 728.63840084863261
 ---------------------------------------
  Cycle       Energy         DIIS error
 ---------------------------------------
    1   -1038.5334522901      2.57e-02  
 Alpha HF Exchange    Energy =  -7.39944487855534
 Beta HF Exchange     Energy =  -7.16704825523609
 DFT Correlation      Energy =  -2.77883006308986
 DFT Exchange         Energy = -57.83811043839073
 One-Electron (alpha) Energy = -1002.20604835048073
 One-Electron (beta)  Energy = -967.68554746697214
 Total Coulomb        Energy = 736.54629226157704
    2   -1038.1740202735      2.71e-03  
 Alpha HF Exchange    Energy =  -7.35575912613599
 Beta HF Exchange     Energy =  -7.12459972495450
 DFT Correlation      Energy =  -2.75874821097500
 DFT Exchange         Energy = -57.46213500154145
 One-Electron (alpha) Energy = -999.36230547116566
 One-Electron (beta)  Energy = -964.64247775194917
 Total Coulomb        Energy = 730.18201251104210
    3   -1038.1692958580      2.83e-03  
 Alpha HF Exchange    Energy =  -7.37497966919767
 Beta HF Exchange     Energy =  -7.13820458585147
 DFT Correlation      Energy =  -2.76786626360224
 DFT Exchange         Energy = -57.60980130708885
 One-Electron (alpha) Energy = -1000.74177346944350
 One-Electron (beta)  Energy = -965.70168609035466
 Total Coulomb        Energy = 732.75838270764621
    4   -1038.2212117603      7.57e-04  
 Alpha HF Exchange    Energy =  -7.37803888842374
 Beta HF Exchange     Energy =  -7.14116135470892
 DFT Correlation      Energy =  -2.76820259168897
 DFT Exchange         Energy = -57.63032494522391
 One-Electron (alpha) Energy = -1000.92175488333646
 One-Electron (beta)  Energy = -965.84568815004275
 Total Coulomb        Energy = 733.10477874750302
    5   -1038.2256751483      3.04e-04  
 Alpha HF Exchange    Energy =  -7.37864605855232
 Beta HF Exchange     Energy =  -7.14099743273397
 DFT Correlation      Energy =  -2.76812305389799
 DFT Exchange         Energy = -57.63166076736546
 One-Electron (alpha) Energy = -1000.96013584804723
 One-Electron (beta)  Energy = -965.83196617550163
 Total Coulomb        Energy = 733.13036466783467
    6   -1038.2264477506      9.69e-05  
 Alpha HF Exchange    Energy =  -7.37823892590610
 Beta HF Exchange     Energy =  -7.14032603108914
 DFT Correlation      Energy =  -2.76806244172531
 DFT Exchange         Energy = -57.62786960904227
 One-Electron (alpha) Energy = -1000.93732795893925
 One-Electron (beta)  Energy = -965.77931815525642
 Total Coulomb        Energy = 733.04990081906124
    7   -1038.2265253853      3.62e-05  
 Alpha HF Exchange    Energy =  -7.37831861700633
 Beta HF Exchange     Energy =  -7.14037404736417
 DFT Correlation      Energy =  -2.76802657367223
 DFT Exchange         Energy = -57.62800323042795
 One-Electron (alpha) Energy = -1000.94325646965831
 One-Electron (beta)  Energy = -965.77778799580074
 Total Coulomb        Energy = 733.05451240889261
    8   -1038.2265376074      1.01e-05  
 Alpha HF Exchange    Energy =  -7.37840499896462
 Beta HF Exchange     Energy =  -7.14039344069363
 DFT Correlation      Energy =  -2.76803664825595
 DFT Exchange         Energy = -57.62838868560983
 One-Electron (alpha) Energy = -1000.95098300238601
 One-Electron (beta)  Energy = -965.77776539055594
 Total Coulomb        Energy = 733.06271497130115
    9   -1038.2265402775      4.68e-06  
 Alpha HF Exchange    Energy =  -7.37838704162422
 Beta HF Exchange     Energy =  -7.14038154850678
 DFT Correlation      Energy =  -2.76802286263968
 DFT Exchange         Energy = -57.62820945914801
 One-Electron (alpha) Energy = -1000.94911426381145
 One-Electron (beta)  Energy = -965.77403919626261
 Total Coulomb        Energy = 733.05689622877196
   10   -1038.2265412256      2.29e-06  
 Alpha HF Exchange    Energy =  -7.37839747726168
 Beta HF Exchange     Energy =  -7.14040433628610
 DFT Correlation      Energy =  -2.76802299302310
 DFT Exchange         Energy = -57.62830915862696
 One-Electron (alpha) Energy = -1000.95011514926409
 One-Electron (beta)  Energy = -965.77519329621225
 Total Coulomb        Energy = 733.05918402613520
   11   -1038.2265414669      7.39e-07  Convergence criterion met
 ---------------------------------------
 SCF time:   CPU 28.72s  wall 2.00s 
<S^2> =          2.004841056
 Alpha HF Exchange    Energy =  -7.37839747726168
 Beta HF Exchange     Energy =  -7.14040433628610
 DFT Correlation      Energy =  -2.76802299302310
 DFT Exchange         Energy = -57.62830915862696
 One-Electron (alpha) Energy = -1000.95011514926409
 One-Electron (beta)  Energy = -965.77519329621225
 Total Coulomb        Energy = 733.05918402613520
 Nuclear repulsion Energy = 270.35471691763189
 SCF   energy in the final basis set =    -1038.2265414669
 Total energy in the final basis set =    -1038.2265414669
 
 --------------------------------------------------------------
 
                    Orbital Energies (a.u.)
 --------------------------------------------------------------
 
 Alpha MOs
 -- Occupied --
*******-101.530 -10.264 -10.256 -10.210  -9.455  -9.443  -7.219
 -7.216  -7.210  -7.208  -7.200  -7.196  -0.850  -0.802  -0.779
 -0.723  -0.604  -0.510  -0.467  -0.453  -0.406  -0.397  -0.390
 -0.368  -0.319  -0.311  -0.289  -0.275  -0.241
 -- Virtual --
 -0.035   0.082   0.106   0.117   0.152   0.154   0.157   0.242
  0.289   0.358   0.397   0.417   0.440   0.467   0.484   0.500
  0.508   0.524   0.535   0.572   0.592   0.649   0.661   0.679
  0.706   0.727   0.747   0.815   0.826   0.845   0.852   0.855
  0.875   0.881   0.884   0.895   0.910   0.917   0.927   0.946
  1.058   1.148   1.181   1.277   1.314   1.352   1.439   1.474
  1.616   1.768   1.822   1.850   1.876   1.929   2.016   2.052
  2.067   2.090   2.194   2.243   2.321   2.358   2.374   2.447
  2.520   2.575   2.625   2.656   2.779   2.821   2.857   2.938
  3.160   3.233   3.370   3.399   3.425   3.558   4.192   4.252
  4.274   4.422   4.578
 
 Beta MOs
 -- Occupied --
*******-101.524 -10.258 -10.252 -10.210  -9.450  -9.438  -7.208
 -7.207  -7.205  -7.196  -7.194  -7.193  -0.831  -0.771  -0.743
 -0.712  -0.594  -0.505  -0.461  -0.441  -0.403  -0.393  -0.349
 -0.319  -0.307  -0.284  -0.277
 -- Virtual --
 -0.166  -0.151   0.006   0.085   0.109   0.119   0.154   0.159
  0.161   0.247   0.294   0.369   0.415   0.422   0.448   0.480
  0.488   0.513   0.520   0.541   0.554   0.589   0.606   0.668
  0.674   0.693   0.719   0.741   0.756   0.824   0.834   0.854
  0.866   0.874   0.898   0.902   0.912   0.922   0.930   0.937
  0.941   0.961   1.089   1.158   1.192   1.291   1.328   1.367
  1.452   1.482   1.620   1.773   1.838   1.861   1.886   1.942
  2.019   2.054   2.069   2.092   2.207   2.245   2.326   2.371
  2.379   2.454   2.528   2.584   2.629   2.660   2.783   2.823
  2.861   2.941   3.162   3.235   3.374   3.401   3.426   3.562
  4.204   4.268   4.289   4.427   4.587
 --------------------------------------------------------------
 
          Ground-State Mulliken Net Atomic Charges

     Atom                 Charge (a.u.)    Spin (a.u.)
  --------------------------------------------------------
      1 Cl                   -0.204300       0.689986
      2 Cl                   -0.152591       0.691515
      3 C                    -0.016505       0.397095
      4 C                    -0.213598       0.249342
      5 C                    -0.334284      -0.024078
      6 H                     0.159942      -0.015389
      7 H                     0.166206      -0.008060
      8 H                     0.168324      -0.011035
      9 H                     0.150167       0.010971
     10 H                     0.133055       0.017381
     11 H                     0.143583       0.002272
  --------------------------------------------------------
  Sum of atomic charges =    -0.000000
  Sum of spin   charges =     2.000000

 -----------------------------------------------------------------
                    Cartesian Multipole Moments
 -----------------------------------------------------------------
    Charge (ESU x 10^10)
                -0.0000
    Dipole Moment (Debye)
         X      -1.7650      Y      -4.0414      Z      -1.7014
       Tot       4.7268
    Quadrupole Moments (Debye-Ang)
        XX     -45.0983     XY      -1.4278     YY     -48.3367
        XZ       0.3596     YZ      -1.1788     ZZ     -43.2030
    Octopole Moments (Debye-Ang^2)
       XXX     -32.5253    XXY     -26.4677    XYY     -10.2143
       YYY     -79.5838    XXZ       3.2809    XYZ       3.0921
       YYZ       2.7300    XZZ     -10.2832    YZZ     -25.4929
       ZZZ       1.8833
    Hexadecapole Moments (Debye-Ang^3)
      XXXX    -294.7711   XXXY     -91.7962   XXYY    -137.6841
      XYYY     -85.1010   YYYY    -532.5610   XXXZ      67.3936
      XXYZ       0.7343   XYYZ      24.7787   YYYZ      -3.8913
      XXZZ     -98.4147   XYZZ     -33.0202   YYZZ    -143.7123
      XZZZ      64.0136   YZZZ      -7.9380   ZZZZ    -296.7659
 -----------------------------------------------------------------
 Calculating analytic gradient of the SCF energy
 Gradient of SCF Energy
            1           2           3           4           5           6
    1  -0.0023578  -0.0013689   0.0037396   0.0025517   0.0006185  -0.0034011
    2  -0.0090950  -0.0026574   0.0032479   0.0029927   0.0025475   0.0022574
    3  -0.0052650  -0.0012607   0.0046040   0.0008460   0.0004210   0.0005571
            7           8           9          10          11
    1   0.0007109  -0.0003038  -0.0000524  -0.0002004   0.0000639
    2   0.0005218   0.0001214   0.0002248   0.0000456  -0.0002066
    3  -0.0000481   0.0001625   0.0001499  -0.0000420  -0.0001246
 Max gradient component =       9.095E-03
 RMS gradient           =       2.544E-03
 Gradient time:  CPU 9.25 s  wall 0.78 s
 Geometry Optimization Parameters
   NAtoms,    NIC,     NZ,  NCons,   NDum,   NFix, NCnnct, MaxDiis
       11      88       0       1       0       0       0       0

 Cartesian Hessian Update
 Hessian Updated using BFGS Update


** CONSTRAINED OPTIMIZATION IN DELOCALIZED INTERNAL COORDINATES **
   Searching for a Minimum

   Optimization Cycle:   2

                       Coordinates (Angstroms)
     ATOM                X               Y               Z
      1  Cl       -0.3332187219    1.5354275028    1.0692678633
      2  Cl        1.5802595293    1.4625015258   -0.7799633473
      3  C        -0.7402586751   -0.4842968228   -0.3498129957
      4  C         0.1183191838   -0.2458593064   -1.4351497588
      5  C        -0.4513986452   -1.5189648515    0.6857184601
      6  H        -1.7533653991   -0.0856405170   -0.4039658195
      7  H         0.9659512391   -0.9009031863   -1.6006341250
      8  H        -0.2461654573    0.3057519871   -2.2928218436
      9  H        -0.9133308282   -1.2691346584    1.6423330380
     10  H        -0.8699980945   -2.4823438168    0.3571676930
     11  H         0.6235078691   -1.6511378565    0.8326628356
   Point Group: c1    Number of degrees of freedom:    27


   Energy is  -1038.226541467

              Constraints and their Current Values
                                        Value     Constraint
   Distance(Angs):        1   3             2.501751     2.500000
 Hessian Updated using BFGS Update

   Using Lagrange Multiplier Algorithm


 27 Hessian modes will be used to form the next step
  Hessian Eigenvalues:
    -0.990330    0.045054    0.045738    0.055282    0.066841    0.069638
     0.072952    0.079007    0.081958    0.084576    0.087774    0.097429
     0.119254    0.132763    0.140807    0.154415    0.160000    0.160297
     0.331452    0.336182    0.344764    0.346440    0.352825    0.356236
     0.356523    0.435528    1.010875

 Minimum Search - Taking P-RFO Step
 Searching for Lamda that Maximizes Along the Constraint modes Only
 Value Taken    Lamda =   0.00000025
 Searching for Lamda that Minimizes Along All other modes
 Value Taken    Lamda =  -0.00023014
 Step Taken.  Stepsize is  0.040819

                             Maximum     Tolerance    Cnvgd?
         Gradient            0.003896       0.000300      NO
         Displacement        0.019041       0.001200      NO
         Energy change      0.001762       0.000001      NO


 New Cartesian Coordinates Obtained by Inverse Iteration

 Displacement from previous Coordinates is:  0.039443
 ----------------------------------------------------------------
             Standard Nuclear Orientation (Angstroms)
    I     Atom           X                Y                Z
 ----------------------------------------------------------------
    1      Cl     -0.3315491081     1.5416010286     1.0649292783
    2      Cl      1.5844366091     1.4752328973    -0.7782949338
    3      C      -0.7397892269    -0.4806811551    -0.3470613543
    4      C       0.1164524037    -0.2472568332    -1.4341957952
    5      C      -0.4522338486    -1.5210479414     0.6855941495
    6      H      -1.7495549346    -0.0852854455    -0.4031988578
    7      H       0.9610774252    -0.9061758338    -1.5978824076
    8      H      -0.2468689888     0.3016715486    -2.2940327476
    9      H      -0.9140535642    -1.2758196215     1.6431705177
   10      H      -0.8702073619    -2.4833540025     0.3532914831
   11      H       0.6225925950    -1.6534846414     0.8324826678
 ----------------------------------------------------------------
 Nuclear Repulsion Energy =   270.0735512735 hartrees
 There are       30 alpha and       28 beta electrons

                       Distance Matrix (Angstroms)
             Cl(  1)   Cl(  2)   C (  3)   C (  4)   C (  5)   H (  6)
   Cl(  2)  2.659489
   C (  3)  2.500001  3.068157
   C (  4)  3.105856  2.356301  1.403388
   C (  5)  3.088410  3.907518  1.493797  2.537609
   H (  6)  2.610153  3.700191  1.085871  2.138030  2.220344
   H (  7)  3.840971  2.594496  2.153728  1.083678  2.754956  3.073867
   H (  8)  3.581511  2.651111  2.155399  1.082887  3.498951  2.446028
   H (  9)  2.934541  4.435565  2.150264  3.404419  1.091039  2.510590
   H ( 10)  4.122723  4.793347  2.125606  3.027993  1.100527  2.663881
   H ( 11)  3.342602  3.648098  2.150088  2.715048  1.092871  3.100523
             H (  7)   H (  8)   H (  9)   H ( 10)
   H (  8)  1.844629
   H (  9)  3.762602  4.293621
   H ( 10)  3.106151  3.892717  1.767442
   H ( 11)  2.565096  3.788627  1.777956  1.773911
 
 Applying Cartesian multipole field
    Component          Value
    ---------          -----
     (2,0,0)        1.00000E-11
     (0,2,0)        2.00000E-11
     (0,0,2)       -3.00000E-11
 Nucleus-field energy     =     0.0000000033 hartrees
 Requested basis set is 6-31G(d,p)
 There are 40 shells and 113 basis functions
 A cutoff of  1.0D-14 yielded    780 shell pairs
 There are      6410 function pairs
 Smallest overlap matrix eigenvalue = 5.12E-03
 Guess from superposition of atomic densities
 Warning:  Energy on first SCF cycle will be non-variational
 SAD guess density has 58.000000 electrons

 -----------------------------------------------------------------------
  General SCF calculation program by
  Eric Jon Sundstrom, Paul Horn, Yuezhi Mao, Dmitri Zuev, Alec White,
  David Stuck, Shaama M.S., Shane Yost, Joonho Lee, David Small,
  Daniel Levine, Susi Lehtola, Hugh Burton, Evgeny Epifanovsky
 -----------------------------------------------------------------------
 Exchange:     0.2000 Hartree-Fock + 0.0800 Slater + 0.7200 B88
 Correlation:  0.1900 VWN1RPA + 0.8100 LYP
 Using SG-1 standard quadrature grid
 using 12 threads for integral computing
 -------------------------------------------------------
 OpenMP Integral computing Module                
 Release: version 1.0, May 2013, Q-Chem Inc. Pittsburgh 
 -------------------------------------------------------
 -------------------------------------------------------
 OpenMP BLAS3 based DFT computing Module                
 Release: version 1.0, May 2013, Q-Chem Inc. Pittsburgh 
 -------------------------------------------------------
 A unrestricted SCF calculation will be
 performed using DIIS
 SCF converges when DIIS error is below 1.0e-06
 Alpha HF Exchange    Energy =  -7.26062115181939
 Beta HF Exchange     Energy =  -7.26062115181939
 DFT Correlation      Energy =  -2.75870077448318
 DFT Exchange         Energy = -57.30768334704054
 One-Electron (alpha) Energy = -981.18584869716722
 One-Electron (beta)  Energy = -981.18584869716722
 Total Coulomb        Energy = 728.35440778798363
 ---------------------------------------
  Cycle       Energy         DIIS error
 ---------------------------------------
    1   -1038.5313647547      2.57e-02  
 Alpha HF Exchange    Energy =  -7.39956103948813
 Beta HF Exchange     Energy =  -7.16702428681972
 DFT Correlation      Energy =  -2.77870169742985
 DFT Exchange         Energy = -57.83854212318618
 One-Electron (alpha) Energy = -1001.92178306362064
 One-Electron (beta)  Energy = -967.41218180928297
 Total Coulomb        Energy = 736.26971790470611
    2   -1038.1745248383      2.70e-03  
 Alpha HF Exchange    Energy =  -7.35581615155411
 Beta HF Exchange     Energy =  -7.12437231969167
 DFT Correlation      Energy =  -2.75865084088803
 DFT Exchange         Energy = -57.46186077398818
 One-Electron (alpha) Energy = -999.08008145482847
 One-Electron (beta)  Energy = -964.36618453539177
 Total Coulomb        Energy = 729.90249748972769
    3   -1038.1709173098      2.80e-03  
 Alpha HF Exchange    Energy =  -7.37512697393924
 Beta HF Exchange     Energy =  -7.13815304388619
 DFT Correlation      Energy =  -2.76777340660891
 DFT Exchange         Energy = -57.61039662200209
 One-Electron (alpha) Energy = -1000.46312826847395
 One-Electron (beta)  Energy = -965.42853804453262
 Total Coulomb        Energy = 732.48779039059923
    4   -1038.2217746920      7.26e-04  
 Alpha HF Exchange    Energy =  -7.37815116788386
 Beta HF Exchange     Energy =  -7.14106630229107
 DFT Correlation      Energy =  -2.76807834525649
 DFT Exchange         Energy = -57.63053809890206
 One-Electron (alpha) Energy = -1000.63941184975624
 One-Electron (beta)  Energy = -965.56984440797282
 Total Coulomb        Energy = 732.82774622984778
    5   -1038.2257926654      3.07e-04  
 Alpha HF Exchange    Energy =  -7.37872580553085
 Beta HF Exchange     Energy =  -7.14087288299674
 DFT Correlation      Energy =  -2.76800519669074
 DFT Exchange         Energy = -57.63169674317666
 One-Electron (alpha) Energy = -1000.67682066703640
 One-Electron (beta)  Energy = -965.55570340150132
 Total Coulomb        Energy = 732.85169512098162
    6   -1038.2265782991      9.82e-05  
 Alpha HF Exchange    Energy =  -7.37831859868106
 Beta HF Exchange     Energy =  -7.14019331291557
 DFT Correlation      Energy =  -2.76794535851502
 DFT Exchange         Energy = -57.62789386451571
 One-Electron (alpha) Energy = -1000.65385288991831
 One-Electron (beta)  Energy = -965.50263577825694
 Total Coulomb        Energy = 732.77063088911689
    7   -1038.2266576369      3.61e-05  
 Alpha HF Exchange    Energy =  -7.37839756998973
 Beta HF Exchange     Energy =  -7.14023674029638
 DFT Correlation      Energy =  -2.76791028797771
 DFT Exchange         Energy = -57.62801345721353
 One-Electron (alpha) Energy = -1000.65977393531318
 One-Electron (beta)  Energy = -965.50102119152723
 Total Coulomb        Energy = 732.77513252856545
    8   -1038.2266693769      9.73e-06  
 Alpha HF Exchange    Energy =  -7.37848215461603
 Beta HF Exchange     Energy =  -7.14025046087744
 DFT Correlation      Energy =  -2.76792117299480
 DFT Exchange         Energy = -57.62838146270958
 One-Electron (alpha) Energy = -1000.66741138592511
 One-Electron (beta)  Energy = -965.50090628643545
 Total Coulomb        Energy = 732.78313003890185
    9   -1038.2266716078      4.32e-06  
 Alpha HF Exchange    Energy =  -7.37846641669840
 Beta HF Exchange     Energy =  -7.14023593555854
 DFT Correlation      Energy =  -2.76790895356182
 DFT Exchange         Energy = -57.62821051760544
 One-Electron (alpha) Energy = -1000.66580578945411
 One-Electron (beta)  Energy = -965.49728956982699
 Total Coulomb        Energy = 732.77769350640199
   10   -1038.2266723995      2.17e-06  
 Alpha HF Exchange    Energy =  -7.37847635109035
 Beta HF Exchange     Energy =  -7.14025545946855
 DFT Correlation      Energy =  -2.76790911175524
 DFT Exchange         Energy = -57.62829869897633
 One-Electron (alpha) Energy = -1000.66679195467975
 One-Electron (beta)  Energy = -965.49822243449648
 Total Coulomb        Energy = 732.77973010550295
   11   -1038.2266726281      7.51e-07  Convergence criterion met
 ---------------------------------------
 SCF time:   CPU 28.66s  wall 3.00s 
<S^2> =          2.004751959
 Alpha HF Exchange    Energy =  -7.37847635109035
 Beta HF Exchange     Energy =  -7.14025545946855
 DFT Correlation      Energy =  -2.76790911175524
 DFT Exchange         Energy = -57.62829869897633
 One-Electron (alpha) Energy = -1000.66679195467975
 One-Electron (beta)  Energy = -965.49822243449648
 Total Coulomb        Energy = 732.77973010550295
 Nuclear repulsion Energy = 270.07355127683337
 SCF   energy in the final basis set =    -1038.2266726281
 Total energy in the final basis set =    -1038.2266726281
 
 --------------------------------------------------------------
 
                    Orbital Energies (a.u.)
 --------------------------------------------------------------
 
 Alpha MOs
 -- Occupied --
*******-101.530 -10.265 -10.256 -10.211  -9.455  -9.443  -7.219
 -7.215  -7.210  -7.207  -7.200  -7.196  -0.850  -0.802  -0.778
 -0.723  -0.605  -0.510  -0.467  -0.453  -0.406  -0.397  -0.390
 -0.367  -0.318  -0.311  -0.289  -0.275  -0.242
 -- Virtual --
 -0.036   0.082   0.107   0.116   0.152   0.154   0.157   0.242
  0.289   0.358   0.397   0.417   0.440   0.467   0.484   0.500
  0.508   0.525   0.535   0.572   0.592   0.649   0.661   0.678
  0.705   0.726   0.747   0.815   0.827   0.845   0.852   0.855
  0.875   0.881   0.883   0.895   0.909   0.916   0.926   0.945
  1.058   1.146   1.179   1.277   1.312   1.350   1.436   1.474
  1.616   1.766   1.821   1.850   1.877   1.929   2.016   2.053
  2.066   2.090   2.195   2.243   2.320   2.357   2.375   2.448
  2.520   2.577   2.625   2.657   2.781   2.821   2.857   2.940
  3.160   3.235   3.373   3.398   3.425   3.560   4.192   4.253
  4.274   4.421   4.577
 
 Beta MOs
 -- Occupied --
*******-101.524 -10.259 -10.252 -10.211  -9.449  -9.438  -7.207
 -7.206  -7.204  -7.196  -7.195  -7.193  -0.831  -0.771  -0.743
 -0.713  -0.595  -0.506  -0.461  -0.441  -0.403  -0.393  -0.349
 -0.318  -0.306  -0.283  -0.277
 -- Virtual --
 -0.165  -0.152   0.005   0.085   0.109   0.119   0.154   0.159
  0.161   0.246   0.294   0.369   0.416   0.421   0.448   0.479
  0.488   0.513   0.521   0.541   0.554   0.589   0.606   0.668
  0.674   0.693   0.719   0.740   0.756   0.824   0.835   0.854
  0.867   0.875   0.898   0.903   0.912   0.922   0.930   0.937
  0.940   0.961   1.090   1.156   1.190   1.290   1.326   1.366
  1.449   1.482   1.620   1.772   1.837   1.861   1.887   1.942
  2.018   2.055   2.068   2.092   2.208   2.245   2.325   2.370
  2.380   2.455   2.528   2.586   2.630   2.661   2.784   2.823
  2.861   2.942   3.162   3.237   3.378   3.401   3.426   3.564
  4.203   4.269   4.289   4.425   4.587
 --------------------------------------------------------------
 
          Ground-State Mulliken Net Atomic Charges

     Atom                 Charge (a.u.)    Spin (a.u.)
  --------------------------------------------------------
      1 Cl                   -0.203969       0.688728
      2 Cl                   -0.155318       0.694500
      3 C                    -0.016735       0.386413
      4 C                    -0.210045       0.258956
      5 C                    -0.334892      -0.023375
      6 H                     0.160412      -0.014885
      7 H                     0.165255      -0.008695
      8 H                     0.167841      -0.011453
      9 H                     0.150183       0.010744
     10 H                     0.133392       0.016901
     11 H                     0.143877       0.002166
  --------------------------------------------------------
  Sum of atomic charges =     0.000000
  Sum of spin   charges =     2.000000

 -----------------------------------------------------------------
                    Cartesian Multipole Moments
 -----------------------------------------------------------------
    Charge (ESU x 10^10)
                -0.0000
    Dipole Moment (Debye)
         X      -1.7904      Y      -4.0746      Z      -1.6909
       Tot       4.7610
    Quadrupole Moments (Debye-Ang)
        XX     -45.1361     XY      -1.4527     YY     -48.3513
        XZ       0.3864     YZ      -1.1449     ZZ     -43.1872
    Octopole Moments (Debye-Ang^2)
       XXX     -32.8000    XXY     -26.7880    XYY     -10.3732
       YYY     -80.4290    XXZ       3.2928    XYZ       3.1070
       YYZ       2.8229    XZZ     -10.3665    YZZ     -25.7580
       ZZZ       1.9307
    Hexadecapole Moments (Debye-Ang^3)
      XXXX    -295.7393   XXXY     -92.9431   XXYY    -138.7411
      XYYY     -86.2991   YYYY    -537.1575   XXXZ      67.3119
      XXYZ       0.8147   XYYZ      24.7819   YYYZ      -3.3694
      XXZZ     -98.3861   XYZZ     -33.3153   YYZZ    -144.2254
      XZZZ      63.9975   YZZZ      -7.5584   ZZZZ    -295.5669
 -----------------------------------------------------------------
 Calculating analytic gradient of the SCF energy
 Gradient of SCF Energy
            1           2           3           4           5           6
    1  -0.0020622  -0.0012870   0.0015459   0.0023922   0.0004770  -0.0007641
    2  -0.0083911  -0.0020955   0.0047980   0.0031728   0.0017371   0.0010831
    3  -0.0050910  -0.0008032   0.0037040   0.0011372   0.0007659   0.0004039
            7           8           9          10          11
    1   0.0000902  -0.0003618   0.0000831  -0.0001368   0.0000237
    2   0.0001441  -0.0002220   0.0000492  -0.0000851  -0.0001905
    3  -0.0001238  -0.0000111   0.0000239   0.0000995  -0.0001053
 Max gradient component =       8.391E-03
 RMS gradient           =       2.267E-03
 Gradient time:  CPU 9.22 s  wall 0.78 s
 Geometry Optimization Parameters
   NAtoms,    NIC,     NZ,  NCons,   NDum,   NFix, NCnnct, MaxDiis
       11      88       0       1       0       0       0       0

 Cartesian Hessian Update
 Hessian Updated using BFGS Update


** CONSTRAINED OPTIMIZATION IN DELOCALIZED INTERNAL COORDINATES **
   Searching for a Minimum

   Optimization Cycle:   3

                       Coordinates (Angstroms)
     ATOM                X               Y               Z
      1  Cl       -0.3315491081    1.5416010286    1.0649292783
      2  Cl        1.5844366091    1.4752328973   -0.7782949338
      3  C        -0.7397892269   -0.4806811551   -0.3470613543
      4  C         0.1164524037   -0.2472568332   -1.4341957952
      5  C        -0.4522338486   -1.5210479414    0.6855941495
      6  H        -1.7495549346   -0.0852854455   -0.4031988578
      7  H         0.9610774252   -0.9061758338   -1.5978824076
      8  H        -0.2468689888    0.3016715486   -2.2940327476
      9  H        -0.9140535642   -1.2758196215    1.6431705177
     10  H        -0.8702073619   -2.4833540025    0.3532914831
     11  H         0.6225925950   -1.6534846414    0.8324826678
   Point Group: c1    Number of degrees of freedom:    27


   Energy is  -1038.226672628

              Constraints and their Current Values
                                        Value     Constraint
   Distance(Angs):        1   3             2.500001     2.500000
 Hessian Updated using BFGS Update

   Using Lagrange Multiplier Algorithm


 28 Hessian modes will be used to form the next step
  Hessian Eigenvalues:
    -0.984427    0.024919    0.045341    0.046544    0.059016    0.069672
     0.071898    0.076054    0.079949    0.081987    0.084587    0.088031
     0.116027    0.133165    0.135441    0.154218    0.159941    0.160000
     0.161530    0.331586    0.336105    0.344767    0.346443    0.354743
     0.356432    0.401360    0.439997    1.019595

 Minimum Search - Taking P-RFO Step
 Searching for Lamda that Maximizes Along the Constraint modes Only
 Value Taken    Lamda =   0.00000001
 Searching for Lamda that Minimizes Along All other modes
 Value Taken    Lamda =  -0.00039358
 Step Taken.  Stepsize is  0.122004

                             Maximum     Tolerance    Cnvgd?
         Gradient            0.001448       0.000300      NO
         Displacement        0.056517       0.001200      NO
         Energy change     -0.000131       0.000001      NO


 New Cartesian Coordinates Obtained by Inverse Iteration

 Displacement from previous Coordinates is:  0.115014
 ----------------------------------------------------------------
             Standard Nuclear Orientation (Angstroms)
    I     Atom           X                Y                Z
 ----------------------------------------------------------------
    1      Cl     -0.3258757998     1.5631274804     1.0537717721
    2      Cl      1.5967279116     1.5127683293    -0.7773614742
    3      C      -0.7383668291    -0.4728098191    -0.3372037249
    4      C       0.1107115426    -0.2561005541    -1.4315086971
    5      C      -0.4543615387    -1.5276155109     0.6844948309
    6      H      -1.7455359893    -0.0841011940    -0.3966271347
    7      H       0.9530609008    -0.9195163331    -1.5887914526
    8      H      -0.2473160813     0.2897166265    -2.2954485698
    9      H      -0.9170769310    -1.2943664173     1.6445918146
   10      H      -0.8720027870    -2.4845154396     0.3378660932
   11      H       0.6203376012    -1.6611871680     0.8310185424
 ----------------------------------------------------------------
 Nuclear Repulsion Energy =   269.0294113805 hartrees
 There are       30 alpha and       28 beta electrons

                       Distance Matrix (Angstroms)
             Cl(  1)   Cl(  2)   C (  3)   C (  4)   C (  5)   H (  6)
   Cl(  2)  2.655558
   C (  3)  2.500000  3.096599
   C (  4)  3.110758  2.401052  1.401927
   C (  5)  3.115376  3.948155  1.495708  2.532495
   H (  6)  2.613896  3.723665  1.081210  2.132186  2.218037
   H (  7)  3.844781  2.643621  2.151034  1.083702  2.741980  3.066203
   H (  8)  3.583995  2.683457  2.158078  1.082817  3.496516  2.447432
   H (  9)  2.977223  4.479406  2.152767  3.405399  1.091007  2.513496
   H ( 10)  4.146588  4.828731  2.126156  3.010357  1.100106  2.657918
   H ( 11)  3.367661  3.689745  2.150131  2.711645  1.092835  3.097042
             H (  7)   H (  8)   H (  9)   H ( 10)
   H (  8)  1.844590
   H (  9)  3.754024  4.299048
   H ( 10)  3.080923  3.875686  1.768055
   H ( 11)  2.552697  3.785980  1.777668  1.774302
 
 Applying Cartesian multipole field
    Component          Value
    ---------          -----
     (2,0,0)        1.00000E-11
     (0,2,0)        2.00000E-11
     (0,0,2)       -3.00000E-11
 Nucleus-field energy     =     0.0000000036 hartrees
 Requested basis set is 6-31G(d,p)
 There are 40 shells and 113 basis functions
 A cutoff of  1.0D-14 yielded    779 shell pairs
 There are      6386 function pairs
 Smallest overlap matrix eigenvalue = 5.16E-03
 Guess from superposition of atomic densities
 Warning:  Energy on first SCF cycle will be non-variational
 SAD guess density has 58.000000 electrons

 -----------------------------------------------------------------------
  General SCF calculation program by
  Eric Jon Sundstrom, Paul Horn, Yuezhi Mao, Dmitri Zuev, Alec White,
  David Stuck, Shaama M.S., Shane Yost, Joonho Lee, David Small,
  Daniel Levine, Susi Lehtola, Hugh Burton, Evgeny Epifanovsky
 -----------------------------------------------------------------------
 Exchange:     0.2000 Hartree-Fock + 0.0800 Slater + 0.7200 B88
 Correlation:  0.1900 VWN1RPA + 0.8100 LYP
 Using SG-1 standard quadrature grid
 using 12 threads for integral computing
 -------------------------------------------------------
 OpenMP Integral computing Module                
 Release: version 1.0, May 2013, Q-Chem Inc. Pittsburgh 
 -------------------------------------------------------
 -------------------------------------------------------
 OpenMP BLAS3 based DFT computing Module                
 Release: version 1.0, May 2013, Q-Chem Inc. Pittsburgh 
 -------------------------------------------------------
 A unrestricted SCF calculation will be
 performed using DIIS
 SCF converges when DIIS error is below 1.0e-06
 Alpha HF Exchange    Energy =  -7.25962620059524
 Beta HF Exchange     Energy =  -7.25962620059524
 DFT Correlation      Energy =  -2.75806538312229
 DFT Exchange         Energy = -57.30596672375928
 One-Electron (alpha) Energy = -980.13968338258496
 One-Electron (beta)  Energy = -980.13968338258496
 Total Coulomb        Energy = 727.31045249926012
 ---------------------------------------
  Cycle       Energy         DIIS error
 ---------------------------------------
    1   -1038.5227873898      2.57e-02  
 Alpha HF Exchange    Energy =  -7.39957439900507
 Beta HF Exchange     Energy =  -7.16674464526591
 DFT Correlation      Energy =  -2.77815027732917
 DFT Exchange         Energy = -57.83772610230078
 One-Electron (alpha) Energy = -1000.86225901453281
 One-Electron (beta)  Energy = -966.41264072521722
 Total Coulomb        Energy = 735.25194813383689
    2   -1038.1757356456      2.68e-03  
 Alpha HF Exchange    Energy =  -7.35552816213222
 Beta HF Exchange     Energy =  -7.12334868747767
 DFT Correlation      Energy =  -2.75817501046099
 DFT Exchange         Energy = -57.45821734237900
 One-Electron (alpha) Energy = -998.01651974580579
 One-Electron (beta)  Energy = -963.34565626171036
 Total Coulomb        Energy = 728.85284681099972
    3   -1038.1751870148      2.72e-03  
 Alpha HF Exchange    Energy =  -7.37522428452820
 Beta HF Exchange     Energy =  -7.13772090691728
 DFT Correlation      Energy =  -2.76731129847577
 DFT Exchange         Energy = -57.60991514659058
 One-Electron (alpha) Energy = -999.41496249201225
 One-Electron (beta)  Energy = -964.42166207856167
 Total Coulomb        Energy = 731.47415751505719
    4   -1038.2232273079      6.31e-04  
 Alpha HF Exchange    Energy =  -7.37816331266117
 Beta HF Exchange     Energy =  -7.14054844359989
 DFT Correlation      Energy =  -2.76752775223282
 DFT Exchange         Energy = -57.62911405401955
 One-Electron (alpha) Energy = -999.58326934265028
 One-Electron (beta)  Energy = -964.55843594839564
 Total Coulomb        Energy = 731.80164286327954
    5   -1038.2260046061      3.13e-04  
 Alpha HF Exchange    Energy =  -7.37861767353122
 Beta HF Exchange     Energy =  -7.14023206689053
 DFT Correlation      Energy =  -2.76747604291749
 DFT Exchange         Energy = -57.62957596072204
 One-Electron (alpha) Energy = -999.61632439387256
 One-Electron (beta)  Energy = -964.54068550809404
 Total Coulomb        Energy = 731.81668423112740
    6   -1038.2268160307      1.02e-04  
 Alpha HF Exchange    Energy =  -7.37821601600598
 Beta HF Exchange     Energy =  -7.13954207609095
 DFT Correlation      Energy =  -2.76741712588561
 DFT Exchange         Energy = -57.62578694378941
 One-Electron (alpha) Energy = -999.59300945441885
 One-Electron (beta)  Energy = -964.48689781346775
 Total Coulomb        Energy = 731.73455662056585
    7   -1038.2269014249      3.60e-05  
 Alpha HF Exchange    Energy =  -7.37829386856270
 Beta HF Exchange     Energy =  -7.13957497858583
 DFT Correlation      Energy =  -2.76738310070962
 DFT Exchange         Energy = -57.62587233653763
 One-Electron (alpha) Energy = -999.59889274603381
 One-Electron (beta)  Energy = -964.48511687717519
 Total Coulomb        Energy = 731.73881021285342
    8   -1038.2269123106      9.03e-06  
 Alpha HF Exchange    Energy =  -7.37837526206154
 Beta HF Exchange     Energy =  -7.13957542891940
 DFT Correlation      Energy =  -2.76739572120667
 DFT Exchange         Energy = -57.62620242073731
 One-Electron (alpha) Energy = -999.60634700396474
 One-Electron (beta)  Energy = -964.48474775789373
 Total Coulomb        Energy = 731.74631858622706
    9   -1038.2269136244      3.37e-06  
 Alpha HF Exchange    Energy =  -7.37836503050356
 Beta HF Exchange     Energy =  -7.13955577697709
 DFT Correlation      Energy =  -2.76738710869757
 DFT Exchange         Energy = -57.62605536024616
 One-Electron (alpha) Energy = -999.60534177536067
 One-Electron (beta)  Energy = -964.48149690416028
 Total Coulomb        Energy = 731.74187654753803
   10   -1038.2269140242      1.74e-06  
 Alpha HF Exchange    Energy =  -7.37837339280997
 Beta HF Exchange     Energy =  -7.13956550863890
 DFT Correlation      Energy =  -2.76738738988017
 DFT Exchange         Energy = -57.62610972567497
 One-Electron (alpha) Energy = -999.60623142704333
 One-Electron (beta)  Energy = -964.48183781848275
 Total Coulomb        Energy = 731.74317970213338
   11   -1038.2269141762      7.48e-07  Convergence criterion met
 ---------------------------------------
 SCF time:   CPU 29.17s  wall 2.00s 
<S^2> =          2.004560478
 Alpha HF Exchange    Energy =  -7.37837339280997
 Beta HF Exchange     Energy =  -7.13956550863890
 DFT Correlation      Energy =  -2.76738738988017
 DFT Exchange         Energy = -57.62610972567497
 One-Electron (alpha) Energy = -999.60623142704333
 One-Electron (beta)  Energy = -964.48183781848275
 Total Coulomb        Energy = 731.74317970213338
 Nuclear repulsion Energy = 269.02941138416759
 SCF   energy in the final basis set =    -1038.2269141762
 Total energy in the final basis set =    -1038.2269141762
 
 --------------------------------------------------------------
 
                    Orbital Energies (a.u.)
 --------------------------------------------------------------
 
 Alpha MOs
 -- Occupied --
*******-101.530 -10.267 -10.257 -10.212  -9.453  -9.444  -7.217
 -7.213  -7.210  -7.206  -7.201  -7.197  -0.849  -0.802  -0.777
 -0.724  -0.606  -0.511  -0.467  -0.454  -0.407  -0.398  -0.389
 -0.366  -0.318  -0.311  -0.289  -0.273  -0.245
 -- Virtual --
 -0.039   0.082   0.107   0.116   0.151   0.155   0.156   0.241
  0.287   0.358   0.398   0.417   0.439   0.466   0.484   0.501
  0.509   0.525   0.536   0.571   0.590   0.649   0.661   0.677
  0.704   0.725   0.750   0.817   0.827   0.846   0.853   0.856
  0.876   0.882   0.883   0.895   0.908   0.914   0.924   0.942
  1.059   1.141   1.173   1.276   1.307   1.346   1.427   1.472
  1.613   1.763   1.820   1.853   1.878   1.928   2.014   2.051
  2.062   2.089   2.195   2.241   2.318   2.353   2.376   2.449
  2.520   2.580   2.624   2.657   2.780   2.819   2.857   2.941
  3.159   3.236   3.377   3.397   3.424   3.564   4.189   4.255
  4.273   4.415   4.574
 
 Beta MOs
 -- Occupied --
*******-101.525 -10.261 -10.252 -10.212  -9.447  -9.439  -7.205
 -7.204  -7.202  -7.196  -7.195  -7.193  -0.831  -0.770  -0.742
 -0.713  -0.597  -0.506  -0.461  -0.443  -0.404  -0.394  -0.346
 -0.318  -0.306  -0.283  -0.276
 -- Virtual --
 -0.164  -0.156   0.002   0.085   0.109   0.118   0.154   0.158
  0.161   0.246   0.293   0.369   0.416   0.421   0.447   0.478
  0.488   0.513   0.522   0.540   0.555   0.589   0.605   0.666
  0.673   0.692   0.718   0.739   0.758   0.825   0.836   0.853
  0.868   0.876   0.898   0.903   0.912   0.922   0.929   0.935
  0.937   0.958   1.091   1.151   1.184   1.289   1.321   1.361
  1.440   1.481   1.618   1.768   1.836   1.864   1.889   1.939
  2.017   2.053   2.065   2.091   2.207   2.243   2.322   2.365
  2.382   2.457   2.528   2.589   2.629   2.661   2.783   2.821
  2.861   2.944   3.161   3.238   3.381   3.399   3.424   3.568
  4.201   4.271   4.288   4.420   4.584
 --------------------------------------------------------------
 
          Ground-State Mulliken Net Atomic Charges

     Atom                 Charge (a.u.)    Spin (a.u.)
  --------------------------------------------------------
      1 Cl                   -0.203753       0.685288
      2 Cl                   -0.164579       0.701939
      3 C                    -0.016846       0.356100
      4 C                    -0.199738       0.286635
      5 C                    -0.336546      -0.021322
      6 H                     0.161558      -0.013599
      7 H                     0.163042      -0.010380
      8 H                     0.166976      -0.012599
      9 H                     0.150246       0.010203
     10 H                     0.134775       0.015820
     11 H                     0.144865       0.001916
  --------------------------------------------------------
  Sum of atomic charges =    -0.000000
  Sum of spin   charges =     2.000000

 -----------------------------------------------------------------
                    Cartesian Multipole Moments
 -----------------------------------------------------------------
    Charge (ESU x 10^10)
                -0.0000
    Dipole Moment (Debye)
         X      -1.8702      Y      -4.1922      Z      -1.6595
       Tot       4.8812
    Quadrupole Moments (Debye-Ang)
        XX     -45.2399     XY      -1.5443     YY     -48.4318
        XZ       0.4516     YZ      -1.0403     ZZ     -43.1620
    Octopole Moments (Debye-Ang^2)
       XXX     -33.6667    XXY     -27.7869    XYY     -10.8822
       YYY     -83.0170    XXZ       3.3625    XYZ       3.1552
       YYZ       3.0987    XZZ     -10.6005    YZZ     -26.5481
       ZZZ       2.1689
    Hexadecapole Moments (Debye-Ang^3)
      XXXX    -298.7651   XXXY     -96.4552   XXYY    -142.1242
      XYYY     -89.9497   YYYY    -552.0757   XXXZ      67.2995
      XXYZ       1.0314   XYYZ      24.9042   YYYZ      -1.9385
      XXZZ     -98.4451   XYZZ     -34.2559   YYZZ    -146.1194
      XZZZ      64.1497   YZZZ      -6.5838   ZZZZ    -292.7383
 -----------------------------------------------------------------
 Calculating analytic gradient of the SCF energy
 Gradient of SCF Energy
            1           2           3           4           5           6
    1  -0.0013096  -0.0010519  -0.0010159   0.0020294   0.0001096   0.0021533
    2  -0.0061749  -0.0006889   0.0066818   0.0028252  -0.0002778  -0.0006413
    3  -0.0043840   0.0002110   0.0032229   0.0013205   0.0004144   0.0000621
            7           8           9          10          11
    1  -0.0007595  -0.0004028   0.0001963   0.0000218   0.0000293
    2  -0.0007849  -0.0008267  -0.0000012  -0.0000893  -0.0000218
    3  -0.0004325  -0.0003800  -0.0000802   0.0001575  -0.0001116
 Max gradient component =       6.682E-03
 RMS gradient           =       2.048E-03
 Gradient time:  CPU 9.53 s  wall 0.81 s
 Geometry Optimization Parameters
   NAtoms,    NIC,     NZ,  NCons,   NDum,   NFix, NCnnct, MaxDiis
       11      88       0       1       0       0       0       0

 Cartesian Hessian Update
 Hessian Updated using BFGS Update


** CONSTRAINED OPTIMIZATION IN DELOCALIZED INTERNAL COORDINATES **
   Searching for a Minimum

   Optimization Cycle:   4

                       Coordinates (Angstroms)
     ATOM                X               Y               Z
      1  Cl       -0.3258757998    1.5631274804    1.0537717721
      2  Cl        1.5967279116    1.5127683293   -0.7773614742
      3  C        -0.7383668291   -0.4728098191   -0.3372037249
      4  C         0.1107115426   -0.2561005541   -1.4315086971
      5  C        -0.4543615387   -1.5276155109    0.6844948309
      6  H        -1.7455359893   -0.0841011940   -0.3966271347
      7  H         0.9530609008   -0.9195163331   -1.5887914526
      8  H        -0.2473160813    0.2897166265   -2.2954485698
      9  H        -0.9170769310   -1.2943664173    1.6445918146
     10  H        -0.8720027870   -2.4845154396    0.3378660932
     11  H         0.6203376012   -1.6611871680    0.8310185424
   Point Group: c1    Number of degrees of freedom:    27


   Energy is  -1038.226914176

              Constraints and their Current Values
                                        Value     Constraint
   Distance(Angs):        1   3             2.500000     2.500000
 Hessian Updated using BFGS Update

 26 Hessian modes will be used to form the next step
  Hessian Eigenvalues:
     0.016261    0.045376    0.046440    0.058245    0.070038    0.072027
     0.077189    0.081856    0.084170    0.084931    0.088016    0.118151
     0.133512    0.135859    0.154918    0.159942    0.160138    0.161663
     0.331667    0.336165    0.344772    0.346521    0.355117    0.356434
     0.423193    0.453198

 Minimum Search - Taking Simple RFO Step
 Searching for Lamda that Minimizes Along All modes
 Value Taken    Lamda =  -0.00010032
 Step Taken.  Stepsize is  0.067755

                             Maximum     Tolerance    Cnvgd?
         Gradient           0.001450      0.000300      NO
         Displacement       0.034953      0.001200      NO
         Energy change     -0.000242      0.000001      NO


 New Cartesian Coordinates Obtained by Inverse Iteration

 Displacement from previous Coordinates is:  0.053623
 ----------------------------------------------------------------
             Standard Nuclear Orientation (Angstroms)
    I     Atom           X                Y                Z
 ----------------------------------------------------------------
    1      Cl     -0.3215880739     1.5709292160     1.0482475153
    2      Cl      1.6045268556     1.5310232609    -0.7809057183
    3      C      -0.7376810085    -0.4711061593    -0.3326799143
    4      C       0.1067169231    -0.2623813717    -1.4315742046
    5      C      -0.4557962011    -1.5307698397     0.6847711010
    6      H      -1.7464697679    -0.0847404805    -0.3928788676
    7      H       0.9532497309    -0.9213354563    -1.5847204792
    8      H      -0.2475249219     0.2869255226    -2.2947706053
    9      H      -0.9203870839    -1.3027800391     1.6453711843
   10      H      -0.8732868768    -2.4849908166     0.3311082073
   11      H       0.6185424244    -1.6653738363     0.8328337814
 ----------------------------------------------------------------
 Nuclear Repulsion Energy =   268.4272590004 hartrees
 There are       30 alpha and       28 beta electrons

                       Distance Matrix (Angstroms)
             Cl(  1)   Cl(  2)   C (  3)   C (  4)   C (  5)   H (  6)
   Cl(  2)  2.656560
   C (  3)  2.500000  3.113738
   C (  4)  3.113517  2.425511  1.401479
   C (  5)  3.125806  3.970858  1.495845  2.530642
   H (  6)  2.616940  3.740379  1.081923  2.131841  2.217694
   H (  7)  3.843061  2.661643  2.151641  1.083648  2.739966  3.067387
   H (  8)  3.581888  2.696231  2.159784  1.082743  3.496436  2.449931
   H (  9)  2.995550  4.504714  2.153543  3.406606  1.091135  2.514060
   H ( 10)  4.155616  4.848144  2.124791  3.001241  1.099961  2.654771
   H ( 11)  3.376967  3.713930  2.150358  2.712544  1.092815  3.097427
             H (  7)   H (  8)   H (  9)   H ( 10)
   H (  8)  1.845515
   H (  9)  3.753599  4.301700
   H ( 10)  3.074354  3.869152  1.768369
   H ( 11)  2.551508  3.787275  1.777638  1.774558
 
 Applying Cartesian multipole field
    Component          Value
    ---------          -----
     (2,0,0)        1.00000E-11
     (0,2,0)        2.00000E-11
     (0,0,2)       -3.00000E-11
 Nucleus-field energy     =     0.0000000038 hartrees
 Requested basis set is 6-31G(d,p)
 There are 40 shells and 113 basis functions
 A cutoff of  1.0D-14 yielded    779 shell pairs
 There are      6386 function pairs
 Smallest overlap matrix eigenvalue = 5.19E-03
 Guess from superposition of atomic densities
 Warning:  Energy on first SCF cycle will be non-variational
 SAD guess density has 58.000000 electrons

 -----------------------------------------------------------------------
  General SCF calculation program by
  Eric Jon Sundstrom, Paul Horn, Yuezhi Mao, Dmitri Zuev, Alec White,
  David Stuck, Shaama M.S., Shane Yost, Joonho Lee, David Small,
  Daniel Levine, Susi Lehtola, Hugh Burton, Evgeny Epifanovsky
 -----------------------------------------------------------------------
 Exchange:     0.2000 Hartree-Fock + 0.0800 Slater + 0.7200 B88
 Correlation:  0.1900 VWN1RPA + 0.8100 LYP
 Using SG-1 standard quadrature grid
 using 12 threads for integral computing
 -------------------------------------------------------
 OpenMP Integral computing Module                
 Release: version 1.0, May 2013, Q-Chem Inc. Pittsburgh 
 -------------------------------------------------------
 -------------------------------------------------------
 OpenMP BLAS3 based DFT computing Module                
 Release: version 1.0, May 2013, Q-Chem Inc. Pittsburgh 
 -------------------------------------------------------
 A unrestricted SCF calculation will be
 performed using DIIS
 SCF converges when DIIS error is below 1.0e-06
 Alpha HF Exchange    Energy =  -7.25896200167464
 Beta HF Exchange     Energy =  -7.25896200167464
 DFT Correlation      Energy =  -2.75769727185941
 DFT Exchange         Energy = -57.30473946734964
 One-Electron (alpha) Energy = -979.53800964613197
 One-Electron (beta)  Energy = -979.53800964613197
 Total Coulomb        Energy = 726.71160695032893
 ---------------------------------------
  Cycle       Energy         DIIS error
 ---------------------------------------
    1   -1038.5175140803      2.57e-02  
 Alpha HF Exchange    Energy =  -7.39945719910478
 Beta HF Exchange     Energy =  -7.16651376834539
 DFT Correlation      Energy =  -2.77780781029240
 DFT Exchange         Energy = -57.83650433621527
 One-Electron (alpha) Energy = -1000.24809814651007
 One-Electron (beta)  Energy = -965.84045046844631
 Total Coulomb        Energy = 734.66530409458130
    2   -1038.1762686302      2.67e-03  
 Alpha HF Exchange    Energy =  -7.35523509379352
 Beta HF Exchange     Energy =  -7.12269836456645
 DFT Correlation      Energy =  -2.75787376461019
 DFT Exchange         Energy = -57.45542622590721
 One-Electron (alpha) Energy = -997.39841292040342
 One-Electron (beta)  Energy = -962.75958940814144
 Total Coulomb        Energy = 728.24474946258476
    3   -1038.1772273107      2.68e-03  
 Alpha HF Exchange    Energy =  -7.37516815723509
 Beta HF Exchange     Energy =  -7.13740383870975
 DFT Correlation      Energy =  -2.76701381248719
 DFT Exchange         Energy = -57.60893911106078
 One-Electron (alpha) Energy = -998.80584596737219
 One-Electron (beta)  Energy = -963.84460008535962
 Total Coulomb        Energy = 730.88775638235984
    4   -1038.2239555857      5.74e-04  
 Alpha HF Exchange    Energy =  -7.37808090465084
 Beta HF Exchange     Energy =  -7.14021221161920
 DFT Correlation      Energy =  -2.76718353799444
 DFT Exchange         Energy = -57.62777436807987
 One-Electron (alpha) Energy = -998.97189496302724
 One-Electron (beta)  Energy = -963.98042907128251
 Total Coulomb        Energy = 731.21223633873853
    5   -1038.2260797138      3.13e-04  
 Alpha HF Exchange    Energy =  -7.37844085304930
 Beta HF Exchange     Energy =  -7.13979683226076
 DFT Correlation      Energy =  -2.76714541386700
 DFT Exchange         Energy = -57.62767699969825
 One-Electron (alpha) Energy = -999.00070760069730
 One-Electron (beta)  Energy = -963.95886082934294
 Total Coulomb        Energy = 731.21848006265338
    6   -1038.2268894621      1.05e-04  
 Alpha HF Exchange    Energy =  -7.37804905413650
 Beta HF Exchange     Energy =  -7.13911431959268
 DFT Correlation      Energy =  -2.76708610898797
 DFT Exchange         Energy = -57.62395020990193
[...]

 Minimum Search - Taking Simple RFO Step
 Searching for Lamda that Minimizes Along All modes
 Value Taken    Lamda =   0.00000000
 Step Taken.  Stepsize is  0.008814

                             Maximum     Tolerance    Cnvgd?
         Gradient           0.000091      0.000300     YES
         Displacement       0.004017      0.001200      NO
         Energy change     -0.000001      0.000001      NO


 New Cartesian Coordinates Obtained by Inverse Iteration

 Displacement from previous Coordinates is:  0.009340
 ----------------------------------------------------------------
             Standard Nuclear Orientation (Angstroms)
    I     Atom           X                Y                Z
 ----------------------------------------------------------------
    1      Cl     -0.2949674784     1.5581043470     1.0300371572
    2      Cl      1.6628046284     1.5818619304    -0.7943892272
    3      C      -0.7496087276    -0.4869159733    -0.3342192686
    4      C       0.0803418318    -0.2853739148    -1.4411001085
    5      C      -0.4636096697    -1.5375015537     0.6903736715
    6      H      -1.7613488278    -0.0986140452    -0.3885663924
    7      H       0.9619870641    -0.8991435950    -1.5801349126
    8      H      -0.2576471937     0.3000717113    -2.2863297442
    9      H      -0.9455017499    -1.3128650567     1.6431287199
   10      H      -0.8625713427    -2.4984002538     0.3333804295
   11      H       0.6104234657    -1.6558235962     0.8526216753
 ----------------------------------------------------------------
 Nuclear Repulsion Energy =   266.1309673235 hartrees
 There are       30 alpha and       28 beta electrons

                       Distance Matrix (Angstroms)
             Cl(  1)   Cl(  2)   C (  3)   C (  4)   C (  5)   H (  6)
   Cl(  2)  2.676185
   C (  3)  2.500000  3.211127
   C (  4)  3.105767  2.531599  1.398078
   C (  5)  3.118748  4.056672  1.495097  2.531183
   H (  6)  2.628198  3.835820  1.085058  2.129444  2.217800
   H (  7)  3.798816  2.695168  2.156803  1.083209  2.755909  3.078513
   H (  8)  3.547158  2.749001  2.161507  1.082311  3.504263  2.453890
   H (  9)  3.006916  4.596107  2.151853  3.408894  1.091065  2.503557
   H ( 10)  4.154845  4.929293  2.122385  2.989206  1.099973  2.662326
   H ( 11)  3.343732  3.781899  2.150494  2.724019  1.092644  3.096894
             H (  7)   H (  8)   H (  9)   H ( 10)
   H (  8)  1.850496
   H (  9)  3.768170  4.302947
   H ( 10)  3.090012  3.880755  1.768562
   H ( 11)  2.571860  3.798959  1.778602  1.774616
 
 Applying Cartesian multipole field
    Component          Value
    ---------          -----
     (2,0,0)        1.00000E-11
     (0,2,0)        2.00000E-11
     (0,0,2)       -3.00000E-11
 Nucleus-field energy     =     0.0000000041 hartrees
 Requested basis set is 6-31G(d,p)
 There are 40 shells and 113 basis functions
 A cutoff of  1.0D-14 yielded    777 shell pairs
 There are      6365 function pairs
 Smallest overlap matrix eigenvalue = 5.22E-03
 Guess from superposition of atomic densities
 Warning:  Energy on first SCF cycle will be non-variational
 SAD guess density has 58.000000 electrons

 -----------------------------------------------------------------------
  General SCF calculation program by
  Eric Jon Sundstrom, Paul Horn, Yuezhi Mao, Dmitri Zuev, Alec White,
  David Stuck, Shaama M.S., Shane Yost, Joonho Lee, David Small,
  Daniel Levine, Susi Lehtola, Hugh Burton, Evgeny Epifanovsky
 -----------------------------------------------------------------------
 Exchange:     0.2000 Hartree-Fock + 0.0800 Slater + 0.7200 B88
 Correlation:  0.1900 VWN1RPA + 0.8100 LYP
 Using SG-1 standard quadrature grid
 using 12 threads for integral computing
 -------------------------------------------------------
 OpenMP Integral computing Module                
 Release: version 1.0, May 2013, Q-Chem Inc. Pittsburgh 
 -------------------------------------------------------
 -------------------------------------------------------
 OpenMP BLAS3 based DFT computing Module                
 Release: version 1.0, May 2013, Q-Chem Inc. Pittsburgh 
 -------------------------------------------------------
 A unrestricted SCF calculation will be
 performed using DIIS
 SCF converges when DIIS error is below 1.0e-06
 Alpha HF Exchange    Energy =  -7.25673991366074
 Beta HF Exchange     Energy =  -7.25673991366074
 DFT Correlation      Energy =  -2.75635704665981
 DFT Exchange         Energy = -57.30062605315076
 One-Electron (alpha) Energy = -977.24169280972853
 One-Electron (beta)  Energy = -977.24169280972853
 Total Coulomb        Energy = 724.42252169953940
 ---------------------------------------
  Cycle       Energy         DIIS error
 ---------------------------------------
    1   -1038.5003595195      2.56e-02  
 Alpha HF Exchange    Energy =  -7.39916678114032
 Beta HF Exchange     Energy =  -7.16592937071486
 DFT Correlation      Energy =  -2.77651298392075
 DFT Exchange         Energy = -57.83321469859388
 One-Electron (alpha) Energy = -997.88885173838446
 One-Electron (beta)  Energy = -963.67258639656882
 Total Coulomb        Energy = 732.42774116690509
    2   -1038.1775534749      2.64e-03  
 Alpha HF Exchange    Energy =  -7.35421081602989
 Beta HF Exchange     Energy =  -7.12054545801146
 DFT Correlation      Energy =  -2.75673697675894
 DFT Exchange         Energy = -57.44595557169501
 One-Electron (alpha) Energy = -995.01720066122152
 One-Electron (beta)  Energy = -960.53986578416800
 Total Coulomb        Energy = 725.92071828117719
    3   -1038.1828296592      2.56e-03  
 Alpha HF Exchange    Energy =  -7.37503964437695
 Beta HF Exchange     Energy =  -7.13645426759113
 DFT Correlation      Energy =  -2.76581702430883
 DFT Exchange         Energy = -57.60581938802780
 One-Electron (alpha) Energy = -996.45115593043931
 One-Electron (beta)  Energy = -961.64950130487637
 Total Coulomb        Energy = 728.62667775372449
    4   -1038.2261424784      3.45e-04  
 Alpha HF Exchange    Energy =  -7.37818255713923
 Beta HF Exchange     Energy =  -7.13938624713293
 DFT Correlation      Energy =  -2.76588409089898
 DFT Exchange         Energy = -57.62527664665883
 One-Electron (alpha) Energy = -996.63947604251780
 One-Electron (beta)  Energy = -961.81316743690036
 Total Coulomb        Energy = 729.00356557691850
    5   -1038.2268401168      2.02e-04  
 Alpha HF Exchange    Energy =  -7.37769868059917
 Beta HF Exchange     Energy =  -7.13803601157605
 DFT Correlation      Energy =  -2.76587786559643
 DFT Exchange         Energy = -57.61974711409577
 One-Electron (alpha) Energy = -996.61624221076499
 One-Electron (beta)  Energy = -961.72573344383920
 Total Coulomb        Energy = 728.88521655055877
    6   -1038.2271514484      6.48e-05  
 Alpha HF Exchange    Energy =  -7.37759808297321
 Beta HF Exchange     Energy =  -7.13784009627016
 DFT Correlation      Energy =  -2.76577808279656
 DFT Exchange         Energy = -57.61814062236554
 One-Electron (alpha) Energy = -996.60738590777976
 One-Electron (beta)  Energy = -961.70015988282603
 Total Coulomb        Energy = 728.84876083805455
    7   -1038.2271745094      3.48e-05  
 Alpha HF Exchange    Energy =  -7.37767348256589
 Beta HF Exchange     Energy =  -7.13784814204068
 DFT Correlation      Energy =  -2.76577836292958
 DFT Exchange         Energy = -57.61837895618316
 One-Electron (alpha) Energy = -996.61431462987809
 One-Electron (beta)  Energy = -961.70225659006655
 Total Coulomb        Energy = 728.85809775393329
    8   -1038.2271850822      1.35e-05  
 Alpha HF Exchange    Energy =  -7.37774782238369
 Beta HF Exchange     Energy =  -7.13783409563138
 DFT Correlation      Energy =  -2.76578867263472
 DFT Exchange         Energy = -57.61863630912286
 One-Electron (alpha) Energy = -996.62055524316804
 One-Electron (beta)  Energy = -961.70076987166590
 Total Coulomb        Energy = 728.86317750866374
    9   -1038.2271871784      3.17e-06  
 Alpha HF Exchange    Energy =  -7.37774421265682
 Beta HF Exchange     Energy =  -7.13781168557859
 DFT Correlation      Energy =  -2.76578139067409
 DFT Exchange         Energy = -57.61851152259283
 One-Electron (alpha) Energy = -996.61994155503680
 One-Electron (beta)  Energy = -961.69784585906359
 Total Coulomb        Energy = 728.85948139830873
   10   -1038.2271874998      1.54e-06  
 Alpha HF Exchange    Energy =  -7.37775171912032
 Beta HF Exchange     Energy =  -7.13781491250125
 DFT Correlation      Energy =  -2.76578105685072
 DFT Exchange         Energy = -57.61854210741379
 One-Electron (alpha) Energy = -996.62056114524319
 One-Electron (beta)  Energy = -961.69792919352335
 Total Coulomb        Energy = 728.86022518174821
   11   -1038.2271876254      8.73e-07  Convergence criterion met
 ---------------------------------------
 SCF time:   CPU 28.56s  wall 2.00s 
<S^2> =          2.004620088
 Alpha HF Exchange    Energy =  -7.37775171912032
 Beta HF Exchange     Energy =  -7.13781491250125
 DFT Correlation      Energy =  -2.76578105685072
 DFT Exchange         Energy = -57.61854210741379
 One-Electron (alpha) Energy = -996.62056114524319
 One-Electron (beta)  Energy = -961.69792919352335
 Total Coulomb        Energy = 728.86022518174821
 Nuclear repulsion Energy = 266.13096732752513
 SCF   energy in the final basis set =    -1038.2271876254
 Total energy in the final basis set =    -1038.2271876254
 
 --------------------------------------------------------------
 
                    Orbital Energies (a.u.)
 --------------------------------------------------------------
 
 Alpha MOs
 -- Occupied --
*******-101.533 -10.272 -10.258 -10.215  -9.446  -9.446  -7.212
 -7.211  -7.205  -7.205  -7.199  -7.199  -0.849  -0.799  -0.775
 -0.727  -0.608  -0.514  -0.469  -0.455  -0.409  -0.399  -0.385
 -0.360  -0.315  -0.309  -0.287  -0.272  -0.254
 -- Virtual --
 -0.043   0.081   0.105   0.114   0.151   0.153   0.154   0.239
  0.287   0.356   0.398   0.418   0.436   0.464   0.482   0.502
  0.510   0.523   0.537   0.564   0.585   0.646   0.663   0.676
  0.706   0.725   0.767   0.820   0.826   0.847   0.853   0.856
  0.876   0.880   0.885   0.894   0.905   0.909   0.920   0.938
  1.053   1.138   1.175   1.270   1.293   1.335   1.407   1.451
  1.607   1.754   1.820   1.858   1.874   1.930   2.011   2.043
  2.056   2.088   2.174   2.241   2.309   2.350   2.381   2.452
  2.532   2.569   2.623   2.652   2.768   2.817   2.850   2.941
  3.156   3.233   3.380   3.394   3.421   3.569   4.182   4.256
  4.273   4.403   4.569
 
 Beta MOs
 -- Occupied --
*******-101.527 -10.268 -10.252 -10.215  -9.441  -9.441  -7.199
 -7.198  -7.198  -7.198  -7.196  -7.196  -0.833  -0.766  -0.739
 -0.716  -0.599  -0.509  -0.464  -0.446  -0.407  -0.396  -0.339
 -0.314  -0.303  -0.279  -0.275
 -- Virtual --
 -0.166  -0.163  -0.004   0.083   0.107   0.117   0.153   0.155
  0.158   0.243   0.293   0.368   0.416   0.422   0.444   0.476
  0.486   0.513   0.524   0.538   0.557   0.585   0.601   0.661
  0.673   0.690   0.720   0.739   0.774   0.827   0.833   0.853
  0.870   0.878   0.900   0.903   0.914   0.920   0.926   0.930
  0.933   0.956   1.086   1.151   1.184   1.283   1.303   1.352
  1.419   1.464   1.611   1.758   1.834   1.864   1.892   1.939
  2.013   2.045   2.059   2.090   2.186   2.244   2.314   2.355
  2.390   2.460   2.540   2.579   2.629   2.655   2.771   2.818
  2.853   2.943   3.158   3.235   3.384   3.396   3.422   3.573
  4.194   4.272   4.288   4.409   4.577
 --------------------------------------------------------------
 
          Ground-State Mulliken Net Atomic Charges

     Atom                 Charge (a.u.)    Spin (a.u.)
  --------------------------------------------------------
      1 Cl                   -0.199940       0.687766
      2 Cl                   -0.195077       0.709961
      3 C                    -0.023817       0.271801
      4 C                    -0.173363       0.362837
      5 C                    -0.337211      -0.014913
      6 H                     0.163759      -0.009850
      7 H                     0.162837      -0.013568
      8 H                     0.167022      -0.015648
      9 H                     0.150852       0.008124
     10 H                     0.136519       0.012002
     11 H                     0.148417       0.001488
  --------------------------------------------------------
  Sum of atomic charges =     0.000000
  Sum of spin   charges =     2.000000

 -----------------------------------------------------------------
                    Cartesian Multipole Moments
 -----------------------------------------------------------------
    Charge (ESU x 10^10)
                 0.0000
    Dipole Moment (Debye)
         X      -2.1465      Y      -4.4080      Z      -1.5497
       Tot       5.1419
    Quadrupole Moments (Debye-Ang)
        XX     -45.5672     XY      -1.9774     YY     -48.6218
        XZ       0.5768     YZ      -0.7817     ZZ     -43.0475
    Octopole Moments (Debye-Ang^2)
       XXX     -37.5664    XXY     -29.3872    XYY     -13.0593
       YYY     -85.6424    XXZ       3.8387    XYZ       3.3679
       YYZ       4.4634    XZZ     -11.5662    YZZ     -26.9640
       ZZZ       3.9085
    Hexadecapole Moments (Debye-Ang^3)
      XXXX    -316.4134   XXXY    -109.1566   XXYY    -149.7845
      XYYY    -103.6155   YYYY    -570.3128   XXXZ      68.2395
      XXYZ       2.4408   XYYZ      25.7529   YYYZ       4.5438
      XXZZ    -100.8537   XYZZ     -37.8115   YYZZ    -148.2562
      XZZZ      65.4606   YZZZ      -1.7025   ZZZZ    -291.4068
 -----------------------------------------------------------------
 Calculating analytic gradient of the SCF energy
 Gradient of SCF Energy
            1           2           3           4           5           6
    1  -0.0005644  -0.0000500   0.0004542   0.0000704   0.0000068   0.0000015
    2  -0.0024246   0.0001161   0.0023959   0.0000610  -0.0000269  -0.0000432
    3  -0.0016138   0.0000187   0.0015581   0.0000479   0.0000193  -0.0000410
            7           8           9          10          11
    1   0.0000103  -0.0000072   0.0000255   0.0000341   0.0000189
    2  -0.0000152  -0.0000942   0.0000105  -0.0000060   0.0000267
    3   0.0000291  -0.0000560   0.0000075   0.0000202   0.0000102
 Max gradient component =       2.425E-03
 RMS gradient           =       7.225E-04
 Gradient time:  CPU 9.19 s  wall 0.77 s
 Geometry Optimization Parameters
   NAtoms,    NIC,     NZ,  NCons,   NDum,   NFix, NCnnct, MaxDiis
       11      88       0       1       0       0       0       0

 Cartesian Hessian Update
 Hessian Updated using BFGS Update


** CONSTRAINED OPTIMIZATION IN DELOCALIZED INTERNAL COORDINATES **
   Searching for a Minimum

   Optimization Cycle:  13

                       Coordinates (Angstroms)
     ATOM                X               Y               Z
      1  Cl       -0.2949674784    1.5581043470    1.0300371572
      2  Cl        1.6628046284    1.5818619304   -0.7943892272
      3  C        -0.7496087276   -0.4869159733   -0.3342192686
      4  C         0.0803418318   -0.2853739148   -1.4411001085
      5  C        -0.4636096697   -1.5375015537    0.6903736715
      6  H        -1.7613488278   -0.0986140452   -0.3885663924
      7  H         0.9619870641   -0.8991435950   -1.5801349126
      8  H        -0.2576471937    0.3000717113   -2.2863297442
      9  H        -0.9455017499   -1.3128650567    1.6431287199
     10  H        -0.8625713427   -2.4984002538    0.3333804295
     11  H         0.6104234657   -1.6558235962    0.8526216753
   Point Group: c1    Number of degrees of freedom:    27


   Energy is  -1038.227187625

              Constraints and their Current Values
                                        Value     Constraint
   Distance(Angs):        1   3             2.500000     2.500000
 Hessian Updated using BFGS Update

 26 Hessian modes will be used to form the next step
  Hessian Eigenvalues:
     0.003313    0.011487    0.024153    0.047221    0.059169    0.067627
     0.071681    0.074856    0.081900    0.084542    0.088340    0.111256
     0.127004    0.132357    0.137794    0.159746    0.160333    0.161165
     0.332392    0.336096    0.344768    0.346392    0.354561    0.356414
     0.390172    0.443758

 Minimum Search - Taking Simple RFO Step
 Searching for Lamda that Minimizes Along All modes
 Value Taken    Lamda =   0.00000000
 Step Taken.  Stepsize is  0.009563

                             Maximum     Tolerance    Cnvgd?
         Gradient           0.000080      0.000300     YES
         Displacement       0.004193      0.001200      NO
         Energy change     -0.000001      0.000001     YES


                       Distance Matrix (Angstroms)
             Cl(  1)   Cl(  2)   C (  3)   C (  4)   C (  5)   H (  6)
   Cl(  2)  2.676185
   C (  3)  2.500000  3.211127
   C (  4)  3.105767  2.531599  1.398078
   C (  5)  3.118748  4.056672  1.495097  2.531183
   H (  6)  2.628198  3.835820  1.085058  2.129444  2.217800
   H (  7)  3.798816  2.695168  2.156803  1.083209  2.755909  3.078513
   H (  8)  3.547158  2.749001  2.161507  1.082311  3.504263  2.453890
   H (  9)  3.006916  4.596107  2.151853  3.408894  1.091065  2.503557
   H ( 10)  4.154845  4.929293  2.122385  2.989206  1.099973  2.662326
   H ( 11)  3.343732  3.781899  2.150494  2.724019  1.092644  3.096894
             H (  7)   H (  8)   H (  9)   H ( 10)
   H (  8)  1.850496
   H (  9)  3.768170  4.302947
   H ( 10)  3.090012  3.880755  1.768562
   H ( 11)  2.571860  3.798959  1.778602  1.774616
 
 Final energy is   -1038.22718762538     


 ******************************
 **  OPTIMIZATION CONVERGED  **
 ******************************

                       Coordinates (Angstroms)
     ATOM                X               Y               Z
      1  Cl       -0.2949674784    1.5581043470    1.0300371572
      2  Cl        1.6628046284    1.5818619304   -0.7943892272
      3  C        -0.7496087276   -0.4869159733   -0.3342192686
      4  C         0.0803418318   -0.2853739148   -1.4411001085
      5  C        -0.4636096697   -1.5375015537    0.6903736715
      6  H        -1.7613488278   -0.0986140452   -0.3885663924
      7  H         0.9619870641   -0.8991435950   -1.5801349126
      8  H        -0.2576471937    0.3000717113   -2.2863297442
      9  H        -0.9455017499   -1.3128650567    1.6431287199
     10  H        -0.8625713427   -2.4984002538    0.3333804295
     11  H         0.6104234657   -1.6558235962    0.8526216753

Z-matrix Print:
$molecule
0 3
Cl
C  1 2.500000
H  2 1.085058 1 84.500686
C  2 1.398078 1 101.897620 3 117.021878 0
H  4 1.082311 2 120.722716 1 -85.578650 0
H  4 1.083209 2 120.206021 1 109.465417 0
C  2 1.495097 1 99.557956 3 -117.171475 0
H  7 1.091065 2 111.670385 1 46.919717 0
H  7 1.092644 2 111.462237 1 -75.359420 0
H  7 1.099973 2 108.786876 1 165.581293 0
Cl 4 2.531599 2 105.970988 1 13.914082 0
$end

PES scan, value:    2.5000 energy: -1038.2271876254
------- Summary of potential scan: ------ 
    2.5000     -1038.2271876254
----------------------------------------- 
Archival summary:
1\1\hpc0332\JobtypUnspecified\ProcedureUnspecified\6-31G**\l236(3)\knomura\TueMar1203:33:152019TueMar1203:33:152019\0\\#,JobtypUnspecified,ProcedureUnspecified,6-31G**,\\0,3\Cl\C,1,2.5\H,2,1.08506,1,84.5007\C,2,1.39808,1,101.898,3,117.022,0\H,4,1.08231,2,120.723,1,-85.5787,0\H,4,1.08321,2,120.206,1,109.465,0\C,2,1.4951,1,99.558,3,-117.171,0\H,7,1.09107,2,111.67,1,46.9197,0\H,7,1.09264,2,111.462,1,-75.3594,0\H,7,1.09997,2,108.787,1,165.581,0\Cl,4,2.5316,2,105.971,1,13.9141,0\\\@

 Total job time:  48.20s(wall), 554.18s(cpu) 
 Tue Mar 12 03:33:15 2019

        *************************************************************
        *                                                           *
        *  Thank you very much for using Q-Chem.  Have a nice day.  *
        *                                                           *
        *************************************************************


