
Running Job 1 of 1 ruruma/CH3CHClCH2Cl_afterGeo_middle_singlet.xyz.data/inputs/bond_triplet_3.2.in
qchem ruruma/CH3CHClCH2Cl_afterGeo_middle_singlet.xyz.data/inputs/bond_triplet_3.2.in_28188.0 /staging/scratch/2858534/qchem28188/ 1
/usr/usc/qchem/5.1.1/exe/qcprog.exe_s ruruma/CH3CHClCH2Cl_afterGeo_middle_singlet.xyz.data/inputs/bond_triplet_3.2.in_28188.0 /staging/scratch/2858534/qchem28188/
Check license passed

                  Welcome to Q-Chem
     A Quantum Leap Into The Future Of Chemistry


 Q-Chem 5.1, Q-Chem, Inc., Pleasanton, CA (2018)

 Yihan Shao,  Zhengting Gan,  E. Epifanovsky,  A. T. B. Gilbert,  M. Wormit,  
 J. Kussmann,  A. W. Lange,  A. Behn,  Jia Deng,  Xintian Feng,  D. Ghosh,  
 M. Goldey,  P. R. Horn,  L. D. Jacobson,  I. Kaliman,  T. Kus,  A. Landau,  
 Jie Liu,  E. I. Proynov,  R. M. Richard,  R. P. Steele,  E. J. Sundstrom,  
 H. L. Woodcock III,  P. M. Zimmerman,  D. Zuev,  B. Albrecht,  E. Alguire,  
 S. A. Baeppler,  D. Barton,  Z. Benda,  Y. A. Bernard,  E. J. Berquist,  
 K. B. Bravaya,  H. Burton,  D. Casanova,  Chun-Min Chang,  Yunqing Chen,  
 A. Chien,  K. D. Closser,  M. P. Coons,  S. Coriani,  S. Dasgupta,  
 A. L. Dempwolff,  M. Diedenhofen,  Hainam Do,  R. G. Edgar,  Po-Tung Fang,  
 S. Faraji,  S. Fatehi,  Qingguo Feng,  K. D. Fenk,  J. Fosso-Tande,  
 Qinghui Ge,  A. Ghysels,  G. Gidofalvi,  J. Gomes,  J. Gonthier,  A. Gunina,  
 D. Hait,  M. W. D. Hanson-Heine,  P. H. P. Harbach,  A. W. Hauser,  
 J. E. Herr,  E. G. Hohenstein,  Z. C. Holden,  Kerwin Hui,  B. C. Huynh,  
 T.-C. Jagau,  Hyunjun Ji,  B. Kaduk,  K. Khistyaev,  Jaehoon Kim,  
 P. Klunzinger,  K. Koh,  D. Kosenkov,  L. Koulias,  T. Kowalczyk,  
 C. M. Krauter,  A. Kunitsa,  Ka Un Lao,  A. Laurent,  K. V. Lawler,  
 Joonho Lee,  D. Lefrancois,  S. Lehtola,  D. S. Levine,  Yi-Pei Li,  
 You-Sheng Lin,  Fenglai Liu,  E. Livshits,  A. Luenser,  P. Manohar,  
 E. Mansoor,  S. F. Manzer,  Shan-Ping Mao,  Yuezhi Mao,  N. Mardirossian,  
 A. V. Marenich,  T. Markovich,  L. A. Martinez-Martinez,  S. A. Maurer,  
 N. J. Mayhall,  S. C. McKenzie,  J.-M. Mewes,  A. F. Morrison,  
 J. W. Mullinax,  K. Nanda,  T. S. Nguyen-Beck,  R. Olivares-Amaya,  
 J. A. Parkhill,  T. M. Perrine,  F. Plasser,  P. Pokhilko,  S. Prager,  
 A. Prociuk,  E. Ramos,  D. R. Rehn,  F. Rob,  M. Schneider,  N. Sergueev,  
 S. M. Sharada,  S. Sharma,  D. W. Small,  T. Stauch,  T. Stein,  
 Yu-Chuan Su,  A. J. W. Thom,  A. Tkatchenko,  T. Tsuchimochi,  N. M. Tubman,  
 L. Vogt,  M. L. Vidal,  O. Vydrov,  M. A. Watson,  J. Wenzel,  
 M. de Wergifosse,  T. A. Wesolowski,  A. White,  J. Witte,  A. Yamada,  
 Jun Yang,  K. Yao,  S. Yeganeh,  S. R. Yost,  Zhi-Qiang You,  A. Zech,  
 Igor Ying Zhang,  Xing Zhang,  Yan Zhao,  Ying Zhu,  B. R. Brooks,  
 G. K. L. Chan,  C. J. Cramer,  M. S. Gordon,  W. J. Hehre,  A. Klamt,  
 M. W. Schmidt,  C. D. Sherrill,  D. G. Truhlar,  A. Aspuru-Guzik,  R. Baer,  
 A. T. Bell,  N. A. Besley,  Jeng-Da Chai,  A. E. DePrince, III,  
 R. A. DiStasio Jr.,  A. Dreuw,  B. D. Dunietz,  T. R. Furlani,  
 Chao-Ping Hsu,  Yousung Jung,  Jing Kong,  D. S. Lambrecht,  WanZhen Liang,  
 C. Ochsenfeld,  V. A. Rassolov,  L. V. Slipchenko,  J. E. Subotnik,  
 T. Van Voorhis,  J. M. Herbert,  A. I. Krylov,  P. M. W. Gill,  M. Head-Gordon

 Contributors to earlier versions of Q-Chem not listed above: 
 R. D. Adamson,  B. Austin,  J. Baker,  G. J. O. Beran,  K. Brandhorst,  
 S. T. Brown,  E. F. C. Byrd,  A. K. Chakraborty,  C.-L. Cheng,  
 Siu Hung Chien,  D. M. Chipman,  D. L. Crittenden,  H. Dachsel,  
 R. J. Doerksen,  A. D. Dutoi,  L. Fusti-Molnar,  W. A. Goddard III,  
 A. Golubeva-Zadorozhnaya,  S. R. Gwaltney,  G. Hawkins,  A. Heyden,  
 S. Hirata,  G. Kedziora,  F. J. Keil,  C. Kelley,  Jihan Kim,  R. A. King,  
 R. Z. Khaliullin,  P. P. Korambath,  W. Kurlancheek,  A. M. Lee,  M. S. Lee,  
 S. V. Levchenko,  Ching Yeh Lin,  D. Liotard,  R. C. Lochan,  I. Lotan,  
 P. E. Maslen,  N. Nair,  D. P. O'Neill,  D. Neuhauser,  E. Neuscamman,  
 C. M. Oana,  R. Olson,  B. Peters,  R. Peverati,  P. A. Pieniazek,  
 Y. M. Rhee,  J. Ritchie,  M. A. Rohrdanz,  E. Rosta,  N. J. Russ,  
 H. F. Schaefer III,  N. E. Schultz,  N. Shenvi,  A. C. Simmonett,  A. Sodt,  
 D. Stuck,  K. S. Thanthiriwatte,  V. Vanovschi,  Tao Wang,  A. Warshel,  
 C. F. Williams,  Q. Wu,  X. Xu,  W. Zhang

 Please cite Q-Chem as follows:
 Y. Shao et al., Mol. Phys. 113, 184-215 (2015)
 DOI: 10.1080/00268976.2014.952696

 Q-Chem 5.1.1 for Intel X86 EM64T Linux

 Parts of Q-Chem use Armadillo 8.300.2 (Tropical Shenanigans).
 http://arma.sourceforge.net/

 Q-Chem begins on Tue Mar 12 03:25:48 2019  

Host: 
0

     Scratch files written to /staging/scratch/2858534/qchem28188//
 Aug318 |scratch|qcdevops|jenkins|workspace|build_RNUM 6013   
Processing $rem in /usr/usc/qchem/5.1.1/config/preferences.
 MEM_TOTAL  2000 
Input Ideriv = 2
Curr. Ideriv = -1
Max.  Ideriv = 2

Checking the input file for inconsistencies... 	...done.

--------------------------------------------------------------
User input:
--------------------------------------------------------------

$comment
potential surface scanner
$end

$rem
JOBTYPE  PES_SCAN
UNRESTRICTED TRUE
SYM_IGNORE  TRUE
GEOM_OPT_MAX_CYCLES 400
SCF_MAX_CYCLES 400
METHOD   B3LYP
BASIS   6-31G**
PDB_PRINT 2
SCF_CONVERGENCE 6
THRESH 14
SCF_PRINT 1
$end
$molecule
0 3
Cl -0.651098 2.195268 1.164675
Cl 1.331970 1.327698 -0.544556
C -0.725239 -0.669442 -0.471766
C 0.242542 -0.191338 -1.404082
C -0.417226 -1.641872 0.608193
H -1.695429 -0.181754 -0.456255
H 1.073259 -0.856386 -1.629327
H -0.137434 0.342590 -2.269619
H -0.343276 -1.113210 1.570158
H -1.223306 -2.376851 0.718791
H 0.525537 -2.169302 0.438590
$end
$scan
stre 1 3 3.200000 3.201000 0.100000
$end
--------------------------------------------------------------
 ----------------------------------------------------------------
             Standard Nuclear Orientation (Angstroms)
    I     Atom           X                Y                Z
 ----------------------------------------------------------------
    1      Cl     -0.6510980000     2.1952680000     1.1646750000
    2      Cl      1.3319700000     1.3276980000    -0.5445560000
    3      C      -0.7252390000    -0.6694420000    -0.4717660000
    4      C       0.2425420000    -0.1913380000    -1.4040820000
    5      C      -0.4172260000    -1.6418720000     0.6081930000
    6      H      -1.6954290000    -0.1817540000    -0.4562550000
    7      H       1.0732590000    -0.8563860000    -1.6293270000
    8      H      -0.1374340000     0.3425900000    -2.2696190000
    9      H      -0.3432760000    -1.1132100000     1.5701580000
   10      H      -1.2233060000    -2.3768510000     0.7187910000
   11      H       0.5255370000    -2.1693020000     0.4385900000
 ----------------------------------------------------------------
 Nuclear Repulsion Energy =   260.7153201270 hartrees
 There are       30 alpha and       28 beta electrons
 Requested basis set is 6-31G(d,p)
 There are 40 shells and 113 basis functions

 Total QAlloc Memory Limit   2000 MB
 Mega-Array Size       188 MB
 MEM_STATIC part       192 MB
A total of 1 constraints
  
            1
    1   1.0100000
    2   1.0100000
    3   3.0100000
    4   3.2000000
    5   3.2010000
    6   0.1000000
    7   0.0000000
    8   0.0000000
    9   0.0000000
   10   0.0000000

                       Distance Matrix (Angstroms)
             Cl(  1)   Cl(  2)   C (  3)   C (  4)   C (  5)   H (  6)
   Cl(  2)  2.758026
   C (  3)  3.300000  2.868096
   C (  4)  3.618424  2.057452  1.426323
   C (  5)  3.884329  3.634125  1.485531  2.566826
   H (  6)  3.060764  3.383990  1.085978  2.157359  2.213323
   H (  7)  4.482460  2.452322  2.146972  1.087711  2.800898  3.081698
   H (  8)  3.935815  2.470916  2.145227  1.085640  3.506875  2.447565
   H (  9)  3.347417  3.638200  2.124213  3.168459  1.100149  2.608118
   H ( 10)  4.629310  4.674309  2.140267  3.381090  1.096445  2.534183
   H ( 11)  4.578334  3.721011  2.154708  2.718063  1.093503  3.111878
             H (  7)   H (  8)   H (  9)   H ( 10)
   H (  8)  1.820246
   H (  9)  3.508452  4.111643
   H ( 10)  3.619348  4.183906  1.759564
   H ( 11)  2.509986  3.752803  1.774996  1.783267
 
 A cutoff of  1.0D-14 yielded    768 shell pairs
 There are      6333 function pairs
 
 -------------------------------------------------------
 OpenMP Integral Computing Module                       
 Release: version 1.0, May 2013, Q-Chem Inc. Pittsburgh 
 -------------------------------------------------------
 Integral Job Info:
 Integral job number is                      11
 Integral operator is                         1
 short-range coefficients                     0
 long-range coefficients              100000000
 Omega coefficients                           0
 if combine SR and LR in K                    0
 Integral screening is                        0
 Integral computing path is                   2
 max size of driver memory is            800000
 size of driver memory is                593474
 size of scratch memory is             15267112
 max col of scratch BK array               1296
 max len of scratch array in speh3          155
 max len of scratch index in speh4           18
 max int batch size is                      520
 min int batch size is                       52
 fixed nKL is                                52
 max L of basis functions is                  2
 order of int derivative is                   0
 number of shells is                         40
 number of basis is                         113
 number of cartesian basis is               113
 number of contracted shell pairs           768
 number of primitive shell pairs           3069
 maxK2 (contraction) of shell pair           36
 max number of K2 of shell pair               1
 max number of CS2 of shell pair             62
 max number of PS2 of shell pair            318
 mem total for path MDJ                  518460
 -------------------------------------------------------
 Smallest overlap matrix eigenvalue = 5.48E-03

 Scale SEOQF with 1.000000e-01/1.000000e-01/1.000000e-01

 Standard Electronic Orientation quadrupole field applied
 Nucleus-field energy     =     0.0000000061 hartrees
 Guess from superposition of atomic densities
 Warning:  Energy on first SCF cycle will be non-variational
 SAD guess density has 58.000000 electrons

 -----------------------------------------------------------------------
  General SCF calculation program by
  Eric Jon Sundstrom, Paul Horn, Yuezhi Mao, Dmitri Zuev, Alec White,
  David Stuck, Shaama M.S., Shane Yost, Joonho Lee, David Small,
  Daniel Levine, Susi Lehtola, Hugh Burton, Evgeny Epifanovsky
 -----------------------------------------------------------------------
 Exchange:     0.2000 Hartree-Fock + 0.0800 Slater + 0.7200 B88
 Correlation:  0.1900 VWN1RPA + 0.8100 LYP
 Using SG-1 standard quadrature grid
 using 12 threads for integral computing
 -------------------------------------------------------
 OpenMP Integral computing Module                
 Release: version 1.0, May 2013, Q-Chem Inc. Pittsburgh 
 -------------------------------------------------------
 -------------------------------------------------------
 OpenMP BLAS3 based DFT computing Module                
 Release: version 1.0, May 2013, Q-Chem Inc. Pittsburgh 
 -------------------------------------------------------
 A unrestricted SCF calculation will be
 performed using DIIS
 SCF converges when DIIS error is below 1.0e-06
 Alpha HF Exchange    Energy =  -7.26145503255905
 Beta HF Exchange     Energy =  -7.26145503255905
 DFT Correlation      Energy =  -2.75592741164721
 DFT Exchange         Energy = -57.31026273438697
 One-Electron (alpha) Energy = -971.83308578370224
 One-Electron (beta)  Energy = -971.83308578370224
 Total Coulomb        Energy = 718.99246859991922
 ---------------------------------------
  Cycle       Energy         DIIS error
 ---------------------------------------
    1   -1038.5474830455      2.59e-02  
 Alpha HF Exchange    Energy =  -7.39659655792078
 Beta HF Exchange     Energy =  -7.17150236748254
 DFT Correlation      Energy =  -2.77496384863596
 DFT Exchange         Energy = -57.83433764088837
 One-Electron (alpha) Energy = -991.75520610164244
 One-Electron (beta)  Energy = -958.36026183997126
 Total Coulomb        Energy = 726.41602781986182
    2   -1038.1615204035      2.97e-03  
 Alpha HF Exchange    Energy =  -7.35283402007756
 Beta HF Exchange     Energy =  -7.13897215754965
 DFT Correlation      Energy =  -2.75402794482671
 DFT Exchange         Energy = -57.48240969274850
 One-Electron (alpha) Energy = -989.17909858275436
 One-Electron (beta)  Energy = -956.09295063717059
 Total Coulomb        Energy = 721.15905125352162
    3   -1038.1259216485      3.72e-03  
 Alpha HF Exchange    Energy =  -7.36996556683593
 Beta HF Exchange     Energy =  -7.14390622988545
 DFT Correlation      Energy =  -2.76228091162569
 DFT Exchange         Energy = -57.59420393802476
 One-Electron (alpha) Energy = -990.04936878198805
 One-Electron (beta)  Energy = -956.49239024249198
 Total Coulomb        Energy = 722.46624098102870
    4   -1038.2305545567      7.58e-04  
 Alpha HF Exchange    Energy =  -7.37603700357064
 Beta HF Exchange     Energy =  -7.15164526723100
 DFT Correlation      Energy =  -2.76345539886704
 DFT Exchange         Energy = -57.64324522417485
 One-Electron (alpha) Energy = -990.52081644748785
 One-Electron (beta)  Energy = -956.95922817490703
 Total Coulomb        Energy = 723.46432355686977
    5   -1038.2347838262      3.22e-04  
 Alpha HF Exchange    Energy =  -7.37603128805342
 Beta HF Exchange     Energy =  -7.15049007419944
 DFT Correlation      Energy =  -2.76308329376415
 DFT Exchange         Energy = -57.63854668729415
 One-Electron (alpha) Energy = -990.47029350040918
 One-Electron (beta)  Energy = -956.85880742929817
 Total Coulomb        Energy = 723.30621916673863
    6   -1038.2357129731      8.16e-05  
 Alpha HF Exchange    Energy =  -7.37571732381333
 Beta HF Exchange     Energy =  -7.15036260089276
 DFT Correlation      Energy =  -2.76288013707017
 DFT Exchange         Energy = -57.63588906271227
 One-Electron (alpha) Energy = -990.43799251124915
 One-Electron (beta)  Energy = -956.83091858646435
 Total Coulomb        Energy = 723.24265630623620
    7   -1038.2357837828      2.90e-05  
 Alpha HF Exchange    Energy =  -7.37594521104811
 Beta HF Exchange     Energy =  -7.15058957698404
 DFT Correlation      Energy =  -2.76285935131295
 DFT Exchange         Energy = -57.63737456038231
 One-Electron (alpha) Energy = -990.45061252350990
 One-Electron (beta)  Energy = -956.84165274814745
 Total Coulomb        Energy = 723.26791803625133
    8   -1038.2357958020      1.27e-05  
 Alpha HF Exchange    Energy =  -7.37596484638363
 Beta HF Exchange     Energy =  -7.15062940844261
 DFT Correlation      Energy =  -2.76284057211567
 DFT Exchange         Energy = -57.63747374468127
 One-Electron (alpha) Energy = -990.44795038649102
 One-Electron (beta)  Energy = -956.84286526413200
 Total Coulomb        Energy = 723.26660680239797
    9   -1038.2357972867      6.19e-06  
 Alpha HF Exchange    Energy =  -7.37594037440819
 Beta HF Exchange     Energy =  -7.15062919777486
 DFT Correlation      Energy =  -2.76283235125450
 DFT Exchange         Energy = -57.63736749560315
 One-Electron (alpha) Energy = -990.44569449839139
 One-Electron (beta)  Energy = -956.84189299229581
 Total Coulomb        Energy = 723.26323914151976
   10   -1038.2357976351      1.81e-06  
 Alpha HF Exchange    Energy =  -7.37594924887476
 Beta HF Exchange     Energy =  -7.15063809468552
 DFT Correlation      Energy =  -2.76283266956723
 DFT Exchange         Energy = -57.63743383608300
 One-Electron (alpha) Energy = -990.44616414479913
 One-Electron (beta)  Energy = -956.84294196780093
 Total Coulomb        Energy = 723.26484214449738
   11   -1038.2357976842      7.87e-07  Convergence criterion met
 ---------------------------------------
 SCF time:   CPU 28.96s  wall 2.00s 
<S^2> =          2.010036511
 Alpha HF Exchange    Energy =  -7.37594924887476
 Beta HF Exchange     Energy =  -7.15063809468552
 DFT Correlation      Energy =  -2.76283266956723
 DFT Exchange         Energy = -57.63743383608300
 One-Electron (alpha) Energy = -990.44616414479913
 One-Electron (beta)  Energy = -956.84294196780093
 Total Coulomb        Energy = 723.26484214449738
 Nuclear repulsion Energy = 260.71532013313578
 SCF   energy in the final basis set =    -1038.2357976842
 Total energy in the final basis set =    -1038.2357976842
 
 --------------------------------------------------------------
 
                    Orbital Energies (a.u.)
 --------------------------------------------------------------
 
 Alpha MOs
 -- Occupied --
*******-101.525 -10.269 -10.247 -10.209  -9.472  -9.438  -7.235
 -7.231  -7.224  -7.208  -7.191  -7.191  -0.860  -0.807  -0.775
 -0.720  -0.605  -0.510  -0.467  -0.451  -0.409  -0.405  -0.394
 -0.375  -0.323  -0.293  -0.289  -0.284  -0.242
 -- Virtual --
 -0.024   0.083   0.101   0.121   0.144   0.150   0.157   0.238
  0.290   0.352   0.396   0.410   0.425   0.451   0.484   0.501
  0.505   0.519   0.527   0.560   0.578   0.606   0.641   0.682
  0.703   0.728   0.766   0.815   0.830   0.848   0.851   0.870
  0.874   0.880   0.890   0.896   0.901   0.918   0.923   0.930
  1.012   1.030   1.137   1.255   1.280   1.367   1.418   1.496
  1.639   1.773   1.796   1.841   1.875   1.968   2.015   2.056
  2.070   2.084   2.151   2.243   2.316   2.324   2.396   2.411
  2.509   2.550   2.635   2.693   2.770   2.828   2.845   2.920
  3.151   3.233   3.370   3.394   3.427   3.499   4.138   4.245
  4.258   4.419   4.544
 
 Beta MOs
 -- Occupied --
*******-101.519 -10.269 -10.236 -10.209  -9.467  -9.432  -7.227
 -7.223  -7.221  -7.191  -7.188  -7.187  -0.840  -0.784  -0.736
 -0.712  -0.591  -0.505  -0.461  -0.432  -0.404  -0.391  -0.383
 -0.325  -0.314  -0.280  -0.276
 -- Virtual --
 -0.170  -0.129   0.009   0.086   0.103   0.123   0.150   0.158
  0.161   0.245   0.297   0.363   0.410   0.417   0.439   0.456
  0.492   0.513   0.519   0.537   0.540   0.574   0.594   0.620
  0.657   0.692   0.712   0.741   0.781   0.827   0.837   0.854
  0.870   0.886   0.895   0.907   0.909   0.920   0.923   0.929
  0.935   0.957   1.036   1.053   1.148   1.268   1.294   1.388
  1.427   1.497   1.643   1.787   1.807   1.854   1.885   1.990
  2.019   2.061   2.075   2.087   2.166   2.246   2.321   2.334
  2.405   2.420   2.517   2.562   2.639   2.702   2.773   2.832
  2.850   2.924   3.155   3.235   3.374   3.399   3.428   3.504
  4.155   4.258   4.273   4.420   4.554
 --------------------------------------------------------------
 
          Ground-State Mulliken Net Atomic Charges

     Atom                 Charge (a.u.)    Spin (a.u.)
  --------------------------------------------------------
      1 Cl                   -0.225669       0.750665
      2 Cl                   -0.072703       0.508373
      3 C                     0.017376       0.776374
      4 C                    -0.286873      -0.025275
      5 C                    -0.358717      -0.057088
      6 H                     0.145850      -0.033182
      7 H                     0.172106       0.005698
      8 H                     0.180332       0.001806
      9 H                     0.171207       0.047279
     10 H                     0.134413       0.022192
     11 H                     0.122677       0.003158
  --------------------------------------------------------
  Sum of atomic charges =    -0.000000
  Sum of spin   charges =     2.000000

 -----------------------------------------------------------------
                    Cartesian Multipole Moments
 -----------------------------------------------------------------
    Charge (ESU x 10^10)
                 0.0000
    Dipole Moment (Debye)
         X      -0.6049      Y      -4.2147      Z      -2.1400
       Tot       4.7654
    Quadrupole Moments (Debye-Ang)
        XX     -44.5981     XY       0.0827     YY     -50.1081
        XZ      -0.0234     YZ      -2.4644     ZZ     -43.0274
    Octopole Moments (Debye-Ang^2)
       XXX     -11.4837    XXY     -30.4157    XYY      -0.9024
       YYY    -100.9114    XXZ      -0.3082    XYZ       2.8534
       YYZ      -3.2608    XZZ      -3.0685    YZZ     -30.7004
       ZZZ      -8.8931
    Hexadecapole Moments (Debye-Ang^3)
      XXXX    -258.6297   XXXY     -33.2011   XXYY    -156.5039
      XYYY     -24.6825   YYYY    -737.8779   XXXZ      63.2387
      XXYZ     -15.0437   XYYZ      19.6188   YYYZ     -67.3126
      XXZZ     -91.5149   XYZZ     -16.2837   YYZZ    -173.3856
      XZZZ      61.4216   YZZZ     -61.2921   ZZZZ    -286.1310
 -----------------------------------------------------------------
 Calculating analytic gradient of the SCF energy
 Gradient of SCF Energy
            1           2           3           4           5           6
    1   0.0000989  -0.0000078   0.0001222  -0.0000633  -0.0000280  -0.0000728
    2  -0.0007543   0.0000122   0.0006320   0.0000157  -0.0000305   0.0001447
    3  -0.0004548   0.0000178   0.0003928   0.0000023   0.0000098   0.0000305
            7           8           9          10          11
    1  -0.0000356   0.0000151  -0.0000022  -0.0000138  -0.0000127
    2  -0.0000367   0.0000143  -0.0000085   0.0000032   0.0000076
    3   0.0000036  -0.0000014   0.0000037  -0.0000049   0.0000006
 Max gradient component =       7.543E-04
 RMS gradient           =       2.054E-04
 Gradient time:  CPU 9.08 s  wall 0.77 s
 Geometry Optimization Parameters
   NAtoms,    NIC,     NZ,  NCons,   NDum,   NFix, NCnnct, MaxDiis
       11      63       0       1       0       0       0       0


** CONSTRAINED OPTIMIZATION IN DELOCALIZED INTERNAL COORDINATES **
   Searching for a Minimum

   Optimization Cycle:   1

                       Coordinates (Angstroms)
     ATOM                X               Y               Z
      1  Cl       -0.6510980000    2.1952680000    1.1646750000
      2  Cl        1.3319700000    1.3276980000   -0.5445560000
      3  C        -0.7252390000   -0.6694420000   -0.4717660000
      4  C         0.2425420000   -0.1913380000   -1.4040820000
      5  C        -0.4172260000   -1.6418720000    0.6081930000
      6  H        -1.6954290000   -0.1817540000   -0.4562550000
      7  H         1.0732590000   -0.8563860000   -1.6293270000
      8  H        -0.1374340000    0.3425900000   -2.2696190000
      9  H        -0.3432760000   -1.1132100000    1.5701580000
     10  H        -1.2233060000   -2.3768510000    0.7187910000
     11  H         0.5255370000   -2.1693020000    0.4385900000
   Point Group: c1    Number of degrees of freedom:    27


   Energy is  -1038.235797684

              Constraints and their Current Values
                                        Value     Constraint
   Distance(Angs):        1   3             3.300000     3.200000

 Attempting to Generate Delocalized Internal Coordinates

   Using Lagrange Multiplier Algorithm


 28 Hessian modes will be used to form the next step
  Hessian Eigenvalues:
    -0.991758    0.045000    0.045000    0.045304    0.047056    0.058611
     0.083692    0.090026    0.092122    0.095346    0.131336    0.134639
     0.143159    0.158587    0.160000    0.160000    0.160000    0.220350
     0.227349    0.336656    0.339440    0.340784    0.344109    0.350785
     0.352816    0.353213    0.415220    1.008310

 Minimum Search - Taking P-RFO Step
 Searching for Lamda that Maximizes Along the Constraint modes Only
 Value Taken    Lamda =   0.01798781
 Searching for Lamda that Minimizes Along All other modes
 Value Taken    Lamda =  -0.01711333
 Step Taken.  Stepsize is  0.185717

                             Maximum     Tolerance    Cnvgd?
         Gradient            0.188972       0.000300      NO
         Displacement        0.185711       0.001200      NO
         Energy change     *********       0.000001      NO


 New Cartesian Coordinates Obtained by Inverse Iteration

 Displacement from previous Coordinates is:  0.208940
 ----------------------------------------------------------------
             Standard Nuclear Orientation (Angstroms)
    I     Atom           X                Y                Z
 ----------------------------------------------------------------
    1      Cl     -0.6875364703     2.1108230387     1.1461431646
    2      Cl      1.3419335144     1.3131982764    -0.5395943887
    3      C      -0.7200960388    -0.6543813969    -0.4674345050
    4      C       0.2455827680    -0.1902176197    -1.4090730591
    5      C      -0.4147127438    -1.6277315998     0.6123735472
    6      H      -1.6841537554    -0.1553142424    -0.4450020477
    7      H       1.0689348773    -0.8620549885    -1.6411327897
    8      H      -0.1347703255     0.3482602845    -2.2716212565
    9      H      -0.3261840359    -1.0975709811     1.5722800796
   10      H      -1.2287481703    -2.3525082855     0.7317093524
   11      H       0.5200503804    -2.1671014858     0.4361539030
 ----------------------------------------------------------------
 Nuclear Repulsion Energy =   262.4545125046 hartrees
 There are       30 alpha and       28 beta electrons

                       Distance Matrix (Angstroms)
             Cl(  1)   Cl(  2)   C (  3)   C (  4)   C (  5)   H (  6)
   Cl(  2)  2.756205
   C (  3)  3.201726  2.851060
   C (  4)  3.562952  2.053835  1.426417
   C (  5)  3.786309  3.614126  1.485481  2.566843
   H (  6)  2.942850  3.364919  1.085808  2.157437  2.213038
   H (  7)  4.437578  2.453496  2.149727  1.087716  2.804597  3.083781
   H (  8)  3.885009  2.472181  2.145457  1.085641  3.507184  2.447594
   H (  9)  3.256679  3.613093  2.124151  3.168387  1.100149  2.607941
   H ( 10)  4.515085  4.654248  2.140165  3.381139  1.096447  2.533714
   H ( 11)  4.501443  3.706759  2.154706  2.718136  1.093506  3.111630
             H (  7)   H (  8)   H (  9)   H ( 10)
   H (  8)  1.819694
   H (  9)  3.511103  4.111283
   H ( 10)  3.623697  4.184607  1.759559
   H ( 11)  2.513870  3.753383  1.775047  1.783262
 
 Applying Cartesian multipole field
    Component          Value
    ---------          -----
     (2,0,0)        1.00000E-11
     (0,2,0)        2.00000E-11
     (0,0,2)       -3.00000E-11
 Nucleus-field energy     =     0.0000000057 hartrees
 Requested basis set is 6-31G(d,p)
 There are 40 shells and 113 basis functions
 A cutoff of  1.0D-14 yielded    772 shell pairs
 There are      6378 function pairs
 Smallest overlap matrix eigenvalue = 5.46E-03
 Guess from superposition of atomic densities
 Warning:  Energy on first SCF cycle will be non-variational
 SAD guess density has 58.000000 electrons

 -----------------------------------------------------------------------
  General SCF calculation program by
  Eric Jon Sundstrom, Paul Horn, Yuezhi Mao, Dmitri Zuev, Alec White,
  David Stuck, Shaama M.S., Shane Yost, Joonho Lee, David Small,
  Daniel Levine, Susi Lehtola, Hugh Burton, Evgeny Epifanovsky
 -----------------------------------------------------------------------
 Exchange:     0.2000 Hartree-Fock + 0.0800 Slater + 0.7200 B88
 Correlation:  0.1900 VWN1RPA + 0.8100 LYP
 Using SG-1 standard quadrature grid
 using 12 threads for integral computing
 -------------------------------------------------------
 OpenMP Integral computing Module                
 Release: version 1.0, May 2013, Q-Chem Inc. Pittsburgh 
 -------------------------------------------------------
 -------------------------------------------------------
 OpenMP BLAS3 based DFT computing Module                
 Release: version 1.0, May 2013, Q-Chem Inc. Pittsburgh 
 -------------------------------------------------------
 A unrestricted SCF calculation will be
 performed using DIIS
 SCF converges when DIIS error is below 1.0e-06
 Alpha HF Exchange    Energy =  -7.26208138430125
 Beta HF Exchange     Energy =  -7.26208138430125
 DFT Correlation      Energy =  -2.75658097485931
 DFT Exchange         Energy = -57.31124648836116
 One-Electron (alpha) Energy = -973.57186265775431
 One-Electron (beta)  Energy = -973.57186265775431
 Total Coulomb        Energy = 720.72887691721883
 ---------------------------------------
  Cycle       Energy         DIIS error
 ---------------------------------------
    1   -1038.5523261198      2.60e-02  
 Alpha HF Exchange    Energy =  -7.39680550252236
 Beta HF Exchange     Energy =  -7.17162642764555
 DFT Correlation      Energy =  -2.77552066790340
 DFT Exchange         Energy = -57.83545901989827
 One-Electron (alpha) Energy = -993.55583088545188
 One-Electron (beta)  Energy = -960.04091951966268
 Total Coulomb        Energy = 728.16010654444915
    2   -1038.1615429683      2.98e-03  
 Alpha HF Exchange    Energy =  -7.35320984955615
 Beta HF Exchange     Energy =  -7.13910443654998
 DFT Correlation      Energy =  -2.75471267269381
 DFT Exchange         Energy = -57.48475901184034
 One-Electron (alpha) Energy = -990.98305370307150
 One-Electron (beta)  Energy = -957.74105445208932
 Total Coulomb        Energy = 722.87676197173425
    3   -1038.1246196437      3.73e-03  
 Alpha HF Exchange    Energy =  -7.37028671364553
 Beta HF Exchange     Energy =  -7.14397601623183
 DFT Correlation      Energy =  -2.76291409273774
 DFT Exchange         Energy = -57.59591163605570
 One-Electron (alpha) Energy = -991.86412211001164
 One-Electron (beta)  Energy = -958.16317532869300
 Total Coulomb        Energy = 724.21580699009087
    4   -1038.2300663970      7.69e-04  
 Alpha HF Exchange    Energy =  -7.37629125150002
 Beta HF Exchange     Energy =  -7.15168847259612
 DFT Correlation      Energy =  -2.76409995568407
 DFT Exchange         Energy = -57.64464794011336
 One-Electron (alpha) Energy = -992.32922377054217
 One-Electron (beta)  Energy = -958.62161052020986
 Total Coulomb        Energy = 725.19858690951799
    5   -1038.2344624908      3.20e-04  
 Alpha HF Exchange    Energy =  -7.37630658536469
 Beta HF Exchange     Energy =  -7.15056900527218
 DFT Correlation      Energy =  -2.76371737441139
 DFT Exchange         Energy = -57.64008695114995
 One-Electron (alpha) Energy = -992.28105454790273
 One-Electron (beta)  Energy = -958.52343238030528
 Total Coulomb        Energy = 725.04526535209629
    6   -1038.2353889820      8.10e-05  
 Alpha HF Exchange    Energy =  -7.37599787334167
 Beta HF Exchange     Energy =  -7.15044868737155
 DFT Correlation      Energy =  -2.76351679475740
 DFT Exchange         Energy = -57.63746663264349
 One-Electron (alpha) Energy = -992.24952034297610
 One-Electron (beta)  Energy = -958.49590215083037
 Total Coulomb        Energy = 724.98287854978969
    7   -1038.2354614218      2.92e-05  
 Alpha HF Exchange    Energy =  -7.37622231896758
 Beta HF Exchange     Energy =  -7.15067997564379
 DFT Correlation      Energy =  -2.76349160714694
 DFT Exchange         Energy = -57.63893140410930
 One-Electron (alpha) Energy = -992.26176174875422
 One-Electron (beta)  Energy = -958.50638170810839
 Total Coulomb        Energy = 725.00748210746872
    8   -1038.2354741449      1.29e-05  
 Alpha HF Exchange    Energy =  -7.37624202114082
 Beta HF Exchange     Energy =  -7.15072460597835
 DFT Correlation      Energy =  -2.76347290770944
 DFT Exchange         Energy = -57.63904260622839
 One-Electron (alpha) Energy = -992.25907686832556
 One-Electron (beta)  Energy = -958.50777945355378
 Total Coulomb        Energy = 725.00635020177276
    9   -1038.2354757508      6.23e-06  
 Alpha HF Exchange    Energy =  -7.37621633452025
 Beta HF Exchange     Energy =  -7.15072407830220
 DFT Correlation      Energy =  -2.76346405364030
 DFT Exchange         Energy = -57.63892895602456
 One-Electron (alpha) Energy = -992.25666615508840
 One-Electron (beta)  Energy = -958.50673719469330
 Total Coulomb        Energy = 725.00274814733757
   10   -1038.2354761146      1.85e-06  
 Alpha HF Exchange    Energy =  -7.37622521498393
 Beta HF Exchange     Energy =  -7.15073368323300
 DFT Correlation      Energy =  -2.76346441618788
 DFT Exchange         Energy = -57.63899757616267
 One-Electron (alpha) Energy = -992.25712628242093
 One-Electron (beta)  Energy = -958.50784190955142
 Total Coulomb        Energy = 725.00440040320746
   11   -1038.2354761690      8.35e-07  Convergence criterion met
 ---------------------------------------
 SCF time:   CPU 28.82s  wall 2.00s 
<S^2> =          2.009840100
 Alpha HF Exchange    Energy =  -7.37622521498393
 Beta HF Exchange     Energy =  -7.15073368323300
 DFT Correlation      Energy =  -2.76346441618788
 DFT Exchange         Energy = -57.63899757616267
 One-Electron (alpha) Energy = -992.25712628242093
 One-Electron (beta)  Energy = -958.50784190955142
 Total Coulomb        Energy = 725.00440040320746
 Nuclear repulsion Energy = 262.45451251033001
 SCF   energy in the final basis set =    -1038.2354761690
 Total energy in the final basis set =    -1038.2354761690
 
 --------------------------------------------------------------
 
                    Orbital Energies (a.u.)
 --------------------------------------------------------------
 
 Alpha MOs
 -- Occupied --
*******-101.525 -10.269 -10.246 -10.208  -9.472  -9.438  -7.236
 -7.231  -7.225  -7.209  -7.192  -7.191  -0.861  -0.806  -0.776
 -0.719  -0.605  -0.509  -0.467  -0.450  -0.408  -0.405  -0.394
 -0.375  -0.324  -0.294  -0.289  -0.285  -0.240
 -- Virtual --
 -0.023   0.084   0.102   0.122   0.145   0.152   0.158   0.238
  0.291   0.353   0.396   0.410   0.429   0.450   0.486   0.500
  0.505   0.521   0.526   0.559   0.580   0.606   0.647   0.684
  0.703   0.727   0.766   0.814   0.830   0.849   0.851   0.868
  0.874   0.879   0.891   0.897   0.902   0.919   0.927   0.939
  1.016   1.035   1.138   1.258   1.285   1.369   1.420   1.497
  1.640   1.774   1.799   1.844   1.877   1.969   2.016   2.058
  2.071   2.085   2.153   2.243   2.317   2.325   2.397   2.412
  2.510   2.552   2.635   2.694   2.771   2.829   2.845   2.921
  3.153   3.233   3.371   3.395   3.428   3.502   4.141   4.247
  4.258   4.420   4.547
 
 Beta MOs
 -- Occupied --
*******-101.520 -10.269 -10.235 -10.208  -9.468  -9.433  -7.228
 -7.223  -7.222  -7.192  -7.188  -7.188  -0.841  -0.783  -0.737
 -0.711  -0.591  -0.504  -0.460  -0.431  -0.403  -0.391  -0.383
 -0.326  -0.314  -0.281  -0.277
 -- Virtual --
 -0.171  -0.127   0.010   0.086   0.104   0.123   0.151   0.160
  0.162   0.246   0.297   0.364   0.410   0.418   0.442   0.456
  0.494   0.512   0.520   0.537   0.540   0.573   0.597   0.619
  0.662   0.694   0.713   0.740   0.782   0.827   0.837   0.855
  0.869   0.884   0.894   0.907   0.909   0.921   0.923   0.933
  0.937   0.964   1.043   1.055   1.150   1.271   1.299   1.389
  1.430   1.498   1.644   1.788   1.810   1.858   1.886   1.990
  2.020   2.062   2.076   2.088   2.168   2.247   2.321   2.335
  2.405   2.422   2.518   2.564   2.640   2.703   2.774   2.834
  2.851   2.925   3.156   3.236   3.375   3.400   3.429   3.506
  4.157   4.261   4.273   4.421   4.558
 --------------------------------------------------------------
 
          Ground-State Mulliken Net Atomic Charges

     Atom                 Charge (a.u.)    Spin (a.u.)
  --------------------------------------------------------
      1 Cl                   -0.226000       0.747489
      2 Cl                   -0.071125       0.511274
      3 C                     0.015804       0.773958
      4 C                    -0.286692      -0.021863
      5 C                    -0.357578      -0.057277
      6 H                     0.147073      -0.033006
      7 H                     0.171934       0.005298
      8 H                     0.180092       0.001548
      9 H                     0.170890       0.047404
     10 H                     0.133855       0.022028
     11 H                     0.121746       0.003147
  --------------------------------------------------------
  Sum of atomic charges =     0.000000
  Sum of spin   charges =     2.000000

 -----------------------------------------------------------------
                    Cartesian Multipole Moments
 -----------------------------------------------------------------
    Charge (ESU x 10^10)
                 0.0000
    Dipole Moment (Debye)
         X      -0.5568      Y      -4.0823      Z      -2.1327
       Tot       4.6393
    Quadrupole Moments (Debye-Ang)
        XX     -44.6482     XY       0.0981     YY     -49.8020
        XZ      -0.0219     YZ      -2.3593     ZZ     -42.9750
    Octopole Moments (Debye-Ang^2)
       XXX     -10.6773    XXY     -29.3003    XYY      -0.4757
       YYY     -96.3953    XXZ      -0.0836    XYZ       2.9835
       YYZ      -2.8796    XZZ      -2.6437    YZZ     -29.5163
       ZZZ      -8.5273
    Hexadecapole Moments (Debye-Ang^3)
      XXXX    -263.8058   XXXY     -31.7142   XXYY    -152.0433
      XYYY     -22.9609   YYYY    -700.9934   XXXZ      64.2826
      XXYZ     -13.4323   XYYZ      20.4875   YYYZ     -61.5260
      XXZZ     -91.7977   XYZZ     -15.4531   YYZZ    -167.0452
      XZZZ      62.8283   YZZZ     -56.4409   ZZZZ    -283.1248
 -----------------------------------------------------------------
 Calculating analytic gradient of the SCF energy
 Gradient of SCF Energy
            1           2           3           4           5           6
    1  -0.0002866  -0.0005895   0.0007504   0.0004662  -0.0001125  -0.0001917
    2  -0.0020106  -0.0008347   0.0019850   0.0001351   0.0000383   0.0005461
    3  -0.0009920   0.0000576   0.0012316  -0.0004359  -0.0001325   0.0002768
            7           8           9          10          11
    1   0.0000110  -0.0000131   0.0000233  -0.0000304  -0.0000272
    2   0.0000738  -0.0000968   0.0000799   0.0000258   0.0000580
    3  -0.0001978   0.0000125   0.0001279   0.0000438   0.0000079
 Max gradient component =       2.011E-03
 RMS gradient           =       6.308E-04
 Gradient time:  CPU 9.09 s  wall 0.77 s
 Geometry Optimization Parameters
   NAtoms,    NIC,     NZ,  NCons,   NDum,   NFix, NCnnct, MaxDiis
       11      63       0       1       0       0       0       0

 Cartesian Hessian Update
 Hessian Updated using BFGS Update


** CONSTRAINED OPTIMIZATION IN DELOCALIZED INTERNAL COORDINATES **
   Searching for a Minimum

   Optimization Cycle:   2

                       Coordinates (Angstroms)
     ATOM                X               Y               Z
      1  Cl       -0.6875364703    2.1108230387    1.1461431646
      2  Cl        1.3419335144    1.3131982764   -0.5395943887
      3  C        -0.7200960388   -0.6543813969   -0.4674345050
      4  C         0.2455827680   -0.1902176197   -1.4090730591
      5  C        -0.4147127438   -1.6277315998    0.6123735472
      6  H        -1.6841537554   -0.1553142424   -0.4450020477
      7  H         1.0689348773   -0.8620549885   -1.6411327897
      8  H        -0.1347703255    0.3482602845   -2.2716212565
      9  H        -0.3261840359   -1.0975709811    1.5722800796
     10  H        -1.2287481703   -2.3525082855    0.7317093524
     11  H         0.5200503804   -2.1671014858    0.4361539030
   Point Group: c1    Number of degrees of freedom:    27


   Energy is  -1038.235476169

              Constraints and their Current Values
                                        Value     Constraint
   Distance(Angs):        1   3             3.201726     3.200000
 Hessian Updated using BFGS Update

   Using Lagrange Multiplier Algorithm


 27 Hessian modes will be used to form the next step
  Hessian Eigenvalues:
    -0.995045    0.044998    0.045007    0.045697    0.047093    0.059933
     0.083745    0.090029    0.092147    0.095346    0.131355    0.135422
     0.143299    0.158584    0.160000    0.160011    0.220397    0.243659
     0.336744    0.339495    0.340784    0.344115    0.350786    0.353075
     0.353242    0.415435    1.005185

 Minimum Search - Taking P-RFO Step
 Searching for Lamda that Maximizes Along the Constraint modes Only
 Value Taken    Lamda =   0.00000237
 Searching for Lamda that Minimizes Along All other modes
 Value Taken    Lamda =  -0.00004522
 Step Taken.  Stepsize is  0.017238

                             Maximum     Tolerance    Cnvgd?
         Gradient            0.003261       0.000300      NO
         Displacement        0.009448       0.001200      NO
         Energy change      0.000322       0.000001      NO


 New Cartesian Coordinates Obtained by Inverse Iteration

 Displacement from previous Coordinates is:  0.036934
 ----------------------------------------------------------------
             Standard Nuclear Orientation (Angstroms)
    I     Atom           X                Y                Z
 ----------------------------------------------------------------
    1      Cl     -0.6792944717     2.1126375057     1.1408965986
    2      Cl      1.3460344351     1.3203208754    -0.5448654080
    3      C      -0.7217674093    -0.6544986663    -0.4657003700
    4      C       0.2447852600    -0.1877962941    -1.4056815430
    5      C      -0.4157401819    -1.6294576314     0.6126557140
    6      H      -1.6876957277    -0.1602445325    -0.4460681016
    7      H       1.0684134834    -0.8597763774    -1.6363016790
    8      H      -0.1362352035     0.3488596638    -2.2691621682
    9      H      -0.3312023787    -1.1017450057     1.5739986116
   10      H      -1.2279159772    -2.3569940437     0.7278375729
   11      H       0.5209181714    -2.1659044939     0.4371927726
 ----------------------------------------------------------------
 Nuclear Repulsion Energy =   262.4097686093 hartrees
 There are       30 alpha and       28 beta electrons

                       Distance Matrix (Angstroms)
             Cl(  1)   Cl(  2)   C (  3)   C (  4)   C (  5)   H (  6)
   Cl(  2)  2.751639
   C (  3)  3.200000  2.860417
   C (  4)  3.554009  2.056252  1.426744
   C (  5)  3.788374  3.625589  1.485614  2.566781
   H (  6)  2.949800  3.377181  1.085214  2.157800  2.212997
   H (  7)  4.427478  2.453799  2.148766  1.087707  2.802308  3.082554
   H (  8)  3.877412  2.472662  2.145239  1.085714  3.506670  2.447425
   H (  9)  3.262055  3.628927  2.124369  3.169473  1.099912  2.609055
   H ( 10)  4.522080  4.665580  2.139909  3.380262  1.096451  2.532817
   H ( 11)  4.499070  3.714704  2.154955  2.717600  1.093568  3.111398
             H (  7)   H (  8)   H (  9)   H ( 10)
   H (  8)  1.820025
   H (  9)  3.510484  4.112439
   H ( 10)  3.619937  4.182753  1.759470
   H ( 11)  2.510996  3.752365  1.775070  1.783090
 
 Applying Cartesian multipole field
    Component          Value
    ---------          -----
     (2,0,0)        1.00000E-11
     (0,2,0)        2.00000E-11
     (0,0,2)       -3.00000E-11
 Nucleus-field energy     =     0.0000000057 hartrees
 Requested basis set is 6-31G(d,p)
 There are 40 shells and 113 basis functions
 A cutoff of  1.0D-14 yielded    772 shell pairs
 There are      6378 function pairs
 Smallest overlap matrix eigenvalue = 5.46E-03
 Guess from superposition of atomic densities
 Warning:  Energy on first SCF cycle will be non-variational
 SAD guess density has 58.000000 electrons

 -----------------------------------------------------------------------
  General SCF calculation program by
  Eric Jon Sundstrom, Paul Horn, Yuezhi Mao, Dmitri Zuev, Alec White,
  David Stuck, Shaama M.S., Shane Yost, Joonho Lee, David Small,
  Daniel Levine, Susi Lehtola, Hugh Burton, Evgeny Epifanovsky
 -----------------------------------------------------------------------
 Exchange:     0.2000 Hartree-Fock + 0.0800 Slater + 0.7200 B88
 Correlation:  0.1900 VWN1RPA + 0.8100 LYP
 Using SG-1 standard quadrature grid
 using 12 threads for integral computing
 -------------------------------------------------------
 OpenMP Integral computing Module                
 Release: version 1.0, May 2013, Q-Chem Inc. Pittsburgh 
 -------------------------------------------------------
 -------------------------------------------------------
 OpenMP BLAS3 based DFT computing Module                
 Release: version 1.0, May 2013, Q-Chem Inc. Pittsburgh 
 -------------------------------------------------------
 A unrestricted SCF calculation will be
 performed using DIIS
 SCF converges when DIIS error is below 1.0e-06
 Alpha HF Exchange    Energy =  -7.26196312722481
 Beta HF Exchange     Energy =  -7.26196312722481
 DFT Correlation      Energy =  -2.75654662143278
 DFT Exchange         Energy = -57.31104423554409
 One-Electron (alpha) Energy = -973.52720427282384
 One-Electron (beta)  Energy = -973.52720427282384
 Total Coulomb        Energy = 720.68500354021569
 ---------------------------------------
  Cycle       Energy         DIIS error
 ---------------------------------------
    1   -1038.5511535018      2.59e-02  
 Alpha HF Exchange    Energy =  -7.39678155293717
 Beta HF Exchange     Energy =  -7.17162844381256
 DFT Correlation      Energy =  -2.77550268738222
 DFT Exchange         Energy = -57.83538215720385
 One-Electron (alpha) Energy = -993.51492490281032
 One-Electron (beta)  Energy = -960.00225413239104
 Total Coulomb        Energy = 728.12491473192176
    2   -1038.1617905296      2.97e-03  
 Alpha HF Exchange    Energy =  -7.35316588952804
 Beta HF Exchange     Energy =  -7.13895221622693
 DFT Correlation      Energy =  -2.75469768577564
 DFT Exchange         Energy = -57.48420590176931
 One-Electron (alpha) Energy = -990.93800450155618
 One-Electron (beta)  Energy = -957.69285978240771
 Total Coulomb        Energy = 722.82700344560305
    3   -1038.1251139166      3.73e-03  
 Alpha HF Exchange    Energy =  -7.37025354984264
 Beta HF Exchange     Energy =  -7.14391947524632
 DFT Correlation      Energy =  -2.76290473843047
 DFT Exchange         Energy = -57.59571441668277
 One-Electron (alpha) Energy = -991.82206718344719
 One-Electron (beta)  Energy = -958.12081503969489
 Total Coulomb        Energy = 724.17586129971744
    4   -1038.2300444886      7.72e-04  
 Alpha HF Exchange    Energy =  -7.37624434695168
 Beta HF Exchange     Energy =  -7.15160112878612
 DFT Correlation      Energy =  -2.76408594618827
 DFT Exchange         Energy = -57.64428146463704
 One-Electron (alpha) Energy = -992.28615978170626
 One-Electron (beta)  Energy = -958.57744204232324
 Total Coulomb        Energy = 725.15556149407473
    5   -1038.2344846015      3.19e-04  
 Alpha HF Exchange    Energy =  -7.37626813923520
 Beta HF Exchange     Energy =  -7.15049710472399
 DFT Correlation      Energy =  -2.76370648764402
 DFT Exchange         Energy = -57.63980688174246
 One-Electron (alpha) Energy = -992.23879810630172
 One-Electron (beta)  Energy = -958.48028898887162
 Total Coulomb        Energy = 725.00418979263020
    6   -1038.2354073009      8.09e-05  
 Alpha HF Exchange    Energy =  -7.37595700090892
 Beta HF Exchange     Energy =  -7.15037097894578
 DFT Correlation      Energy =  -2.76350487773208
 DFT Exchange         Energy = -57.63715934941374
 One-Electron (alpha) Energy = -992.20707518115353
 One-Electron (beta)  Energy = -958.45228899702454
 Total Coulomb        Energy = 724.94110812566112
    7   -1038.2354796445      2.90e-05  
 Alpha HF Exchange    Energy =  -7.37618431130717
 Beta HF Exchange     Energy =  -7.15060443191663
 DFT Correlation      Energy =  -2.76348034043299
 DFT Exchange         Energy = -57.63864146736894
 One-Electron (alpha) Energy = -992.21953850408261
 One-Electron (beta)  Energy = -958.46296510005425
 Total Coulomb        Energy = 724.96615318565034
    8   -1038.2354923545      1.28e-05  
 Alpha HF Exchange    Energy =  -7.37620208303265
 Beta HF Exchange     Energy =  -7.15064696553064
 DFT Correlation      Energy =  -2.76346108172842
 DFT Exchange         Energy = -57.63873741317725
 One-Electron (alpha) Energy = -992.21667228944136
 One-Electron (beta)  Energy = -958.46415869476698
 Total Coulomb        Energy = 724.96461597416408
    9   -1038.2354939385      6.24e-06  
 Alpha HF Exchange    Energy =  -7.37617684177884
 Beta HF Exchange     Energy =  -7.15064665296526
 DFT Correlation      Energy =  -2.76345238766384
 DFT Exchange         Energy = -57.63862652841446
 One-Electron (alpha) Energy = -992.21431605878331
 One-Electron (beta)  Energy = -958.46314320614795
 Total Coulomb        Energy = 724.96109876030391
   10   -1038.2354943004      1.86e-06  
 Alpha HF Exchange    Energy =  -7.37618586510868
 Beta HF Exchange     Energy =  -7.15065635103252
 DFT Correlation      Energy =  -2.76345280722483
 DFT Exchange         Energy = -57.63869601880138
 One-Electron (alpha) Energy = -992.21478870929684
 One-Electron (beta)  Energy = -958.46425770146914
 Total Coulomb        Energy = 724.96277448417754
   11   -1038.2354943537      8.21e-07  Convergence criterion met
 ---------------------------------------
 SCF time:   CPU 28.54s  wall 3.00s 
<S^2> =          2.009854987
 Alpha HF Exchange    Energy =  -7.37618586510868
 Beta HF Exchange     Energy =  -7.15065635103252
 DFT Correlation      Energy =  -2.76345280722483
 DFT Exchange         Energy = -57.63869601880138
 One-Electron (alpha) Energy = -992.21478870929684
 One-Electron (beta)  Energy = -958.46425770146914
 Total Coulomb        Energy = 724.96277448417754
 Nuclear repulsion Energy = 262.40976861503566
 SCF   energy in the final basis set =    -1038.2354943537
 Total energy in the final basis set =    -1038.2354943537
 
 --------------------------------------------------------------
 
                    Orbital Energies (a.u.)
 --------------------------------------------------------------
 
 Alpha MOs
 -- Occupied --
*******-101.525 -10.269 -10.246 -10.208  -9.472  -9.438  -7.236
 -7.231  -7.225  -7.209  -7.191  -7.191  -0.860  -0.806  -0.775
 -0.719  -0.605  -0.509  -0.467  -0.450  -0.408  -0.404  -0.394
 -0.376  -0.324  -0.294  -0.289  -0.284  -0.241
 -- Virtual --
 -0.023   0.084   0.102   0.122   0.145   0.152   0.158   0.238
  0.291   0.353   0.396   0.410   0.429   0.450   0.486   0.500
  0.506   0.521   0.526   0.558   0.580   0.607   0.646   0.684
  0.702   0.727   0.766   0.814   0.830   0.849   0.851   0.868
  0.874   0.879   0.891   0.896   0.901   0.919   0.927   0.938
  1.017   1.034   1.138   1.258   1.284   1.369   1.420   1.497
  1.640   1.774   1.798   1.843   1.876   1.969   2.016   2.058
  2.071   2.084   2.154   2.244   2.318   2.325   2.397   2.412
  2.510   2.552   2.636   2.694   2.771   2.829   2.846   2.921
  3.153   3.233   3.371   3.395   3.427   3.501   4.140   4.248
  4.258   4.420   4.547
 
 Beta MOs
 -- Occupied --
*******-101.520 -10.269 -10.235 -10.208  -9.468  -9.433  -7.228
 -7.223  -7.222  -7.192  -7.188  -7.188  -0.840  -0.783  -0.737
 -0.711  -0.591  -0.505  -0.460  -0.432  -0.403  -0.391  -0.383
 -0.326  -0.314  -0.281  -0.277
 -- Virtual --
 -0.170  -0.128   0.010   0.086   0.103   0.123   0.151   0.160
  0.162   0.246   0.297   0.364   0.410   0.418   0.442   0.457
  0.494   0.512   0.521   0.538   0.540   0.572   0.597   0.620
  0.661   0.693   0.712   0.740   0.782   0.827   0.837   0.855
  0.870   0.883   0.894   0.907   0.909   0.921   0.923   0.933
  0.937   0.964   1.043   1.055   1.149   1.270   1.298   1.389
  1.430   1.498   1.644   1.788   1.809   1.856   1.886   1.990
  2.020   2.062   2.076   2.087   2.168   2.247   2.322   2.335
  2.405   2.421   2.518   2.564   2.640   2.703   2.774   2.834
  2.851   2.925   3.156   3.236   3.375   3.400   3.429   3.506
  4.156   4.261   4.273   4.421   4.558
 --------------------------------------------------------------
 
          Ground-State Mulliken Net Atomic Charges

     Atom                 Charge (a.u.)    Spin (a.u.)
  --------------------------------------------------------
      1 Cl                   -0.227113       0.746244
      2 Cl                   -0.071207       0.513040
      3 C                     0.016543       0.772655
      4 C                    -0.286311      -0.021150
      5 C                    -0.357795      -0.057161
      6 H                     0.147088      -0.032901
      7 H                     0.171875       0.005248
      8 H                     0.180052       0.001517
      9 H                     0.171040       0.047323
     10 H                     0.133904       0.022005
     11 H                     0.121924       0.003181
  --------------------------------------------------------
  Sum of atomic charges =    -0.000000
  Sum of spin   charges =     2.000000

 -----------------------------------------------------------------
                    Cartesian Multipole Moments
 -----------------------------------------------------------------
    Charge (ESU x 10^10)
                -0.0000
    Dipole Moment (Debye)
         X      -0.5716      Y      -4.1051      Z      -2.1261
       Tot       4.6582
    Quadrupole Moments (Debye-Ang)
        XX     -44.6316     XY       0.1024     YY     -49.8303
        XZ      -0.0140     YZ      -2.3667     ZZ     -42.9919
    Octopole Moments (Debye-Ang^2)
       XXX     -11.1137    XXY     -29.4266    XYY      -0.6240
       YYY     -96.8640    XXZ       0.0099    XYZ       2.9661
       YYZ      -2.7905    XZZ      -2.8200    YZZ     -29.6510
       ZZZ      -8.1510
    Hexadecapole Moments (Debye-Ang^3)
      XXXX    -263.8657   XXXY     -32.9529   XXYY    -152.4171
      XYYY     -24.1566   YYYY    -703.4662   XXXZ      64.1698
      XXYZ     -13.1623   XYYZ      20.4552   YYYZ     -60.7416
      XXZZ     -91.7075   XYZZ     -15.8783   YYZZ    -167.3566
      XZZZ      62.7062   YZZZ     -55.5954   ZZZZ    -282.2974
 -----------------------------------------------------------------
 Calculating analytic gradient of the SCF energy
 Gradient of SCF Energy
            1           2           3           4           5           6
    1  -0.0001600  -0.0002610  -0.0001638   0.0006034  -0.0000270   0.0001267
    2  -0.0020253  -0.0004407   0.0018054   0.0003497   0.0001055   0.0002862
    3  -0.0010939   0.0000526   0.0011472  -0.0002228   0.0000505   0.0002291
            7           8           9          10          11
    1  -0.0000154  -0.0000845   0.0000041  -0.0000162  -0.0000061
    2  -0.0000019  -0.0000920   0.0000004   0.0000291  -0.0000163
    3  -0.0001423  -0.0000365   0.0000117   0.0000031   0.0000012
 Max gradient component =       2.025E-03
 RMS gradient           =       5.756E-04
 Gradient time:  CPU 9.11 s  wall 0.77 s
 Geometry Optimization Parameters
   NAtoms,    NIC,     NZ,  NCons,   NDum,   NFix, NCnnct, MaxDiis
       11      63       0       1       0       0       0       0

 Cartesian Hessian Update
 Hessian Updated using BFGS Update


** CONSTRAINED OPTIMIZATION IN DELOCALIZED INTERNAL COORDINATES **
   Searching for a Minimum

   Optimization Cycle:   3

                       Coordinates (Angstroms)
     ATOM                X               Y               Z
      1  Cl       -0.6792944717    2.1126375057    1.1408965986
      2  Cl        1.3460344351    1.3203208754   -0.5448654080
      3  C        -0.7217674093   -0.6544986663   -0.4657003700
      4  C         0.2447852600   -0.1877962941   -1.4056815430
      5  C        -0.4157401819   -1.6294576314    0.6126557140
      6  H        -1.6876957277   -0.1602445325   -0.4460681016
      7  H         1.0684134834   -0.8597763774   -1.6363016790
      8  H        -0.1362352035    0.3488596638   -2.2691621682
      9  H        -0.3312023787   -1.1017450057    1.5739986116
     10  H        -1.2279159772   -2.3569940437    0.7278375729
     11  H         0.5209181714   -2.1659044939    0.4371927726
   Point Group: c1    Number of degrees of freedom:    27


   Energy is  -1038.235494354

              Constraints and their Current Values
                                        Value     Constraint
   Distance(Angs):        1   3             3.200000     3.200000
 Hessian Updated using BFGS Update

 26 Hessian modes will be used to form the next step
  Hessian Eigenvalues:
     0.032728    0.045006    0.045023    0.046856    0.055593    0.084869
     0.090031    0.092137    0.095360    0.128758    0.132295    0.142591
     0.158584    0.159931    0.160000    0.160148    0.182608    0.220725
     0.336959    0.339624    0.340806    0.344201    0.350781    0.353185
     0.357462    0.427241

 Minimum Search - Taking Simple RFO Step
 Searching for Lamda that Minimizes Along All modes
 Value Taken    Lamda =  -0.00002253
 Step Taken.  Stepsize is  0.022820

                             Maximum     Tolerance    Cnvgd?
         Gradient           0.000745      0.000300      NO
         Displacement       0.012412      0.001200      NO
         Energy change     -0.000018      0.000001      NO


 New Cartesian Coordinates Obtained by Inverse Iteration

 Displacement from previous Coordinates is:  0.045519
 ----------------------------------------------------------------
             Standard Nuclear Orientation (Angstroms)
    I     Atom           X                Y                Z
 ----------------------------------------------------------------
    1      Cl     -0.6678281749     2.1152252478     1.1376876876
    2      Cl      1.3496619187     1.3285530013    -0.5519303578
    3      C      -0.7232895831    -0.6545889905    -0.4638907471
    4      C       0.2433427538    -0.1857268108    -1.4020505984
    5      C      -0.4170071265    -1.6311701311     0.6129441959
    6      H      -1.6926419594    -0.1670444993    -0.4491217918
    7      H       1.0680825517    -0.8571076209    -1.6301307269
    8      H      -0.1376626558     0.3490673842    -2.2666386770
    9      H      -0.3380626945    -1.1060268573     1.5760862836
   10      H      -1.2266200406    -2.3624590607     0.7229046071
   11      H       0.5223250107    -2.1633206627     0.4389421248
 ----------------------------------------------------------------
 Nuclear Repulsion Energy =   262.3469528995 hartrees
 There are       30 alpha and       28 beta electrons

                       Distance Matrix (Angstroms)
             Cl(  1)   Cl(  2)   C (  3)   C (  4)   C (  5)   H (  6)
   Cl(  2)  2.746621
   C (  3)  3.200000  2.870145
   C (  4)  3.546108  2.059051  1.426308
   C (  5)  3.791272  3.638408  1.485629  2.566237
   H (  6)  2.962594  3.391606  1.085155  2.157883  2.213344
   H (  7)  4.416896  2.453348  2.147124  1.087644  2.799294  3.081001
   H (  8)  3.871670  2.472196  2.144804  1.085671  3.505905  2.446978
   H (  9)  3.267630  3.647471  2.124548  3.170849  1.099841  2.611138
   H ( 10)  4.531440  4.678248  2.139777  3.378519  1.096516  2.531930
   H ( 11)  4.495627  3.722834  2.154747  2.716241  1.093529  3.111246
             H (  7)   H (  8)   H (  9)   H ( 10)
   H (  8)  1.820391
   H (  9)  3.509848  4.113878
   H ( 10)  3.615041  4.180380  1.759567
   H ( 11)  2.507011  3.750713  1.775172  1.783003
 
 Applying Cartesian multipole field
    Component          Value
    ---------          -----
     (2,0,0)        1.00000E-11
     (0,2,0)        2.00000E-11
     (0,0,2)       -3.00000E-11
 Nucleus-field energy     =     0.0000000058 hartrees
 Requested basis set is 6-31G(d,p)
 There are 40 shells and 113 basis functions
 A cutoff of  1.0D-14 yielded    772 shell pairs
 There are      6378 function pairs
 Smallest overlap matrix eigenvalue = 5.44E-03
 Guess from superposition of atomic densities
 Warning:  Energy on first SCF cycle will be non-variational
 SAD guess density has 58.000000 electrons

 -----------------------------------------------------------------------
  General SCF calculation program by
  Eric Jon Sundstrom, Paul Horn, Yuezhi Mao, Dmitri Zuev, Alec White,
  David Stuck, Shaama M.S., Shane Yost, Joonho Lee, David Small,
  Daniel Levine, Susi Lehtola, Hugh Burton, Evgeny Epifanovsky
 -----------------------------------------------------------------------
 Exchange:     0.2000 Hartree-Fock + 0.0800 Slater + 0.7200 B88
 Correlation:  0.1900 VWN1RPA + 0.8100 LYP
 Using SG-1 standard quadrature grid
 using 12 threads for integral computing
 -------------------------------------------------------
 OpenMP Integral computing Module                
 Release: version 1.0, May 2013, Q-Chem Inc. Pittsburgh 
 -------------------------------------------------------
 -------------------------------------------------------
 OpenMP BLAS3 based DFT computing Module                
 Release: version 1.0, May 2013, Q-Chem Inc. Pittsburgh 
 -------------------------------------------------------
 A unrestricted SCF calculation will be
 performed using DIIS
 SCF converges when DIIS error is below 1.0e-06
 Alpha HF Exchange    Energy =  -7.26190300834356
 Beta HF Exchange     Energy =  -7.26190300834356
 DFT Correlation      Energy =  -2.75651554116735
 DFT Exchange         Energy = -57.31096152732479
 One-Electron (alpha) Energy = -973.46423516252446
 One-Electron (beta)  Energy = -973.46423516252446
 Total Coulomb        Energy = 720.62215596172871
 ---------------------------------------
  Cycle       Energy         DIIS error
 ---------------------------------------
    1   -1038.5506445432      2.59e-02  
 Alpha HF Exchange    Energy =  -7.39680356953692
 Beta HF Exchange     Energy =  -7.17164700371794
 DFT Correlation      Energy =  -2.77550257896336
 DFT Exchange         Energy = -57.83555213454427
 One-Electron (alpha) Energy = -993.45876865015475
 One-Electron (beta)  Energy = -959.94604891158406
 Total Coulomb        Energy = 728.07533500685838
    2   -1038.1620349363      2.97e-03  
 Alpha HF Exchange    Energy =  -7.35314183422299
 Beta HF Exchange     Energy =  -7.13877975406293
 DFT Correlation      Energy =  -2.75468568035180
 DFT Exchange         Energy = -57.48363518952572
 One-Electron (alpha) Energy = -990.87430714181744
 One-Electron (beta)  Energy = -957.62509523658684
 Total Coulomb        Energy = 722.75704238721528
    3   -1038.1256495440      3.72e-03  
 Alpha HF Exchange    Energy =  -7.37025109737882
 Beta HF Exchange     Energy =  -7.14386178396000
 DFT Correlation      Energy =  -2.76290933439807
 DFT Exchange         Energy = -57.59564447373952
 One-Electron (alpha) Energy = -991.76353125284277
 One-Electron (beta)  Energy = -958.05957660976412
 Total Coulomb        Energy = 724.11880764853402
    4   -1038.2300139982      7.74e-04  
 Alpha HF Exchange    Energy =  -7.37622969185074
 Beta HF Exchange     Energy =  -7.15150824744323
 DFT Correlation      Energy =  -2.76408480698814
 DFT Exchange         Energy = -57.64402715622501
 One-Electron (alpha) Energy = -992.22650651059575
 One-Electron (beta)  Energy = -958.51436028284888
 Total Coulomb        Energy = 725.09526148810937
    5   -1038.2345023025      3.18e-04  
 Alpha HF Exchange    Energy =  -7.37626187006142
 Beta HF Exchange     Energy =  -7.15042007178955
 DFT Correlation      Energy =  -2.76370918654853
 DFT Exchange         Energy = -57.63964274915337
 One-Electron (alpha) Energy = -992.18010700756167
 One-Electron (beta)  Energy = -958.41820570475227
 Total Coulomb        Energy = 724.94597361806188
    6   -1038.2354200665      8.07e-05  
 Alpha HF Exchange    Energy =  -7.37594818902459
 Beta HF Exchange     Energy =  -7.15028771198091
 DFT Correlation      Energy =  -2.76350696121128
 DFT Exchange         Energy = -57.63696876613947
 One-Electron (alpha) Energy = -992.14825392342982
 One-Electron (beta)  Energy = -958.38969743258770
 Total Coulomb        Energy = 724.88221782664107
    7   -1038.2354922524      2.87e-05  
 Alpha HF Exchange    Energy =  -7.37617896316387
 Beta HF Exchange     Energy =  -7.15052327605657
 DFT Correlation      Energy =  -2.76348305637440
 DFT Exchange         Energy = -57.63846993318239
 One-Electron (alpha) Energy = -992.16097409730560
 One-Electron (beta)  Energy = -958.40056315645654
 Total Coulomb        Energy = 724.90773463337462
    8   -1038.2355049438      1.26e-05  
 Alpha HF Exchange    Energy =  -7.37619420634704
 Beta HF Exchange     Energy =  -7.15056329818322
 DFT Correlation      Energy =  -2.76346324533473
 DFT Exchange         Energy = -57.63854734579319
 One-Electron (alpha) Energy = -992.15789916609026
 One-Electron (beta)  Energy = -958.40151515121181
 Total Coulomb        Energy = 724.90572301500288
    9   -1038.2355064926      6.24e-06  
 Alpha HF Exchange    Energy =  -7.37616962852759
 Beta HF Exchange     Energy =  -7.15056324677115
 DFT Correlation      Energy =  -2.76345475049641
 DFT Exchange         Energy = -57.63844035177740
 One-Electron (alpha) Energy = -992.15562044072453
 One-Electron (beta)  Energy = -958.40053361004902
 Total Coulomb        Energy = 724.90232227195656
   10   -1038.2355068511      1.86e-06  
 Alpha HF Exchange    Energy =  -7.37617882133706
 Beta HF Exchange     Energy =  -7.15057303968636
 DFT Correlation      Energy =  -2.76345524201195
 DFT Exchange         Energy = -57.63851082659315
 One-Electron (alpha) Energy = -992.15610807332985
 One-Electron (beta)  Energy = -958.40165848756374
 Total Coulomb        Energy = 724.90402468215495
   11   -1038.2355069030      8.04e-07  Convergence criterion met
 ---------------------------------------
 SCF time:   CPU 28.84s  wall 3.00s 
<S^2> =          2.009883440
 Alpha HF Exchange    Energy =  -7.37617882133706
 Beta HF Exchange     Energy =  -7.15057303968636
 DFT Correlation      Energy =  -2.76345524201195
 DFT Exchange         Energy = -57.63851082659315
 One-Electron (alpha) Energy = -992.15610807332985
 One-Electron (beta)  Energy = -958.40165848756374
 Total Coulomb        Energy = 724.90402468215495
 Nuclear repulsion Energy = 262.34695290531766
 SCF   energy in the final basis set =    -1038.2355069030
 Total energy in the final basis set =    -1038.2355069030
 
 --------------------------------------------------------------
 
                    Orbital Energies (a.u.)
 --------------------------------------------------------------
 
 Alpha MOs
 -- Occupied --
*******-101.525 -10.269 -10.246 -10.208  -9.472  -9.438  -7.236
 -7.231  -7.224  -7.208  -7.191  -7.191  -0.860  -0.807  -0.775
 -0.719  -0.605  -0.509  -0.467  -0.450  -0.408  -0.404  -0.394
 -0.376  -0.324  -0.294  -0.289  -0.283  -0.241
 -- Virtual --
 -0.023   0.083   0.101   0.121   0.145   0.152   0.157   0.238
  0.291   0.353   0.396   0.410   0.429   0.451   0.486   0.500
  0.507   0.521   0.526   0.558   0.580   0.607   0.645   0.684
  0.702   0.728   0.765   0.814   0.830   0.849   0.851   0.868
  0.873   0.879   0.891   0.896   0.901   0.920   0.927   0.938
  1.019   1.032   1.138   1.257   1.283   1.368   1.421   1.497
  1.640   1.774   1.798   1.842   1.876   1.969   2.015   2.057
  2.071   2.084   2.155   2.244   2.319   2.325   2.396   2.412
  2.510   2.552   2.636   2.694   2.771   2.829   2.845   2.922
  3.153   3.234   3.371   3.395   3.427   3.502   4.139   4.248
  4.258   4.420   4.547
 
 Beta MOs
 -- Occupied --
*******-101.519 -10.269 -10.236 -10.209  -9.468  -9.432  -7.228
 -7.223  -7.222  -7.191  -7.188  -7.187  -0.840  -0.783  -0.737
 -0.711  -0.591  -0.505  -0.460  -0.432  -0.403  -0.391  -0.383
 -0.326  -0.314  -0.280  -0.276
 -- Virtual --
 -0.170  -0.129   0.010   0.086   0.103   0.123   0.151   0.159
  0.162   0.246   0.297   0.364   0.411   0.417   0.442   0.457
  0.494   0.512   0.521   0.538   0.541   0.572   0.597   0.621
  0.660   0.694   0.712   0.741   0.781   0.827   0.838   0.855
  0.870   0.883   0.894   0.907   0.909   0.921   0.923   0.933
  0.937   0.964   1.043   1.056   1.149   1.270   1.297   1.389
  1.430   1.498   1.644   1.788   1.809   1.855   1.885   1.990
  2.020   2.062   2.076   2.087   2.169   2.248   2.322   2.336
  2.405   2.421   2.518   2.563   2.640   2.702   2.774   2.834
  2.850   2.926   3.156   3.236   3.375   3.400   3.429   3.506
  4.156   4.261   4.274   4.420   4.558
 --------------------------------------------------------------
 
          Ground-State Mulliken Net Atomic Charges

     Atom                 Charge (a.u.)    Spin (a.u.)
  --------------------------------------------------------
      1 Cl                   -0.228372       0.744886
      2 Cl                   -0.071475       0.515580
      3 C                     0.017684       0.770518
      4 C                    -0.286048      -0.020375
      5 C                    -0.358088      -0.057017
      6 H                     0.146979      -0.032795
      7 H                     0.171847       0.005258
      8 H                     0.180064       0.001500
      9 H                     0.171247       0.047213
     10 H                     0.133990       0.022012
     11 H                     0.122172       0.003220
  --------------------------------------------------------
  Sum of atomic charges =    -0.000000
  Sum of spin   charges =     2.000000

 -----------------------------------------------------------------
                    Cartesian Multipole Moments
 -----------------------------------------------------------------
    Charge (ESU x 10^10)
                -0.0000
    Dipole Moment (Debye)
         X      -0.5918      Y      -4.1346      Z      -2.1215
       Tot       4.6847
    Quadrupole Moments (Debye-Ang)
        XX     -44.6105     XY       0.1041     YY     -49.8650
        XZ      -0.0041     YZ      -2.3807     ZZ     -43.0141
    Octopole Moments (Debye-Ang^2)
       XXX     -11.6466    XXY     -29.5848    XYY      -0.8200
       YYY     -97.4302    XXZ       0.0886    XYZ       2.9412
       YYZ      -2.7187    XZZ      -3.0418    YZZ     -29.8165
       ZZZ      -7.7851
    Hexadecapole Moments (Debye-Ang^3)
      XXXX    -263.5374   XXXY     -34.4721   XXYY    -152.8051
      XYYY     -25.6478   YYYY    -706.4628   XXXZ      64.0635
      XXYZ     -12.9336   XYYZ      20.4079   YYYZ     -60.0935
      XXZZ     -91.6326   XYZZ     -16.4138   YYZZ    -167.8535
      XZZZ      62.5477   YZZZ     -54.8464   ZZZZ    -281.9440
 -----------------------------------------------------------------
 Calculating analytic gradient of the SCF energy
 Gradient of SCF Energy
            1           2           3           4           5           6
    1  -0.0000086  -0.0000019  -0.0003404   0.0003573   0.0000700   0.0001146
    2  -0.0020002  -0.0001378   0.0015957   0.0004437   0.0000979   0.0001352
    3  -0.0011908  -0.0000414   0.0009182   0.0002290   0.0000893   0.0001154
            7           8           9          10          11
    1  -0.0000424  -0.0000731  -0.0000099  -0.0000292  -0.0000364
    2  -0.0000322  -0.0000428  -0.0000176  -0.0000015  -0.0000403
    3  -0.0000374  -0.0000182  -0.0000204  -0.0000194  -0.0000244
 Max gradient component =       2.000E-03
 RMS gradient           =       5.339E-04
 Gradient time:  CPU 9.34 s  wall 0.79 s
 Geometry Optimization Parameters
   NAtoms,    NIC,     NZ,  NCons,   NDum,   NFix, NCnnct, MaxDiis
       11      63       0       1       0       0       0       0

 Cartesian Hessian Update
 Hessian Updated using BFGS Update


** CONSTRAINED OPTIMIZATION IN DELOCALIZED INTERNAL COORDINATES **
   Searching for a Minimum

   Optimization Cycle:   4

                       Coordinates (Angstroms)
     ATOM                X               Y               Z
      1  Cl       -0.6678281749    2.1152252478    1.1376876876
      2  Cl        1.3496619187    1.3285530013   -0.5519303578
      3  C        -0.7232895831   -0.6545889905   -0.4638907471
      4  C         0.2433427538   -0.1857268108   -1.4020505984
      5  C        -0.4170071265   -1.6311701311    0.6129441959
      6  H        -1.6926419594   -0.1670444993   -0.4491217918
      7  H         1.0680825517   -0.8571076209   -1.6301307269
      8  H        -0.1376626558    0.3490673842   -2.2666386770
      9  H        -0.3380626945   -1.1060268573    1.5760862836
     10  H        -1.2266200406   -2.3624590607    0.7229046071
     11  H         0.5223250107   -2.1633206627    0.4389421248
   Point Group: c1    Number of degrees of freedom:    27


   Energy is  -1038.235506903

              Constraints and their Current Values
                                        Value     Constraint
   Distance(Angs):        1   3             3.200000     3.200000
 Hessian Updated using BFGS Update

 26 Hessian modes will be used to form the next step
  Hessian Eigenvalues:
     0.024229    0.045007    0.045025    0.046852    0.057604    0.084576
     0.090075    0.092294    0.095357    0.126519    0.132671    0.142858
     0.158580    0.159956    0.160001    0.160160    0.212046    0.223238
     0.336986    0.339695    0.340817    0.344200    0.350794    0.353182
     0.357745    0.427990

 Minimum Search - Taking Simple RFO Step
 Searching for Lamda that Minimizes Along All modes
 Value Taken    Lamda =  -0.00000232
 Step Taken.  Stepsize is  0.008395

                             Maximum     Tolerance    Cnvgd?
         Gradient           0.000215      0.000300     YES
         Displacement       0.003187      0.001200      NO
         Energy change     -0.000013      0.000001      NO


 New Cartesian Coordinates Obtained by Inverse Iteration

 Displacement from previous Coordinates is:  0.011774
 ----------------------------------------------------------------
             Standard Nuclear Orientation (Angstroms)
    I     Atom           X                Y                Z
 ----------------------------------------------------------------
    1      Cl     -0.6649212793     2.1141531655     1.1399773593
    2      Cl      1.3497008500     1.3303838281    -0.5536328225
    3      C      -0.7232881473    -0.6543371962    -0.4637853386
    4      C       0.2429397061    -0.1859918631    -1.4022141916
    5      C      -0.4173381523    -1.6308384031     0.6131740328
    6      H      -1.6937327551    -0.1688505022    -0.4509212952
    7      H       1.0683645474    -0.8568356455    -1.6294001509
    8      H      -0.1378008995     0.3484266467    -2.2671099470
    9      H      -0.3399567031    -1.1058410495     1.5765267037
   10      H      -1.2264005718    -2.3628869693     0.7220686690
   11      H       0.5227334048    -2.1619810114     0.4401189810
 ----------------------------------------------------------------
 Nuclear Repulsion Energy =   262.3240846350 hartrees
 There are       30 alpha and       28 beta electrons

                       Distance Matrix (Angstroms)
             Cl(  1)   Cl(  2)   C (  3)   C (  4)   C (  5)   H (  6)
   Cl(  2)  2.746145
   C (  3)  3.200000  2.871319
   C (  4)  3.546494  2.060196  1.426041
   C (  5)  3.789958  3.640426  1.485598  2.566191
   H (  6)  2.966735  3.394222  1.085185  2.157766  2.213344
   H (  7)  4.415938  2.453641  2.147017  1.087645  2.799202  3.080798
   H (  8)  3.873486  2.472429  2.144833  1.085639  3.505947  2.446843
   H (  9)  3.265661  3.650714  2.124540  3.171559  1.099845  2.611744
   H ( 10)  4.531423  4.680167  2.139746  3.377930  1.096510  2.531423
   H ( 11)  4.492844  3.723980  2.154670  2.716065  1.093524  3.111148
             H (  7)   H (  8)   H (  9)   H ( 10)
   H (  8)  1.820485
   H (  9)  3.510461  4.114524
   H ( 10)  3.614352  4.179888  1.759558
   H ( 11)  2.506796  3.750672  1.775131  1.783067
 
 Applying Cartesian multipole field
    Component          Value
    ---------          -----
     (2,0,0)        1.00000E-11
     (0,2,0)        2.00000E-11
     (0,0,2)       -3.00000E-11
 Nucleus-field energy     =     0.0000000058 hartrees
 Requested basis set is 6-31G(d,p)
 There are 40 shells and 113 basis functions
 A cutoff of  1.0D-14 yielded    772 shell pairs
 There are      6378 function pairs
 Smallest overlap matrix eigenvalue = 5.43E-03
 Guess from superposition of atomic densities
 Warning:  Energy on first SCF cycle will be non-variational
 SAD guess density has 58.000000 electrons

 -----------------------------------------------------------------------
  General SCF calculation program by
  Eric Jon Sundstrom, Paul Horn, Yuezhi Mao, Dmitri Zuev, Alec White,
  David Stuck, Shaama M.S., Shane Yost, Joonho Lee, David Small,
  Daniel Levine, Susi Lehtola, Hugh Burton, Evgeny Epifanovsky
 -----------------------------------------------------------------------
 Exchange:     0.2000 Hartree-Fock + 0.0800 Slater + 0.7200 B88
 Correlation:  0.1900 VWN1RPA + 0.8100 LYP
 Using SG-1 standard quadrature grid
 using 12 threads for integral computing
 -------------------------------------------------------
 OpenMP Integral computing Module                
 Release: version 1.0, May 2013, Q-Chem Inc. Pittsburgh 
 -------------------------------------------------------
 -------------------------------------------------------
 OpenMP BLAS3 based DFT computing Module                
 Release: version 1.0, May 2013, Q-Chem Inc. Pittsburgh 
 -------------------------------------------------------
 A unrestricted SCF calculation will be
 performed using DIIS
 SCF converges when DIIS error is below 1.0e-06
 Alpha HF Exchange    Energy =  -7.26187447423095
 Beta HF Exchange     Energy =  -7.26187447423095
 DFT Correlation      Energy =  -2.75649998908294
 DFT Exchange         Energy = -57.31091366128302
 One-Electron (alpha) Energy = -973.44128656956798
 One-Electron (beta)  Energy = -973.44128656956798
 Total Coulomb        Energy = 720.59923660554830
 ---------------------------------------
  Cycle       Energy         DIIS error
 ---------------------------------------
    1   -1038.5504144917      2.59e-02  
 Alpha HF Exchange    Energy =  -7.39681466287528
 Beta HF Exchange     Energy =  -7.17163904569058
 DFT Correlation      Energy =  -2.77549814503327
 DFT Exchange         Energy = -57.83558543524039
 One-Electron (alpha) Energy = -993.43914978450630
 One-Electron (beta)  Energy = -959.92435454388965
 Total Coulomb        Energy = 728.05684747462419
    2   -1038.1621095019      2.97e-03  
 Alpha HF Exchange    Energy =  -7.35313699078394
 Beta HF Exchange     Energy =  -7.13872580891314
 DFT Correlation      Energy =  -2.75467880402487
 DFT Exchange         Energy = -57.48345566785639
 One-Electron (alpha) Energy = -990.85205008926255
 One-Electron (beta)  Energy = -957.60046068067516
 Total Coulomb        Energy = 722.73261254604199
    3   -1038.1258108547      3.72e-03  
 Alpha HF Exchange    Energy =  -7.37025083938573
 Beta HF Exchange     Energy =  -7.14382754407843
 DFT Correlation      Energy =  -2.76290640185109
 DFT Exchange         Energy = -57.59557145913442
 One-Electron (alpha) Energy = -991.74309996431884
 One-Electron (beta)  Energy = -958.03583481145085
 Total Coulomb        Energy = 724.09740840302641
    4   -1038.2299979764      7.76e-04  
 Alpha HF Exchange    Energy =  -7.37622854314215
 Beta HF Exchange     Energy =  -7.15146936881791
 DFT Correlation      Energy =  -2.76408062525795
 DFT Exchange         Energy = -57.64392448008318
 One-Electron (alpha) Energy = -992.20587520906076
 One-Electron (beta)  Energy = -958.49048751596536
 Total Coulomb        Energy = 725.07347636452550
    5   -1038.2345047371      3.18e-04  
 Alpha HF Exchange    Energy =  -7.37626358642681
 Beta HF Exchange     Energy =  -7.15038421947834
 DFT Correlation      Energy =  -2.76370630388563
 DFT Exchange         Energy = -57.63956523820472
 One-Electron (alpha) Energy = -992.15985870351926
 One-Electron (beta)  Energy = -958.39448007204908
 Total Coulomb        Energy = 724.92475150294956
    6   -1038.2354219799      8.07e-05  
 Alpha HF Exchange    Energy =  -7.37594922233295
 Beta HF Exchange     Energy =  -7.15025033754712
 DFT Correlation      Energy =  -2.76350385031164
 DFT Exchange         Energy = -57.63688379270351
 One-Electron (alpha) Energy = -992.12798500259191
 One-Electron (beta)  Energy = -958.36582233255240
 Total Coulomb        Energy = 724.86081567951499
    7   -1038.2354942178      2.87e-05  
 Alpha HF Exchange    Energy =  -7.37618077369433
 Beta HF Exchange     Energy =  -7.15048627750253
 DFT Correlation      Energy =  -2.76347999925048
 DFT Exchange         Energy = -57.63838860527383
 One-Electron (alpha) Energy = -992.14076560836611
 One-Electron (beta)  Energy = -958.37669586317861
 Total Coulomb        Energy = 724.88640554922301
    8   -1038.2355069373      1.26e-05  
[...]

 Minimum Search - Taking Simple RFO Step
 Searching for Lamda that Minimizes Along All modes
 Value Taken    Lamda =   0.00000000
 Step Taken.  Stepsize is  0.010058

                             Maximum     Tolerance    Cnvgd?
         Gradient           0.000160      0.000300     YES
         Displacement       0.005068      0.001200      NO
         Energy change     -0.000001      0.000001      NO


 New Cartesian Coordinates Obtained by Inverse Iteration

 Displacement from previous Coordinates is:  0.010421
 ----------------------------------------------------------------
             Standard Nuclear Orientation (Angstroms)
    I     Atom           X                Y                Z
 ----------------------------------------------------------------
    1      Cl     -0.6476137999     2.0919048638     1.1760002498
    2      Cl      1.3381912724     1.3532157166    -0.5664817889
    3      C      -0.7223422621    -0.6526959182    -0.4676489138
    4      C       0.2401460308    -0.1970575000    -1.4111073674
    5      C      -0.4197732137    -1.6250385957     0.6137434868
    6      H      -1.6940153186    -0.1691474526    -0.4602416354
    7      H       1.0767301335    -0.8590146320    -1.6209430453
    8      H      -0.1354884710     0.3321270522    -2.2810756554
    9      H      -0.3496421129    -1.0962962498     1.5753472050
   10      H      -1.2282407220    -2.3582157234     0.7200262671
   11      H       0.5223484636    -2.1543805610     0.4471831975
 ----------------------------------------------------------------
 Nuclear Repulsion Energy =   262.0640823976 hartrees
 There are       30 alpha and       28 beta electrons

                       Distance Matrix (Angstroms)
             Cl(  1)   Cl(  2)   C (  3)   C (  4)   C (  5)   H (  6)
   Cl(  2)  2.743233
   C (  3)  3.200000  2.877368
   C (  4)  3.566594  2.079049  1.422710
   C (  5)  3.766127  3.654226  1.485398  2.564107
   H (  6)  2.980705  3.394577  1.085367  2.155436  2.212861
   H (  7)  4.416354  2.464592  2.146932  1.087240  2.796451  3.082235
   H (  8)  3.912859  2.480763  2.145411  1.085349  3.505894  2.448616
   H (  9)  3.226901  3.665559  2.123563  3.174176  1.099622  2.609706
   H ( 10)  4.510944  4.692164  2.138996  3.371720  1.096569  2.530217
   H ( 11)  4.464407  3.741169  2.154351  2.713668  1.093407  3.110762
             H (  7)   H (  8)   H (  9)   H ( 10)
   H (  8)  1.823203
   H (  9)  3.508149  4.118040
   H ( 10)  3.611182  4.175963  1.759531
   H ( 11)  2.502490  3.749515  1.775574  1.783411
 
 Applying Cartesian multipole field
    Component          Value
    ---------          -----
     (2,0,0)        1.00000E-11
     (0,2,0)        2.00000E-11
     (0,0,2)       -3.00000E-11
 Nucleus-field energy     =     0.0000000055 hartrees
 Requested basis set is 6-31G(d,p)
 There are 40 shells and 113 basis functions
 A cutoff of  1.0D-14 yielded    772 shell pairs
 There are      6378 function pairs
 Smallest overlap matrix eigenvalue = 5.39E-03
 Guess from superposition of atomic densities
 Warning:  Energy on first SCF cycle will be non-variational
 SAD guess density has 58.000000 electrons

 -----------------------------------------------------------------------
  General SCF calculation program by
  Eric Jon Sundstrom, Paul Horn, Yuezhi Mao, Dmitri Zuev, Alec White,
  David Stuck, Shaama M.S., Shane Yost, Joonho Lee, David Small,
  Daniel Levine, Susi Lehtola, Hugh Burton, Evgeny Epifanovsky
 -----------------------------------------------------------------------
 Exchange:     0.2000 Hartree-Fock + 0.0800 Slater + 0.7200 B88
 Correlation:  0.1900 VWN1RPA + 0.8100 LYP
 Using SG-1 standard quadrature grid
 using 12 threads for integral computing
 -------------------------------------------------------
 OpenMP Integral computing Module                
 Release: version 1.0, May 2013, Q-Chem Inc. Pittsburgh 
 -------------------------------------------------------
 -------------------------------------------------------
 OpenMP BLAS3 based DFT computing Module                
 Release: version 1.0, May 2013, Q-Chem Inc. Pittsburgh 
 -------------------------------------------------------
 A unrestricted SCF calculation will be
 performed using DIIS
 SCF converges when DIIS error is below 1.0e-06
 Alpha HF Exchange    Energy =  -7.26135818731718
 Beta HF Exchange     Energy =  -7.26135818731718
 DFT Correlation      Energy =  -2.75630014714543
 DFT Exchange         Energy = -57.30995360776129
 One-Electron (alpha) Energy = -973.18036876935093
 One-Electron (beta)  Energy = -973.18036876935093
 Total Coulomb        Energy = 720.33980871672748
 ---------------------------------------
  Cycle       Energy         DIIS error
 ---------------------------------------
    1   -1038.5458165484      2.59e-02  
 Alpha HF Exchange    Energy =  -7.39695469900339
 Beta HF Exchange     Energy =  -7.17143291258397
 DFT Correlation      Energy =  -2.77540672103298
 DFT Exchange         Energy = -57.83564205947826
 One-Electron (alpha) Energy = -993.22213770363840
 One-Electron (beta)  Energy = -959.67158077152885
 Total Coulomb        Energy = 727.84582165343454
    2   -1038.1632508107      2.95e-03  
 Alpha HF Exchange    Energy =  -7.35312879691189
 Beta HF Exchange     Energy =  -7.13798748086333
 DFT Correlation      Energy =  -2.75460331397089
 DFT Exchange         Energy = -57.48118384543295
 One-Electron (alpha) Energy = -990.60521112399249
 One-Electron (beta)  Energy = -957.31930703196554
 Total Coulomb        Energy = 722.45891362871669
    3   -1038.1284255613      3.67e-03  
 Alpha HF Exchange    Energy =  -7.37026207437921
 Beta HF Exchange     Energy =  -7.14328304159311
 DFT Correlation      Energy =  -2.76285492687808
 DFT Exchange         Energy = -57.59432842831448
 One-Electron (alpha) Energy = -991.51692127401918
 One-Electron (beta)  Energy = -957.75674912757484
 Total Coulomb        Energy = 723.85056597238258
    4   -1038.2297504972      7.93e-04  
 Alpha HF Exchange    Energy =  -7.37623506600299
 Beta HF Exchange     Energy =  -7.15087003153540
 DFT Correlation      Energy =  -2.76401189227789
 DFT Exchange         Energy = -57.64231522855412
 One-Electron (alpha) Energy = -991.97780226800205
 One-Electron (beta)  Energy = -958.21249491600611
 Total Coulomb        Energy = 724.82512704308147
    5   -1038.2345199562      3.16e-04  
 Alpha HF Exchange    Energy =  -7.37631070226540
 Beta HF Exchange     Energy =  -7.14981309344121
 DFT Correlation      Energy =  -2.76365654547775
 DFT Exchange         Energy = -57.63827970203390
 One-Electron (alpha) Energy = -991.93705459894920
 One-Electron (beta)  Energy = -958.11767254159088
 Total Coulomb        Energy = 724.68327369878250
    6   -1038.2354310818      8.09e-05  
 Alpha HF Exchange    Energy =  -7.37598613641228
 Beta HF Exchange     Energy =  -7.14965586346375
 DFT Correlation      Energy =  -2.76344999168131
 DFT Exchange         Energy = -57.63548148209608
 One-Electron (alpha) Energy = -991.90481049535629
 One-Electron (beta)  Energy = -958.08679642323705
 Total Coulomb        Energy = 724.61659379590844
    7   -1038.2355041932      2.84e-05  
 Alpha HF Exchange    Energy =  -7.37622986496409
 Beta HF Exchange     Energy =  -7.14989520286333
 DFT Correlation      Energy =  -2.76342708096437
 DFT Exchange         Energy = -57.63703800658622
 One-Electron (alpha) Energy = -991.91847468461401
 One-Electron (beta)  Energy = -958.09775668130385
 Total Coulomb        Energy = 724.64322175797906
    8   -1038.2355173602      1.24e-05  
 Alpha HF Exchange    Energy =  -7.37624108092720
 Beta HF Exchange     Energy =  -7.14993122742094
 DFT Correlation      Energy =  -2.76340546658814
 DFT Exchange         Energy = -57.63708239037421
 One-Electron (alpha) Energy = -991.91506041998764
 One-Electron (beta)  Energy = -958.09824288797120
 Total Coulomb        Energy = 724.64036217604303
    9   -1038.2355188941      6.44e-06  
 Alpha HF Exchange    Energy =  -7.37621795602340
 Beta HF Exchange     Energy =  -7.14993192120120
 DFT Correlation      Energy =  -2.76339714663660
 DFT Exchange         Energy = -57.63698369588943
 One-Electron (alpha) Energy = -991.91292300768021
 One-Electron (beta)  Energy = -958.09726512131556
 Total Coulomb        Energy = 724.63711718048944
   10   -1038.2355192651      1.92e-06  
 Alpha HF Exchange    Energy =  -7.37622783952741
 Beta HF Exchange     Energy =  -7.14994235281708
 DFT Correlation      Energy =  -2.76339777565139
 DFT Exchange         Energy = -57.63705874738903
 One-Electron (alpha) Energy = -991.91346435165678
 One-Electron (beta)  Energy = -958.09845324072876
 Total Coulomb        Energy = 724.63894258967298
   11   -1038.2355193150      7.72e-07  Convergence criterion met
 ---------------------------------------
 SCF time:   CPU 28.43s  wall 3.00s 
<S^2> =          2.010220488
 Alpha HF Exchange    Energy =  -7.37622783952741
 Beta HF Exchange     Energy =  -7.14994235281708
 DFT Correlation      Energy =  -2.76339777565139
 DFT Exchange         Energy = -57.63705874738903
 One-Electron (alpha) Energy = -991.91346435165678
 One-Electron (beta)  Energy = -958.09845324072876
 Total Coulomb        Energy = 724.63894258967298
 Nuclear repulsion Energy = 262.06408240313863
 SCF   energy in the final basis set =    -1038.2355193150
 Total energy in the final basis set =    -1038.2355193150
 
 --------------------------------------------------------------
 
                    Orbital Energies (a.u.)
 --------------------------------------------------------------
 
 Alpha MOs
 -- Occupied --
*******-101.524 -10.269 -10.248 -10.209  -9.471  -9.437  -7.234
 -7.230  -7.223  -7.207  -7.190  -7.190  -0.859  -0.807  -0.774
 -0.720  -0.606  -0.510  -0.467  -0.451  -0.409  -0.403  -0.395
 -0.375  -0.323  -0.293  -0.288  -0.282  -0.243
 -- Virtual --
 -0.026   0.083   0.101   0.121   0.145   0.152   0.157   0.238
  0.292   0.354   0.396   0.411   0.429   0.450   0.487   0.500
  0.507   0.520   0.527   0.560   0.580   0.609   0.644   0.685
  0.703   0.729   0.761   0.816   0.830   0.850   0.851   0.868
  0.874   0.880   0.892   0.895   0.902   0.918   0.927   0.939
  1.020   1.031   1.139   1.258   1.282   1.366   1.421   1.495
  1.637   1.773   1.797   1.840   1.874   1.967   2.014   2.056
  2.070   2.082   2.157   2.245   2.320   2.325   2.398   2.413
  2.507   2.553   2.635   2.692   2.771   2.829   2.843   2.923
  3.153   3.234   3.369   3.395   3.427   3.506   4.141   4.247
  4.259   4.419   4.548
 
 Beta MOs
 -- Occupied --
*******-101.518 -10.268 -10.238 -10.209  -9.466  -9.431  -7.226
 -7.222  -7.220  -7.190  -7.187  -7.186  -0.839  -0.783  -0.736
 -0.712  -0.592  -0.506  -0.461  -0.432  -0.404  -0.391  -0.380
 -0.325  -0.313  -0.280  -0.275
 -- Virtual --
 -0.168  -0.132   0.008   0.086   0.103   0.123   0.151   0.159
  0.161   0.246   0.298   0.365   0.412   0.418   0.443   0.456
  0.495   0.513   0.520   0.537   0.541   0.574   0.597   0.623
  0.658   0.694   0.713   0.742   0.778   0.828   0.838   0.855
  0.871   0.884   0.894   0.907   0.909   0.922   0.924   0.932
  0.939   0.964   1.042   1.057   1.150   1.271   1.295   1.387
  1.431   1.496   1.641   1.787   1.808   1.853   1.883   1.988
  2.019   2.061   2.075   2.085   2.171   2.249   2.322   2.336
  2.406   2.422   2.515   2.564   2.639   2.701   2.774   2.833
  2.848   2.927   3.156   3.237   3.373   3.399   3.428   3.510
  4.157   4.260   4.275   4.420   4.559
 --------------------------------------------------------------
 
          Ground-State Mulliken Net Atomic Charges

     Atom                 Charge (a.u.)    Spin (a.u.)
  --------------------------------------------------------
      1 Cl                   -0.231049       0.741407
      2 Cl                   -0.078535       0.532595
      3 C                     0.021403       0.753862
      4 C                    -0.283049      -0.017303
      5 C                    -0.358741      -0.055688
      6 H                     0.147574      -0.032222
      7 H                     0.172006       0.004589
      8 H                     0.180188       0.001478
      9 H                     0.172950       0.046252
     10 H                     0.134493       0.022031
     11 H                     0.122760       0.003000
  --------------------------------------------------------
  Sum of atomic charges =     0.000000
  Sum of spin   charges =     2.000000

 -----------------------------------------------------------------
                    Cartesian Multipole Moments
 -----------------------------------------------------------------
    Charge (ESU x 10^10)
                -0.0000
    Dipole Moment (Debye)
         X      -0.6461      Y      -4.2117      Z      -2.1702
       Tot       4.7818
    Quadrupole Moments (Debye-Ang)
        XX     -44.5927     XY       0.0618     YY     -49.8762
        XZ       0.0274     YZ      -2.4352     ZZ     -43.0591
    Octopole Moments (Debye-Ang^2)
       XXX     -11.9957    XXY     -29.7965    XYY      -1.0278
       YYY     -97.4841    XXZ      -0.2523    XYZ       2.9734
       YYZ      -3.0548    XZZ      -3.2426    YZZ     -30.0559
       ZZZ      -8.6905
    Hexadecapole Moments (Debye-Ang^3)
      XXXX    -259.5843   XXXY     -37.3224   XXYY    -151.8011
      XYYY     -28.5028   YYYY    -702.4606   XXXZ      64.7287
      XXYZ     -13.5336   XYYZ      20.7828   YYYZ     -61.7313
      XXZZ     -92.3889   XYZZ     -17.4419   YYZZ    -169.2776
      XZZZ      62.9058   YZZZ     -56.1594   ZZZZ    -290.6275
 -----------------------------------------------------------------
 Calculating analytic gradient of the SCF energy
 Gradient of SCF Energy
            1           2           3           4           5           6
    1  -0.0000134   0.0000607   0.0000298  -0.0000013   0.0000071   0.0000014
    2  -0.0018434   0.0000046   0.0018510  -0.0000654   0.0000340   0.0000113
    3  -0.0010825   0.0000585   0.0010835  -0.0000688   0.0000449  -0.0000163
            7           8           9          10          11
    1  -0.0000121   0.0000088   0.0000001  -0.0000391  -0.0000421
    2  -0.0000094   0.0000441  -0.0000086   0.0000144  -0.0000327
    3   0.0000090   0.0000301  -0.0000194  -0.0000118  -0.0000272
 Max gradient component =       1.851E-03
 RMS gradient           =       5.280E-04
 Gradient time:  CPU 9.08 s  wall 0.76 s
 Geometry Optimization Parameters
   NAtoms,    NIC,     NZ,  NCons,   NDum,   NFix, NCnnct, MaxDiis
       11      63       0       1       0       0       0       0

 Cartesian Hessian Update
 Hessian Updated using BFGS Update


** CONSTRAINED OPTIMIZATION IN DELOCALIZED INTERNAL COORDINATES **
   Searching for a Minimum

   Optimization Cycle:  11

                       Coordinates (Angstroms)
     ATOM                X               Y               Z
      1  Cl       -0.6476137999    2.0919048638    1.1760002498
      2  Cl        1.3381912724    1.3532157166   -0.5664817889
      3  C        -0.7223422621   -0.6526959182   -0.4676489138
      4  C         0.2401460308   -0.1970575000   -1.4111073674
      5  C        -0.4197732137   -1.6250385957    0.6137434868
      6  H        -1.6940153186   -0.1691474526   -0.4602416354
      7  H         1.0767301335   -0.8590146320   -1.6209430453
      8  H        -0.1354884710    0.3321270522   -2.2810756554
      9  H        -0.3496421129   -1.0962962498    1.5753472050
     10  H        -1.2282407220   -2.3582157234    0.7200262671
     11  H         0.5223484636   -2.1543805610    0.4471831975
   Point Group: c1    Number of degrees of freedom:    27


   Energy is  -1038.235519315

              Constraints and their Current Values
                                        Value     Constraint
   Distance(Angs):        1   3             3.200000     3.200000
 Hessian Updated using BFGS Update

 26 Hessian modes will be used to form the next step
  Hessian Eigenvalues:
     0.002664    0.010989    0.039489    0.045257    0.056783    0.065571
     0.089664    0.091994    0.095281    0.114881    0.131318    0.143181
     0.158580    0.159802    0.159957    0.160319    0.188390    0.219291
     0.336828    0.339491    0.340840    0.344204    0.350688    0.353224
     0.357259    0.413584

 Minimum Search - Taking Simple RFO Step
 Searching for Lamda that Minimizes Along All modes
 Value Taken    Lamda =   0.00000000
 Step Taken.  Stepsize is  0.003961

                             Maximum     Tolerance    Cnvgd?
         Gradient           0.000077      0.000300     YES
         Displacement       0.001762      0.001200      NO
         Energy change     -0.000001      0.000001     YES


                       Distance Matrix (Angstroms)
             Cl(  1)   Cl(  2)   C (  3)   C (  4)   C (  5)   H (  6)
   Cl(  2)  2.743233
   C (  3)  3.200000  2.877368
   C (  4)  3.566594  2.079049  1.422710
   C (  5)  3.766127  3.654226  1.485398  2.564107
   H (  6)  2.980705  3.394577  1.085367  2.155436  2.212861
   H (  7)  4.416354  2.464592  2.146932  1.087240  2.796451  3.082235
   H (  8)  3.912859  2.480763  2.145411  1.085349  3.505894  2.448616
   H (  9)  3.226901  3.665559  2.123563  3.174176  1.099622  2.609706
   H ( 10)  4.510944  4.692164  2.138996  3.371720  1.096569  2.530217
   H ( 11)  4.464407  3.741169  2.154351  2.713668  1.093407  3.110762
             H (  7)   H (  8)   H (  9)   H ( 10)
   H (  8)  1.823203
   H (  9)  3.508149  4.118040
   H ( 10)  3.611182  4.175963  1.759531
   H ( 11)  2.502490  3.749515  1.775574  1.783411
 
 Final energy is   -1038.23551931496     


 ******************************
 **  OPTIMIZATION CONVERGED  **
 ******************************

                       Coordinates (Angstroms)
     ATOM                X               Y               Z
      1  Cl       -0.6476137999    2.0919048638    1.1760002498
      2  Cl        1.3381912724    1.3532157166   -0.5664817889
      3  C        -0.7223422621   -0.6526959182   -0.4676489138
      4  C         0.2401460308   -0.1970575000   -1.4111073674
      5  C        -0.4197732137   -1.6250385957    0.6137434868
      6  H        -1.6940153186   -0.1691474526   -0.4602416354
      7  H         1.0767301335   -0.8590146320   -1.6209430453
      8  H        -0.1354884710    0.3321270522   -2.2810756554
      9  H        -0.3496421129   -1.0962962498    1.5753472050
     10  H        -1.2282407220   -2.3582157234    0.7200262671
     11  H         0.5223484636   -2.1543805610    0.4471831975

Z-matrix Print:
$molecule
0 3
Cl
C  1 2.079049
H  2 1.085349 1 98.329298
H  2 1.087240 1 97.239179 3 115.768022 0
C  2 1.422710 1 109.068808 3 -122.385494 0
H  5 1.085367 2 117.871838 1 88.979031 0
C  5 1.485398 2 123.684313 1 -82.957377 0
H  7 1.093407 5 112.427790 2 -15.696612 0
H  7 1.096569 5 110.980812 2 -138.134477 0
H  7 1.099622 5 109.564741 2 104.554949 0
Cl 1 2.743233 2 94.388497 3 96.766028 0
$end

PES scan, value:    3.2000 energy: -1038.2355193150
------- Summary of potential scan: ------ 
    3.2000     -1038.2355193150
----------------------------------------- 
Archival summary:
1\1\hpc0332\JobtypUnspecified\ProcedureUnspecified\6-31G**\l236(3)\knomura\TueMar1203:26:282019TueMar1203:26:282019\0\\#,JobtypUnspecified,ProcedureUnspecified,6-31G**,\\0,3\Cl\C,1,2.07905\H,2,1.08535,1,98.3293\H,2,1.08724,1,97.2392,3,115.768,0\C,2,1.42271,1,109.069,3,-122.385,0\H,5,1.08537,2,117.872,1,88.979,0\C,5,1.4854,2,123.684,1,-82.9574,0\H,7,1.09341,5,112.428,2,-15.6966,0\H,7,1.09657,5,110.981,2,-138.134,0\H,7,1.09962,5,109.565,2,104.555,0\Cl,1,2.74323,2,94.3885,3,96.766,0\\\@

 Total job time:  40.35s(wall), 466.86s(cpu) 
 Tue Mar 12 03:26:28 2019

        *************************************************************
        *                                                           *
        *  Thank you very much for using Q-Chem.  Have a nice day.  *
        *                                                           *
        *************************************************************


