
Running Job 1 of 1 ruruma/CH3CHClCH2Cl_afterGeo_middle_singlet.xyz.data/inputs/bond_triplet_2.3.in
qchem ruruma/CH3CHClCH2Cl_afterGeo_middle_singlet.xyz.data/inputs/bond_triplet_2.3.in_28621.0 /staging/scratch/2858534/qchem28621/ 1
/usr/usc/qchem/5.1.1/exe/qcprog.exe_s ruruma/CH3CHClCH2Cl_afterGeo_middle_singlet.xyz.data/inputs/bond_triplet_2.3.in_28621.0 /staging/scratch/2858534/qchem28621/
Check license passed

                  Welcome to Q-Chem
     A Quantum Leap Into The Future Of Chemistry


 Q-Chem 5.1, Q-Chem, Inc., Pleasanton, CA (2018)

 Yihan Shao,  Zhengting Gan,  E. Epifanovsky,  A. T. B. Gilbert,  M. Wormit,  
 J. Kussmann,  A. W. Lange,  A. Behn,  Jia Deng,  Xintian Feng,  D. Ghosh,  
 M. Goldey,  P. R. Horn,  L. D. Jacobson,  I. Kaliman,  T. Kus,  A. Landau,  
 Jie Liu,  E. I. Proynov,  R. M. Richard,  R. P. Steele,  E. J. Sundstrom,  
 H. L. Woodcock III,  P. M. Zimmerman,  D. Zuev,  B. Albrecht,  E. Alguire,  
 S. A. Baeppler,  D. Barton,  Z. Benda,  Y. A. Bernard,  E. J. Berquist,  
 K. B. Bravaya,  H. Burton,  D. Casanova,  Chun-Min Chang,  Yunqing Chen,  
 A. Chien,  K. D. Closser,  M. P. Coons,  S. Coriani,  S. Dasgupta,  
 A. L. Dempwolff,  M. Diedenhofen,  Hainam Do,  R. G. Edgar,  Po-Tung Fang,  
 S. Faraji,  S. Fatehi,  Qingguo Feng,  K. D. Fenk,  J. Fosso-Tande,  
 Qinghui Ge,  A. Ghysels,  G. Gidofalvi,  J. Gomes,  J. Gonthier,  A. Gunina,  
 D. Hait,  M. W. D. Hanson-Heine,  P. H. P. Harbach,  A. W. Hauser,  
 J. E. Herr,  E. G. Hohenstein,  Z. C. Holden,  Kerwin Hui,  B. C. Huynh,  
 T.-C. Jagau,  Hyunjun Ji,  B. Kaduk,  K. Khistyaev,  Jaehoon Kim,  
 P. Klunzinger,  K. Koh,  D. Kosenkov,  L. Koulias,  T. Kowalczyk,  
 C. M. Krauter,  A. Kunitsa,  Ka Un Lao,  A. Laurent,  K. V. Lawler,  
 Joonho Lee,  D. Lefrancois,  S. Lehtola,  D. S. Levine,  Yi-Pei Li,  
 You-Sheng Lin,  Fenglai Liu,  E. Livshits,  A. Luenser,  P. Manohar,  
 E. Mansoor,  S. F. Manzer,  Shan-Ping Mao,  Yuezhi Mao,  N. Mardirossian,  
 A. V. Marenich,  T. Markovich,  L. A. Martinez-Martinez,  S. A. Maurer,  
 N. J. Mayhall,  S. C. McKenzie,  J.-M. Mewes,  A. F. Morrison,  
 J. W. Mullinax,  K. Nanda,  T. S. Nguyen-Beck,  R. Olivares-Amaya,  
 J. A. Parkhill,  T. M. Perrine,  F. Plasser,  P. Pokhilko,  S. Prager,  
 A. Prociuk,  E. Ramos,  D. R. Rehn,  F. Rob,  M. Schneider,  N. Sergueev,  
 S. M. Sharada,  S. Sharma,  D. W. Small,  T. Stauch,  T. Stein,  
 Yu-Chuan Su,  A. J. W. Thom,  A. Tkatchenko,  T. Tsuchimochi,  N. M. Tubman,  
 L. Vogt,  M. L. Vidal,  O. Vydrov,  M. A. Watson,  J. Wenzel,  
 M. de Wergifosse,  T. A. Wesolowski,  A. White,  J. Witte,  A. Yamada,  
 Jun Yang,  K. Yao,  S. Yeganeh,  S. R. Yost,  Zhi-Qiang You,  A. Zech,  
 Igor Ying Zhang,  Xing Zhang,  Yan Zhao,  Ying Zhu,  B. R. Brooks,  
 G. K. L. Chan,  C. J. Cramer,  M. S. Gordon,  W. J. Hehre,  A. Klamt,  
 M. W. Schmidt,  C. D. Sherrill,  D. G. Truhlar,  A. Aspuru-Guzik,  R. Baer,  
 A. T. Bell,  N. A. Besley,  Jeng-Da Chai,  A. E. DePrince, III,  
 R. A. DiStasio Jr.,  A. Dreuw,  B. D. Dunietz,  T. R. Furlani,  
 Chao-Ping Hsu,  Yousung Jung,  Jing Kong,  D. S. Lambrecht,  WanZhen Liang,  
 C. Ochsenfeld,  V. A. Rassolov,  L. V. Slipchenko,  J. E. Subotnik,  
 T. Van Voorhis,  J. M. Herbert,  A. I. Krylov,  P. M. W. Gill,  M. Head-Gordon

 Contributors to earlier versions of Q-Chem not listed above: 
 R. D. Adamson,  B. Austin,  J. Baker,  G. J. O. Beran,  K. Brandhorst,  
 S. T. Brown,  E. F. C. Byrd,  A. K. Chakraborty,  C.-L. Cheng,  
 Siu Hung Chien,  D. M. Chipman,  D. L. Crittenden,  H. Dachsel,  
 R. J. Doerksen,  A. D. Dutoi,  L. Fusti-Molnar,  W. A. Goddard III,  
 A. Golubeva-Zadorozhnaya,  S. R. Gwaltney,  G. Hawkins,  A. Heyden,  
 S. Hirata,  G. Kedziora,  F. J. Keil,  C. Kelley,  Jihan Kim,  R. A. King,  
 R. Z. Khaliullin,  P. P. Korambath,  W. Kurlancheek,  A. M. Lee,  M. S. Lee,  
 S. V. Levchenko,  Ching Yeh Lin,  D. Liotard,  R. C. Lochan,  I. Lotan,  
 P. E. Maslen,  N. Nair,  D. P. O'Neill,  D. Neuhauser,  E. Neuscamman,  
 C. M. Oana,  R. Olson,  B. Peters,  R. Peverati,  P. A. Pieniazek,  
 Y. M. Rhee,  J. Ritchie,  M. A. Rohrdanz,  E. Rosta,  N. J. Russ,  
 H. F. Schaefer III,  N. E. Schultz,  N. Shenvi,  A. C. Simmonett,  A. Sodt,  
 D. Stuck,  K. S. Thanthiriwatte,  V. Vanovschi,  Tao Wang,  A. Warshel,  
 C. F. Williams,  Q. Wu,  X. Xu,  W. Zhang

 Please cite Q-Chem as follows:
 Y. Shao et al., Mol. Phys. 113, 184-215 (2015)
 DOI: 10.1080/00268976.2014.952696

 Q-Chem 5.1.1 for Intel X86 EM64T Linux

 Parts of Q-Chem use Armadillo 8.300.2 (Tropical Shenanigans).
 http://arma.sourceforge.net/

 Q-Chem begins on Tue Mar 12 03:36:15 2019  

Host: 
0

     Scratch files written to /staging/scratch/2858534/qchem28621//
 Aug318 |scratch|qcdevops|jenkins|workspace|build_RNUM 6013   
Processing $rem in /usr/usc/qchem/5.1.1/config/preferences.
 MEM_TOTAL  2000 
Input Ideriv = 2
Curr. Ideriv = -1
Max.  Ideriv = 2

Checking the input file for inconsistencies... 	...done.

--------------------------------------------------------------
User input:
--------------------------------------------------------------

$comment
potential surface scanner
$end

$rem
JOBTYPE  PES_SCAN
UNRESTRICTED TRUE
SYM_IGNORE  TRUE
GEOM_OPT_MAX_CYCLES 400
SCF_MAX_CYCLES 400
METHOD   B3LYP
BASIS   6-31G**
PDB_PRINT 2
SCF_CONVERGENCE 6
THRESH 14
SCF_PRINT 1
$end
$molecule
0 3
Cl -0.257816 1.509127 0.681443
Cl 2.151330 1.896987 -0.607725
C -0.843488 -0.580267 -0.343945
C -0.059769 -0.348366 -1.463646
C -0.478835 -1.575918 0.712993
H -1.882917 -0.264125 -0.384440
H 0.956189 -0.721981 -1.523636
H -0.409826 0.282181 -2.272627
H -0.895900 -1.297626 1.682587
H -0.902639 -2.551429 0.437453
H 0.603973 -1.683185 0.806346
$end
$scan
stre 1 3 2.300000 2.301000 0.100000
$end
--------------------------------------------------------------
 ----------------------------------------------------------------
             Standard Nuclear Orientation (Angstroms)
    I     Atom           X                Y                Z
 ----------------------------------------------------------------
    1      Cl     -0.2578160000     1.5091270000     0.6814430000
    2      Cl      2.1513300000     1.8969870000    -0.6077250000
    3      C      -0.8434880000    -0.5802670000    -0.3439450000
    4      C      -0.0597690000    -0.3483660000    -1.4636460000
    5      C      -0.4788350000    -1.5759180000     0.7129930000
    6      H      -1.8829170000    -0.2641250000    -0.3844400000
    7      H       0.9561890000    -0.7219810000    -1.5236360000
    8      H      -0.4098260000     0.2821810000    -2.2726270000
    9      H      -0.8959000000    -1.2976260000     1.6825870000
   10      H      -0.9026390000    -2.5514290000     0.4374530000
   11      H       0.6039730000    -1.6831850000     0.8063460000
 ----------------------------------------------------------------
 Nuclear Repulsion Energy =   256.5362137364 hartrees
 There are       30 alpha and       28 beta electrons
 Requested basis set is 6-31G(d,p)
 There are 40 shells and 113 basis functions

 Total QAlloc Memory Limit   2000 MB
 Mega-Array Size       188 MB
 MEM_STATIC part       192 MB
A total of 1 constraints
  
            1
    1   1.0100000
    2   1.0100000
    3   3.0100000
    4   2.3000000
    5   2.3010000
    6   0.1000000
    7   0.0000000
    8   0.0000000
    9   0.0000000
   10   0.0000000

                       Distance Matrix (Angstroms)
             Cl(  1)   Cl(  2)   C (  3)   C (  4)   C (  5)   H (  6)
   Cl(  2)  2.759778
   C (  3)  2.400000  3.895549
   C (  4)  2.844452  3.265451  1.386263
   C (  5)  3.093113  4.552267  1.497134  2.533823
   H (  6)  2.630871  4.582075  1.087197  2.120295  2.212828
   H (  7)  3.363633  3.020968  2.156523  1.084139  2.791238  3.093206
   H (  8)  3.202348  3.455288  2.156779  1.083780  3.517275  2.456359
   H (  9)  3.047508  4.973599  2.150391  3.391016  1.091560  2.512952
   H ( 10)  4.118670  5.496138  2.121217  3.029537  1.098706  2.620728
   H ( 11)  3.308948  4.148680  2.152845  2.715724  1.092105  3.101020
             H (  7)   H (  8)   H (  9)   H ( 10)
   H (  8)  1.853463
   H (  9)  3.747195  4.286698
   H ( 10)  3.263126  3.951803  1.767039
   H ( 11)  2.544953  3.790848  1.779346  1.777585
 
 A cutoff of  1.0D-14 yielded    766 shell pairs
 There are      6305 function pairs
 
 -------------------------------------------------------
 OpenMP Integral Computing Module                       
 Release: version 1.0, May 2013, Q-Chem Inc. Pittsburgh 
 -------------------------------------------------------
 Integral Job Info:
 Integral job number is                      11
 Integral operator is                         1
 short-range coefficients                     0
 long-range coefficients              100000000
 Omega coefficients                           0
 if combine SR and LR in K                    0
 Integral screening is                        0
 Integral computing path is                   2
 max size of driver memory is            800000
 size of driver memory is                593474
 size of scratch memory is             15267112
 max col of scratch BK array               1296
 max len of scratch array in speh3          155
 max len of scratch index in speh4           18
 max int batch size is                      520
 min int batch size is                       52
 fixed nKL is                                52
 max L of basis functions is                  2
 order of int derivative is                   0
 number of shells is                         40
 number of basis is                         113
 number of cartesian basis is               113
 number of contracted shell pairs           766
 number of primitive shell pairs           3045
 maxK2 (contraction) of shell pair           36
 max number of K2 of shell pair               1
 max number of CS2 of shell pair             60
 max number of PS2 of shell pair            324
 mem total for path MDJ                  517836
 -------------------------------------------------------
 Smallest overlap matrix eigenvalue = 5.26E-03

 Scale SEOQF with 1.000000e-01/1.000000e-01/1.000000e-01

 Standard Electronic Orientation quadrupole field applied
 Nucleus-field energy     =     0.0000000080 hartrees
 Guess from superposition of atomic densities
 Warning:  Energy on first SCF cycle will be non-variational
 SAD guess density has 58.000000 electrons

 -----------------------------------------------------------------------
  General SCF calculation program by
  Eric Jon Sundstrom, Paul Horn, Yuezhi Mao, Dmitri Zuev, Alec White,
  David Stuck, Shaama M.S., Shane Yost, Joonho Lee, David Small,
  Daniel Levine, Susi Lehtola, Hugh Burton, Evgeny Epifanovsky
 -----------------------------------------------------------------------
 Exchange:     0.2000 Hartree-Fock + 0.0800 Slater + 0.7200 B88
 Correlation:  0.1900 VWN1RPA + 0.8100 LYP
 Using SG-1 standard quadrature grid
 using 12 threads for integral computing
 -------------------------------------------------------
 OpenMP Integral computing Module                
 Release: version 1.0, May 2013, Q-Chem Inc. Pittsburgh 
 -------------------------------------------------------
 -------------------------------------------------------
 OpenMP BLAS3 based DFT computing Module                
 Release: version 1.0, May 2013, Q-Chem Inc. Pittsburgh 
 -------------------------------------------------------
 A unrestricted SCF calculation will be
 performed using DIIS
 SCF converges when DIIS error is below 1.0e-06
 Alpha HF Exchange    Energy =  -7.25350277278969
 Beta HF Exchange     Energy =  -7.25350277278969
 DFT Correlation      Energy =  -2.75236668434171
 DFT Exchange         Energy = -57.29516220789421
 One-Electron (alpha) Energy = -967.64229987433748
 One-Electron (beta)  Energy = -967.64229987433748
 Total Coulomb        Energy = 714.82478311420562
 ---------------------------------------
  Cycle       Energy         DIIS error
 ---------------------------------------
    1   -1038.4781373279      2.56e-02  
 Alpha HF Exchange    Energy =  -7.39903299163509
 Beta HF Exchange     Energy =  -7.16814502761718
 DFT Correlation      Energy =  -2.77219713723196
 DFT Exchange         Energy = -57.83156803273418
 One-Electron (alpha) Energy = -987.91290334270411
 One-Electron (beta)  Energy = -954.22930056384507
 Total Coulomb        Energy = 722.61373508455699
    2   -1038.1631982668      2.83e-03  
 Alpha HF Exchange    Energy =  -7.35248440067445
 Beta HF Exchange     Energy =  -7.12940813247736
 DFT Correlation      Energy =  -2.75168123681939
 DFT Exchange         Energy = -57.45448967293151
 One-Electron (alpha) Energy = -985.11253043344550
 One-Electron (beta)  Energy = -951.83805143154041
 Total Coulomb        Energy = 716.96519033068387
    3   -1038.1372412328      3.39e-03  
 Alpha HF Exchange    Energy =  -7.37084315684772
 Beta HF Exchange     Energy =  -7.13618415381760
 DFT Correlation      Energy =  -2.75985410363965
 DFT Exchange         Energy = -57.57488041851012
 One-Electron (alpha) Energy = -986.16290947630898
 One-Electron (beta)  Energy = -951.96727478255752
 Total Coulomb        Energy = 718.21685552084591
    4   -1038.2188768264      1.03e-03  
 Alpha HF Exchange    Energy =  -7.37711723974887
 Beta HF Exchange     Energy =  -7.14393746423729
 DFT Correlation      Energy =  -2.76100046958520
 DFT Exchange         Energy = -57.62313075140671
 One-Electron (alpha) Energy = -986.62479301549683
 One-Electron (beta)  Energy = -952.62763615785377
 Total Coulomb        Energy = 719.39329368712208
    5   -1038.2281076668      3.31e-04  
 Alpha HF Exchange    Energy =  -7.37760058125774
 Beta HF Exchange     Energy =  -7.14292636264943
 DFT Correlation      Energy =  -2.76085060684698
 DFT Exchange         Energy = -57.62141299777854
 One-Electron (alpha) Energy = -986.63066466611417
 One-Electron (beta)  Energy = -952.49594791754498
 Total Coulomb        Energy = 719.26400466715052
    6   -1038.2291847207      1.10e-04  
 Alpha HF Exchange    Energy =  -7.37732527257475
 Beta HF Exchange     Energy =  -7.14259006816954
 DFT Correlation      Energy =  -2.76059801132346
 DFT Exchange         Energy = -57.61806723919695
 One-Electron (alpha) Energy = -986.60642353478738
 One-Electron (beta)  Energy = -952.44966119266803
 Total Coulomb        Energy = 719.18914370073355
    7   -1038.2293078736      3.10e-05  
 Alpha HF Exchange    Energy =  -7.37753683166959
 Beta HF Exchange     Energy =  -7.14269094143284
 DFT Correlation      Energy =  -2.76055855588871
 DFT Exchange         Energy = -57.61883019723096
 One-Electron (alpha) Energy = -986.61529330433291
 One-Electron (beta)  Energy = -952.44771407780854
 Total Coulomb        Energy = 719.19707760067297
    8   -1038.2293325633      2.32e-05  
 Alpha HF Exchange    Energy =  -7.37765118706740
 Beta HF Exchange     Energy =  -7.14277972110327
 DFT Correlation      Energy =  -2.76054252419082
 DFT Exchange         Energy = -57.61946434312991
 One-Electron (alpha) Energy = -986.62189984601389
 One-Electron (beta)  Energy = -952.45003000507279
 Total Coulomb        Energy = 719.20681478887639
    9   -1038.2293390933      6.88e-06  
 Alpha HF Exchange    Energy =  -7.37763090265376
 Beta HF Exchange     Energy =  -7.14276584569481
 DFT Correlation      Energy =  -2.76051710297240
 DFT Exchange         Energy = -57.61925003400897
 One-Electron (alpha) Energy = -986.61757466730501
 One-Electron (beta)  Energy = -952.44739494337568
 Total Coulomb        Energy = 719.19957993767912
   10   -1038.2293398139      4.25e-06  
 Alpha HF Exchange    Energy =  -7.37763215039516
 Beta HF Exchange     Energy =  -7.14277565471017
 DFT Correlation      Energy =  -2.76051838204159
 DFT Exchange         Energy = -57.61929347809934
 One-Electron (alpha) Energy = -986.61790843958272
 One-Electron (beta)  Energy = -952.44825577271376
 Total Coulomb        Energy = 719.20083015157502
   11   -1038.2293399816      1.45e-06  
 Alpha HF Exchange    Energy =  -7.37764079873899
 Beta HF Exchange     Energy =  -7.14278301783027
 DFT Correlation      Energy =  -2.76051678934527
 DFT Exchange         Energy = -57.61934722216665
 One-Electron (alpha) Energy = -986.61817116320719
 One-Electron (beta)  Energy = -952.44909043195685
 Total Coulomb        Energy = 719.20199566201325
   12   -1038.2293400168      6.70e-07  Convergence criterion met
 ---------------------------------------
 SCF time:   CPU 31.66s  wall 3.00s 
<S^2> =          2.013622804
 Alpha HF Exchange    Energy =  -7.37764079873899
 Beta HF Exchange     Energy =  -7.14278301783027
 DFT Correlation      Energy =  -2.76051678934527
 DFT Exchange         Energy = -57.61934722216665
 One-Electron (alpha) Energy = -986.61817116320719
 One-Electron (beta)  Energy = -952.44909043195685
 Total Coulomb        Energy = 719.20199566201325
 Nuclear repulsion Energy = 256.53621374438961
 SCF   energy in the final basis set =    -1038.2293400168
 Total energy in the final basis set =    -1038.2293400168
 
 --------------------------------------------------------------
 
                    Orbital Energies (a.u.)
 --------------------------------------------------------------
 
 Alpha MOs
 -- Occupied --
*******-101.517 -10.278 -10.256 -10.219  -9.462  -9.430  -7.227
 -7.222  -7.215  -7.200  -7.183  -7.183  -0.855  -0.802  -0.765
 -0.735  -0.611  -0.518  -0.472  -0.459  -0.414  -0.402  -0.380
 -0.368  -0.319  -0.286  -0.281  -0.277  -0.274
 -- Virtual --
 -0.051   0.077   0.103   0.114   0.145   0.146   0.153   0.234
  0.295   0.344   0.399   0.416   0.427   0.437   0.478   0.491
  0.504   0.518   0.534   0.546   0.576   0.644   0.655   0.687
  0.689   0.732   0.785   0.817   0.832   0.841   0.857   0.862
  0.879   0.882   0.891   0.893   0.906   0.911   0.925   0.926
  1.022   1.052   1.157   1.182   1.280   1.341   1.378   1.436
  1.602   1.743   1.808   1.852   1.883   1.959   2.009   2.038
  2.049   2.082   2.107   2.247   2.291   2.325   2.414   2.440
  2.514   2.578   2.611   2.661   2.760   2.815   2.837   2.935
  3.152   3.227   3.380   3.391   3.421   3.569   4.195   4.240
  4.264   4.354   4.560
 
 Beta MOs
 -- Occupied --
*******-101.512 -10.277 -10.248 -10.219  -9.456  -9.425  -7.214
 -7.212  -7.211  -7.183  -7.180  -7.180  -0.842  -0.766  -0.725
 -0.724  -0.605  -0.513  -0.468  -0.453  -0.411  -0.400  -0.337
 -0.317  -0.306  -0.272  -0.269
 -- Virtual --
 -0.169  -0.161  -0.020   0.079   0.104   0.118   0.147   0.150
  0.154   0.236   0.300   0.357   0.416   0.421   0.437   0.448
  0.482   0.504   0.512   0.543   0.550   0.565   0.590   0.656
  0.668   0.693   0.705   0.753   0.790   0.823   0.835   0.851
  0.869   0.887   0.905   0.909   0.912   0.920   0.927   0.933
  0.938   0.950   1.057   1.073   1.165   1.188   1.290   1.357
  1.387   1.455   1.604   1.746   1.816   1.856   1.901   1.968
  2.009   2.040   2.050   2.085   2.115   2.249   2.294   2.327
  2.425   2.449   2.522   2.586   2.614   2.664   2.762   2.815
  2.838   2.937   3.153   3.229   3.384   3.391   3.421   3.573
  4.207   4.255   4.280   4.362   4.564
 --------------------------------------------------------------
 
          Ground-State Mulliken Net Atomic Charges

     Atom                 Charge (a.u.)    Spin (a.u.)
  --------------------------------------------------------
      1 Cl                   -0.153234       0.718547
      2 Cl                   -0.242512       0.733740
      3 C                    -0.079133       0.016463
      4 C                    -0.121397       0.577973
      5 C                    -0.331783       0.000224
      6 H                     0.165130       0.000567
      7 H                     0.163220      -0.025071
      8 H                     0.158690      -0.025127
      9 H                     0.152282       0.003695
     10 H                     0.139725      -0.000474
     11 H                     0.149012      -0.000538
  --------------------------------------------------------
  Sum of atomic charges =     0.000000
  Sum of spin   charges =     2.000000

 -----------------------------------------------------------------
                    Cartesian Multipole Moments
 -----------------------------------------------------------------
    Charge (ESU x 10^10)
                 0.0000
    Dipole Moment (Debye)
         X      -3.1589      Y      -4.7358      Z      -1.0563
       Tot       5.7899
    Quadrupole Moments (Debye-Ang)
        XX     -47.4403     XY      -3.8246     YY     -49.5227
        XZ       0.7603     YZ      -0.0515     ZZ     -42.4323
    Octopole Moments (Debye-Ang^2)
       XXX     -58.4465    XXY     -37.0169    XYY     -24.6107
       YYY     -96.0493    XXZ       4.9273    XYZ       3.1192
       YYZ       9.4093    XZZ     -17.3205    YZZ     -27.7499
       ZZZ      11.6585
    Hexadecapole Moments (Debye-Ang^3)
      XXXX    -468.4007   XXXY    -179.5692   XXYY    -200.0034
      XYYY    -181.8301   YYYY    -659.4299   XXXZ      55.6812
      XXYZ       6.5931   XYYZ      22.3486   YYYZ      27.7127
      XXZZ    -116.1103   XYZZ     -58.5031   YYZZ    -149.1280
      XZZZ      59.0077   YZZZ      17.9615   ZZZZ    -228.3868
 -----------------------------------------------------------------
 Calculating analytic gradient of the SCF energy
 Gradient of SCF Energy
            1           2           3           4           5           6
    1   0.0002502  -0.0001557  -0.0003023   0.0001211  -0.0000291   0.0000105
    2   0.0005246   0.0001832  -0.0006602   0.0000165  -0.0000022   0.0000997
    3   0.0004282  -0.0000751  -0.0003347   0.0001164   0.0000041  -0.0000778
            7           8           9          10          11
    1  -0.0000338   0.0001662  -0.0000182  -0.0000041  -0.0000048
    2  -0.0001914   0.0000391  -0.0000023   0.0000008  -0.0000078
    3  -0.0000589   0.0000194  -0.0000097  -0.0000090  -0.0000027
 Max gradient component =       6.602E-04
 RMS gradient           =       2.016E-04
 Gradient time:  CPU 9.43 s  wall 0.82 s
 Geometry Optimization Parameters
   NAtoms,    NIC,     NZ,  NCons,   NDum,   NFix, NCnnct, MaxDiis
       11      83       0       1       0       0       0       0


** CONSTRAINED OPTIMIZATION IN DELOCALIZED INTERNAL COORDINATES **
   Searching for a Minimum

   Optimization Cycle:   1

                       Coordinates (Angstroms)
     ATOM                X               Y               Z
      1  Cl       -0.2578160000    1.5091270000    0.6814430000
      2  Cl        2.1513300000    1.8969870000   -0.6077250000
      3  C        -0.8434880000   -0.5802670000   -0.3439450000
      4  C        -0.0597690000   -0.3483660000   -1.4636460000
      5  C        -0.4788350000   -1.5759180000    0.7129930000
      6  H        -1.8829170000   -0.2641250000   -0.3844400000
      7  H         0.9561890000   -0.7219810000   -1.5236360000
      8  H        -0.4098260000    0.2821810000   -2.2726270000
      9  H        -0.8959000000   -1.2976260000    1.6825870000
     10  H        -0.9026390000   -2.5514290000    0.4374530000
     11  H         0.6039730000   -1.6831850000    0.8063460000
   Point Group: c1    Number of degrees of freedom:    27


   Energy is  -1038.229340017

              Constraints and their Current Values
                                        Value     Constraint
   Distance(Angs):        1   3             2.400000     2.300000

 Attempting to Generate Delocalized Internal Coordinates

   Using Lagrange Multiplier Algorithm


 28 Hessian modes will be used to form the next step
  Hessian Eigenvalues:
    -0.968815    0.023720    0.045000    0.045056    0.046245    0.055113
     0.056916    0.063805    0.082133    0.084952    0.085228    0.092582
     0.110069    0.128368    0.151002    0.159713    0.160000    0.160000
     0.160000    0.314284    0.326798    0.338257    0.343891    0.345705
     0.346330    0.355414    0.460166    1.032188

 Minimum Search - Taking P-RFO Step
 Searching for Lamda that Maximizes Along the Constraint modes Only
 Value Taken    Lamda =   0.01851362
 Searching for Lamda that Minimizes Along All other modes
 Value Taken    Lamda =  -0.01662427
 Step Taken.  Stepsize is  0.185826

                             Maximum     Tolerance    Cnvgd?
         Gradient            0.188972       0.000300      NO
         Displacement        0.185695       0.001200      NO
         Energy change     *********       0.000001      NO


 New Cartesian Coordinates Obtained by Inverse Iteration

 Displacement from previous Coordinates is:  0.204327
 ----------------------------------------------------------------
             Standard Nuclear Orientation (Angstroms)
    I     Atom           X                Y                Z
 ----------------------------------------------------------------
    1      Cl     -0.2615673493     1.4222207782     0.6559910356
    2      Cl      2.1611494996     1.8768119591    -0.5903749442
    3      C      -0.8427300980    -0.5684239741    -0.3427898286
    4      C      -0.0629676589    -0.3356517050    -1.4651707543
    5      C      -0.4736215684    -1.5589108718     0.7174565870
    6      H      -1.8994333791    -0.2728597802    -0.3897795161
    7      H       0.9521286000    -0.7134106240    -1.5292855517
    8      H      -0.4174928656     0.2931916657    -2.2736110296
    9      H      -0.8944626578    -1.2809095354     1.6854988484
   10      H      -0.8903805974    -2.5379300883     0.4435966372
   11      H       0.6096800748    -1.6587298244     0.8132715165
 ----------------------------------------------------------------
 Nuclear Repulsion Energy =   259.1939020595 hartrees
 There are       30 alpha and       28 beta electrons

                       Distance Matrix (Angstroms)
             Cl(  1)   Cl(  2)   C (  3)   C (  4)   C (  5)   H (  6)
   Cl(  2)  2.762180
   C (  3)  2.301734  3.881207
   C (  4)  2.762044  3.256833  1.386345
   C (  5)  2.989296  4.522901  1.497140  2.535520
   H (  6)  2.578670  4.598876  1.098266  2.129088  2.216492
   H (  7)  3.287767  3.008744  2.156458  1.085004  2.792039  3.102252
   H (  8)  3.143499  3.462735  2.156682  1.083839  3.518511  2.462800
   H (  9)  2.960972  4.948492  2.150411  3.392877  1.091558  2.516528
   H ( 10)  4.015384  5.465426  2.121233  3.029527  1.098711  2.615960
   H ( 11)  3.205630  4.108204  2.152845  2.719244  1.092102  3.108636
             H (  7)   H (  8)   H (  9)   H ( 10)
   H (  8)  1.855568
   H (  9)  3.750572  4.287172
   H ( 10)  3.258217  3.952479  1.767042
   H ( 11)  2.549210  3.793933  1.779318  1.777592
 
 Applying Cartesian multipole field
    Component          Value
    ---------          -----
     (2,0,0)        1.00000E-11
     (0,2,0)        2.00000E-11
     (0,0,2)       -3.00000E-11
 Nucleus-field energy     =     0.0000000077 hartrees
 Requested basis set is 6-31G(d,p)
 There are 40 shells and 113 basis functions
 A cutoff of  1.0D-14 yielded    767 shell pairs
 There are      6308 function pairs
 Smallest overlap matrix eigenvalue = 5.15E-03
 Guess from superposition of atomic densities
 Warning:  Energy on first SCF cycle will be non-variational
 SAD guess density has 58.000000 electrons

 -----------------------------------------------------------------------
  General SCF calculation program by
  Eric Jon Sundstrom, Paul Horn, Yuezhi Mao, Dmitri Zuev, Alec White,
  David Stuck, Shaama M.S., Shane Yost, Joonho Lee, David Small,
  Daniel Levine, Susi Lehtola, Hugh Burton, Evgeny Epifanovsky
 -----------------------------------------------------------------------
 Exchange:     0.2000 Hartree-Fock + 0.0800 Slater + 0.7200 B88
 Correlation:  0.1900 VWN1RPA + 0.8100 LYP
 Using SG-1 standard quadrature grid
 using 12 threads for integral computing
 -------------------------------------------------------
 OpenMP Integral computing Module                
 Release: version 1.0, May 2013, Q-Chem Inc. Pittsburgh 
 -------------------------------------------------------
 -------------------------------------------------------
 OpenMP BLAS3 based DFT computing Module                
 Release: version 1.0, May 2013, Q-Chem Inc. Pittsburgh 
 -------------------------------------------------------
 A unrestricted SCF calculation will be
 performed using DIIS
 SCF converges when DIIS error is below 1.0e-06
 Alpha HF Exchange    Energy =  -7.25619378146130
 Beta HF Exchange     Energy =  -7.25619378146130
 DFT Correlation      Energy =  -2.75395023820069
 DFT Exchange         Energy = -57.29979648304948
 One-Electron (alpha) Energy = -970.30389712513386
 One-Electron (beta)  Energy = -970.30389712513386
 Total Coulomb        Energy = 717.47896426579018
 ---------------------------------------
  Cycle       Energy         DIIS error
 ---------------------------------------
    1   -1038.5010622014      2.57e-02  
 Alpha HF Exchange    Energy =  -7.39920020470990
 Beta HF Exchange     Energy =  -7.16887331529433
 DFT Correlation      Energy =  -2.77345378346174
 DFT Exchange         Energy = -57.83394291118052
 One-Electron (alpha) Energy = -990.56136969964643
 One-Electron (beta)  Energy = -956.73920763880881
 Total Coulomb        Energy = 725.12199419586375
    2   -1038.1601512900      2.89e-03  
 Alpha HF Exchange    Energy =  -7.35349376454852
 Beta HF Exchange     Energy =  -7.13279477604329
 DFT Correlation      Energy =  -2.75284284526133
 DFT Exchange         Energy = -57.46628853936006
 One-Electron (alpha) Energy = -987.85748341162025
 One-Electron (beta)  Energy = -954.50223505376880
 Total Coulomb        Energy = 719.73781404705937
    3   -1038.1334222763      3.48e-03  
 Alpha HF Exchange    Energy =  -7.37120235078202
 Beta HF Exchange     Energy =  -7.13811400842879
 DFT Correlation      Energy =  -2.76105547948736
 DFT Exchange         Energy = -57.58111705173158
 One-Electron (alpha) Energy = -988.81715008202968
 One-Electron (beta)  Energy = -954.61158721524066
 Total Coulomb        Energy = 720.86576264069981
    4   -1038.2205614798      9.29e-04  
 Alpha HF Exchange    Energy =  -7.37766183016462
 Beta HF Exchange     Energy =  -7.14599796655209
 DFT Correlation      Energy =  -2.76221044557220
 DFT Exchange         Energy = -57.63066529415242
 One-Electron (alpha) Energy = -989.30207111255925
 One-Electron (beta)  Energy = -955.25060295361845
 Total Coulomb        Energy = 722.04764329834802
    5   -1038.2276642370      3.38e-04  
 Alpha HF Exchange    Energy =  -7.37799051486914
 Beta HF Exchange     Energy =  -7.14485523361963
 DFT Correlation      Energy =  -2.76200606799925
 DFT Exchange         Energy = -57.62793781979101
 One-Electron (alpha) Energy = -989.29049674128544
 One-Electron (beta)  Energy = -955.12031600232172
 Total Coulomb        Energy = 721.90095356719689
    6   -1038.2287467455      9.25e-05  
 Alpha HF Exchange    Energy =  -7.37762490417242
 Beta HF Exchange     Energy =  -7.14446678331300
 DFT Correlation      Energy =  -2.76176001629335
 DFT Exchange         Energy = -57.62416372121569
 One-Electron (alpha) Energy = -989.25783280004771
 One-Electron (beta)  Energy = -955.07225455502214
 Total Coulomb        Energy = 721.81536292980297
    7   -1038.2288377830      2.83e-05  
 Alpha HF Exchange    Energy =  -7.37791248831102
 Beta HF Exchange     Energy =  -7.14464126427496
 DFT Correlation      Energy =  -2.76173412727009
 DFT Exchange         Energy = -57.62555185772918
 One-Electron (alpha) Energy = -989.27160031292794
 One-Electron (beta)  Energy = -955.08006164506514
 Total Coulomb        Energy = 721.83874359615163
    8   -1038.2288560322      1.84e-05  
 Alpha HF Exchange    Energy =  -7.37796317907138
 Beta HF Exchange     Energy =  -7.14468643234156
 DFT Correlation      Energy =  -2.76171364328649
 DFT Exchange         Energy = -57.62581868266132
 One-Electron (alpha) Energy = -989.27358663736732
 One-Electron (beta)  Energy = -955.07985482879474
 Total Coulomb        Energy = 721.84086144718447
    9   -1038.2288598891      6.48e-06  
 Alpha HF Exchange    Energy =  -7.37794292084915
 Beta HF Exchange     Energy =  -7.14467349614725
 DFT Correlation      Energy =  -2.76169160459944
 DFT Exchange         Energy = -57.62562171414385
 One-Electron (alpha) Energy = -989.26948778691929
 One-Electron (beta)  Energy = -955.07784258179890
 Total Coulomb        Energy = 721.83449756903372
   10   -1038.2288604682      3.30e-06  
 Alpha HF Exchange    Energy =  -7.37794963495654
 Beta HF Exchange     Energy =  -7.14468560409240
 DFT Correlation      Energy =  -2.76169364216480
 DFT Exchange         Energy = -57.62569691770882
 One-Electron (alpha) Energy = -989.27019024047581
 One-Electron (beta)  Energy = -955.07904553443439
 Total Coulomb        Energy = 721.83649893453264
   11   -1038.2288605721      1.20e-06  
 Alpha HF Exchange    Energy =  -7.37795426499439
 Beta HF Exchange     Energy =  -7.14468913867820
 DFT Correlation      Energy =  -2.76169183055964
 DFT Exchange         Energy = -57.62572235987826
 One-Electron (alpha) Energy = -989.27021499183979
 One-Electron (beta)  Energy = -955.07945649798751
 Total Coulomb        Energy = 721.83696642477310
   12   -1038.2288605919      5.83e-07  Convergence criterion met
 ---------------------------------------
 SCF time:   CPU 30.97s  wall 3.00s 
<S^2> =          2.013750833
 Alpha HF Exchange    Energy =  -7.37795426499439
 Beta HF Exchange     Energy =  -7.14468913867820
 DFT Correlation      Energy =  -2.76169183055964
 DFT Exchange         Energy = -57.62572235987826
 One-Electron (alpha) Energy = -989.27021499183979
 One-Electron (beta)  Energy = -955.07945649798751
 Total Coulomb        Energy = 721.83696642477310
 Nuclear repulsion Energy = 259.19390206722164
 SCF   energy in the final basis set =    -1038.2288605919
 Total energy in the final basis set =    -1038.2288605919
 
 --------------------------------------------------------------
 
                    Orbital Energies (a.u.)
 --------------------------------------------------------------
 
 Alpha MOs
 -- Occupied --
*******-101.519 -10.280 -10.252 -10.218  -9.462  -9.432  -7.227
 -7.222  -7.215  -7.202  -7.185  -7.185  -0.859  -0.800  -0.767
 -0.734  -0.609  -0.516  -0.471  -0.460  -0.413  -0.400  -0.384
 -0.371  -0.320  -0.288  -0.283  -0.279  -0.266
 -- Virtual --
 -0.047   0.077   0.103   0.115   0.145   0.147   0.153   0.233
  0.295   0.345   0.400   0.418   0.424   0.440   0.477   0.490
  0.503   0.517   0.533   0.547   0.573   0.646   0.658   0.681
  0.695   0.731   0.785   0.813   0.835   0.841   0.856   0.863
  0.878   0.884   0.891   0.895   0.907   0.911   0.926   0.938
  1.021   1.067   1.165   1.190   1.283   1.350   1.399   1.450
  1.609   1.745   1.810   1.854   1.886   1.957   2.010   2.037
  2.053   2.081   2.110   2.248   2.289   2.327   2.411   2.441
  2.518   2.575   2.610   2.662   2.756   2.814   2.839   2.931
  3.153   3.223   3.374   3.393   3.421   3.563   4.212   4.239
  4.263   4.358   4.568
 
 Beta MOs
 -- Occupied --
*******-101.514 -10.279 -10.243 -10.218  -9.457  -9.427  -7.215
 -7.213  -7.212  -7.185  -7.182  -7.182  -0.845  -0.768  -0.727
 -0.723  -0.602  -0.512  -0.466  -0.454  -0.410  -0.398  -0.344
 -0.319  -0.307  -0.274  -0.270
 -- Virtual --
 -0.164  -0.157  -0.016   0.079   0.105   0.120   0.146   0.150
  0.155   0.236   0.300   0.358   0.416   0.423   0.436   0.450
  0.482   0.504   0.511   0.542   0.546   0.568   0.586   0.659
  0.670   0.699   0.702   0.752   0.791   0.818   0.839   0.851
  0.869   0.883   0.905   0.910   0.914   0.919   0.926   0.933
  0.939   0.960   1.057   1.087   1.173   1.197   1.293   1.366
  1.413   1.467   1.612   1.747   1.818   1.858   1.903   1.969
  2.010   2.038   2.054   2.085   2.119   2.250   2.292   2.329
  2.423   2.450   2.526   2.585   2.614   2.665   2.758   2.815
  2.840   2.933   3.154   3.225   3.378   3.393   3.422   3.567
  4.225   4.254   4.279   4.367   4.572
 --------------------------------------------------------------
 
          Ground-State Mulliken Net Atomic Charges

     Atom                 Charge (a.u.)    Spin (a.u.)
  --------------------------------------------------------
      1 Cl                   -0.140127       0.682656
      2 Cl                   -0.236393       0.740056
      3 C                    -0.100060      -0.001761
      4 C                    -0.122080       0.630084
      5 C                    -0.324362       0.001370
      6 H                     0.167243       0.002043
      7 H                     0.161792      -0.027440
      8 H                     0.156686      -0.027552
      9 H                     0.151227       0.002829
     10 H                     0.137323      -0.001582
     11 H                     0.148753      -0.000703
  --------------------------------------------------------
  Sum of atomic charges =    -0.000000
  Sum of spin   charges =     2.000000

 -----------------------------------------------------------------
                    Cartesian Multipole Moments
 -----------------------------------------------------------------
    Charge (ESU x 10^10)
                 0.0000
    Dipole Moment (Debye)
         X      -3.1268      Y      -4.5362      Z      -1.0054
       Tot       5.6004
    Quadrupole Moments (Debye-Ang)
        XX     -47.3100     XY      -3.6825     YY     -49.3156
        XZ       0.7322     YZ      -0.1535     ZZ     -42.5614
    Octopole Moments (Debye-Ang^2)
       XXX     -58.4133    XXY     -35.3257    XYY     -24.1170
       YYY     -91.4855    XXZ       4.9042    XYZ       2.9290
       YYZ       9.2230    XZZ     -17.3675    YZZ     -26.3815
       ZZZ      12.2963
    Hexadecapole Moments (Debye-Ang^3)
      XXXX    -470.2650   XXXY    -177.3017   XXYY    -194.4613
      XYYY    -179.9028   YYYY    -629.8690   XXXZ      53.9837
      XXYZ       6.9444   XYYZ      21.4087   YYYZ      28.9906
      XXZZ    -116.1911   XYZZ     -58.1558   YYZZ    -143.8033
      XZZZ      57.4609   YZZZ      19.8006   ZZZZ    -225.6617
 -----------------------------------------------------------------
 Calculating analytic gradient of the SCF energy
 Gradient of SCF Energy
            1           2           3           4           5           6
    1   0.0002173  -0.0001300   0.0078923  -0.0018554   0.0005286  -0.0067143
    2  -0.0046780   0.0001679  -0.0041186   0.0041982   0.0031328   0.0023044
    3  -0.0028467  -0.0001655  -0.0045039   0.0070433   0.0004523   0.0001477
            7           8           9          10          11
    1   0.0003938  -0.0000278  -0.0000702  -0.0002416   0.0000073
    2  -0.0010634   0.0001313   0.0000148   0.0000950  -0.0001845
    3  -0.0003022  -0.0000994   0.0002511   0.0000087   0.0000147
 Max gradient component =       7.892E-03
 RMS gradient           =       2.821E-03
 Gradient time:  CPU 9.48 s  wall 0.83 s
 Geometry Optimization Parameters
   NAtoms,    NIC,     NZ,  NCons,   NDum,   NFix, NCnnct, MaxDiis
       11      83       0       1       0       0       0       0

 Cartesian Hessian Update
 Hessian Updated using BFGS Update


** CONSTRAINED OPTIMIZATION IN DELOCALIZED INTERNAL COORDINATES **
   Searching for a Minimum

   Optimization Cycle:   2

                       Coordinates (Angstroms)
     ATOM                X               Y               Z
      1  Cl       -0.2615673493    1.4222207782    0.6559910356
      2  Cl        2.1611494996    1.8768119591   -0.5903749442
      3  C        -0.8427300980   -0.5684239741   -0.3427898286
      4  C        -0.0629676589   -0.3356517050   -1.4651707543
      5  C        -0.4736215684   -1.5589108718    0.7174565870
      6  H        -1.8994333791   -0.2728597802   -0.3897795161
      7  H         0.9521286000   -0.7134106240   -1.5292855517
      8  H        -0.4174928656    0.2931916657   -2.2736110296
      9  H        -0.8944626578   -1.2809095354    1.6854988484
     10  H        -0.8903805974   -2.5379300883    0.4435966372
     11  H         0.6096800748   -1.6587298244    0.8132715165
   Point Group: c1    Number of degrees of freedom:    27


   Energy is  -1038.228860592

              Constraints and their Current Values
                                        Value     Constraint
   Distance(Angs):        1   3             2.301734     2.300000
 Hessian Updated using BFGS Update

   Using Lagrange Multiplier Algorithm


 27 Hessian modes will be used to form the next step
  Hessian Eigenvalues:
    -0.982504    0.024066    0.045021    0.045055    0.046315    0.056423
     0.057838    0.067059    0.082146    0.084961    0.085403    0.094738
     0.110068    0.130004    0.155795    0.159704    0.160000    0.160165
     0.325534    0.338257    0.340034    0.344318    0.345707    0.346582
     0.355486    0.488123    1.020858

 Minimum Search - Taking P-RFO Step
 Searching for Lamda that Maximizes Along the Constraint modes Only
 Value Taken    Lamda =   0.00000131
 Searching for Lamda that Minimizes Along All other modes
 Value Taken    Lamda =  -0.00039051
 Step Taken.  Stepsize is  0.054308

                             Maximum     Tolerance    Cnvgd?
         Gradient            0.004746       0.000300      NO
         Displacement        0.022879       0.001200      NO
         Energy change      0.000479       0.000001      NO


 New Cartesian Coordinates Obtained by Inverse Iteration

 Displacement from previous Coordinates is:  0.044449
 ----------------------------------------------------------------
             Standard Nuclear Orientation (Angstroms)
    I     Atom           X                Y                Z
 ----------------------------------------------------------------
    1      Cl     -0.2657556725     1.4293085547     0.6593847723
    2      Cl      2.1602140890     1.8804262354    -0.5833734701
    3      C      -0.8418421092    -0.5612796126    -0.3384571184
    4      C      -0.0641526083    -0.3407862747    -1.4702277228
    5      C      -0.4735975677    -1.5590882060     0.7176628350
    6      H      -1.8920766702    -0.2689398824    -0.3862914932
    7      H       0.9507717720    -0.7172113384    -1.5312445265
    8      H      -0.4187100747     0.2845163919    -2.2811788200
    9      H      -0.8917136014    -1.2840268259     1.6873913744
   10      H      -0.8925305295    -2.5362595316     0.4405126195
   11      H       0.6096949724    -1.6612615106     0.8106245497
 ----------------------------------------------------------------
 Nuclear Repulsion Energy =   258.9222241160 hartrees
 There are       30 alpha and       28 beta electrons

                       Distance Matrix (Angstroms)
             Cl(  1)   Cl(  2)   C (  3)   C (  4)   C (  5)   H (  6)
   Cl(  2)  2.762840
   C (  3)  2.300001  3.877403
   C (  4)  2.776532  3.266206  1.390799
   C (  5)  2.996183  4.523264  1.498871  2.537473
   H (  6)  2.573404  4.591261  1.091212  2.126355  2.212528
   H (  7)  3.299446  3.018101  2.158824  1.084200  2.791983  3.097362
   H (  8)  3.159250  3.475676  2.160690  1.083677  3.520645  2.463274
   H (  9)  2.968301  4.948171  2.151491  3.397811  1.091262  2.516205
   H ( 10)  4.020756  5.465776  2.123655  3.026093  1.098718  2.612171
   H ( 11)  3.215729  4.109853  2.153441  2.720296  1.092064  3.103229
             H (  7)   H (  8)   H (  9)   H ( 10)
   H (  8)  1.855085
   H (  9)  3.751753  4.293438
   H ( 10)  3.254923  3.948276  1.767143
   H ( 11)  2.547924  3.795117  1.779116  1.777438
 
 Applying Cartesian multipole field
    Component          Value
    ---------          -----
     (2,0,0)        1.00000E-11
     (0,2,0)        2.00000E-11
     (0,0,2)       -3.00000E-11
 Nucleus-field energy     =     0.0000000077 hartrees
 Requested basis set is 6-31G(d,p)
 There are 40 shells and 113 basis functions
 A cutoff of  1.0D-14 yielded    767 shell pairs
 There are      6308 function pairs
 Smallest overlap matrix eigenvalue = 5.22E-03
 Guess from superposition of atomic densities
 Warning:  Energy on first SCF cycle will be non-variational
 SAD guess density has 58.000000 electrons

 -----------------------------------------------------------------------
  General SCF calculation program by
  Eric Jon Sundstrom, Paul Horn, Yuezhi Mao, Dmitri Zuev, Alec White,
  David Stuck, Shaama M.S., Shane Yost, Joonho Lee, David Small,
  Daniel Levine, Susi Lehtola, Hugh Burton, Evgeny Epifanovsky
 -----------------------------------------------------------------------
 Exchange:     0.2000 Hartree-Fock + 0.0800 Slater + 0.7200 B88
 Correlation:  0.1900 VWN1RPA + 0.8100 LYP
 Using SG-1 standard quadrature grid
 using 12 threads for integral computing
 -------------------------------------------------------
 OpenMP Integral computing Module                
 Release: version 1.0, May 2013, Q-Chem Inc. Pittsburgh 
 -------------------------------------------------------
 -------------------------------------------------------
 OpenMP BLAS3 based DFT computing Module                
 Release: version 1.0, May 2013, Q-Chem Inc. Pittsburgh 
 -------------------------------------------------------
 A unrestricted SCF calculation will be
 performed using DIIS
 SCF converges when DIIS error is below 1.0e-06
 Alpha HF Exchange    Energy =  -7.25583500823388
 Beta HF Exchange     Energy =  -7.25583500823388
 DFT Correlation      Energy =  -2.75378793526615
 DFT Exchange         Energy = -57.29918843858316
 One-Electron (alpha) Energy = -970.03189890740964
 One-Electron (beta)  Energy = -970.03189890740964
 Total Coulomb        Energy = 717.20978799260718
 ---------------------------------------
  Cycle       Energy         DIIS error
 ---------------------------------------
    1   -1038.4964320888      2.57e-02  
 Alpha HF Exchange    Energy =  -7.39894629089377
 Beta HF Exchange     Energy =  -7.16896104499717
 DFT Correlation      Energy =  -2.77324967949252
 DFT Exchange         Energy = -57.83330062948629
 One-Electron (alpha) Energy = -990.25925239235153
 One-Electron (beta)  Energy = -956.48844959683561
 Total Coulomb        Energy = 724.83927779953137
    2   -1038.1606577108      2.88e-03  
 Alpha HF Exchange    Energy =  -7.35334654491412
 Beta HF Exchange     Energy =  -7.13292214021032
 DFT Correlation      Energy =  -2.75270467511594
 DFT Exchange         Energy = -57.46640988721292
 One-Electron (alpha) Energy = -987.56944821200887
 One-Electron (beta)  Energy = -954.25973828752126
 Total Coulomb        Energy = 719.47825698624422
    3   -1038.1340886371      3.47e-03  
 Alpha HF Exchange    Energy =  -7.37097245957359
 Beta HF Exchange     Energy =  -7.13823088360808
 DFT Correlation      Energy =  -2.76086328334454
 DFT Exchange         Energy = -57.58073452509989
 One-Electron (alpha) Energy = -988.51483688341909
 One-Electron (beta)  Energy = -954.36895576675158
 Total Coulomb        Energy = 720.59156657665051
    4   -1038.2208031015      9.29e-04  
 Alpha HF Exchange    Energy =  -7.37744704840973
 Beta HF Exchange     Energy =  -7.14616638662846
 DFT Correlation      Energy =  -2.76201298918306
 DFT Exchange         Energy = -57.63044817177754
 One-Electron (alpha) Energy = -989.00217931672807
 One-Electron (beta)  Energy = -955.00893961797328
 Total Coulomb        Energy = 721.77705746049207
    5   -1038.2279119465      3.41e-04  
 Alpha HF Exchange    Energy =  -7.37777226367903
 Beta HF Exchange     Energy =  -7.14502012860734
 DFT Correlation      Energy =  -2.76180697530252
 DFT Exchange         Energy = -57.62770812906231
 One-Electron (alpha) Energy = -988.98881136666091
 One-Electron (beta)  Energy = -954.87907578140801
 Total Coulomb        Energy = 721.62895482140482
    6   -1038.2290156996      9.36e-05  
 Alpha HF Exchange    Energy =  -7.37740732575100
 Beta HF Exchange     Energy =  -7.14463252249581
 DFT Correlation      Energy =  -2.76155379933522
 DFT Exchange         Energy = -57.62391550829562
 One-Electron (alpha) Energy = -988.95549407491615
 One-Electron (beta)  Energy = -954.83102004492162
 Total Coulomb        Energy = 721.54268979007634
    7   -1038.2291093620      2.84e-05  
 Alpha HF Exchange    Energy =  -7.37769751895490
 Beta HF Exchange     Energy =  -7.14481104177159
 DFT Correlation      Energy =  -2.76152751573139
 DFT Exchange         Energy = -57.62532301927813
 One-Electron (alpha) Energy = -988.96911751129539
 One-Electron (beta)  Energy = -954.83901318105120
 Total Coulomb        Energy = 721.56613746134519
    8   -1038.2291282031      1.83e-05  
 Alpha HF Exchange    Energy =  -7.37774971577652
 Beta HF Exchange     Energy =  -7.14485619019773
 DFT Correlation      Energy =  -2.76150469515259
 DFT Exchange         Energy = -57.62558819448197
 One-Electron (alpha) Energy = -988.97096085638373
 One-Electron (beta)  Energy = -954.83881988960093
 Total Coulomb        Energy = 721.56812332340269
    9   -1038.2291320945      6.43e-06  
 Alpha HF Exchange    Energy =  -7.37772934507688
 Beta HF Exchange     Energy =  -7.14484318368855
 DFT Correlation      Energy =  -2.76148315453746
 DFT Exchange         Energy = -57.62539164911328
 One-Electron (alpha) Energy = -988.96686122923415
 One-Electron (beta)  Energy = -954.83684424331477
 Total Coulomb        Energy = 721.56179602369139
   10   -1038.2291326576      3.25e-06  
 Alpha HF Exchange    Energy =  -7.37773640490938
 Beta HF Exchange     Energy =  -7.14485509817479
 DFT Correlation      Energy =  -2.76148516326632
 DFT Exchange         Energy = -57.62546761276937
 One-Electron (alpha) Energy = -988.96760043859717
 One-Electron (beta)  Energy = -954.83802708524786
 Total Coulomb        Energy = 721.56381492271100
   11   -1038.2291327566      1.22e-06  
 Alpha HF Exchange    Energy =  -7.37774113815321
 Beta HF Exchange     Energy =  -7.14485840927830
 DFT Correlation      Energy =  -2.76148338364734
 DFT Exchange         Energy = -57.62549242939411
 One-Electron (alpha) Energy = -988.96762814051795
 One-Electron (beta)  Energy = -954.83842108341810
 Total Coulomb        Energy = 721.56426768475444
   12   -1038.2291327760      5.75e-07  Convergence criterion met
 ---------------------------------------
 SCF time:   CPU 31.38s  wall 3.00s 
<S^2> =          2.014073455
 Alpha HF Exchange    Energy =  -7.37774113815321
 Beta HF Exchange     Energy =  -7.14485840927830
 DFT Correlation      Energy =  -2.76148338364734
 DFT Exchange         Energy = -57.62549242939411
 One-Electron (alpha) Energy = -988.96762814051795
 One-Electron (beta)  Energy = -954.83842108341810
 Total Coulomb        Energy = 721.56426768475444
 Nuclear repulsion Energy = 258.92222412368380
 SCF   energy in the final basis set =    -1038.2291327760
 Total energy in the final basis set =    -1038.2291327760
 
 --------------------------------------------------------------
 
                    Orbital Energies (a.u.)
 --------------------------------------------------------------
 
 Alpha MOs
 -- Occupied --
*******-101.519 -10.280 -10.252 -10.218  -9.462  -9.432  -7.227
 -7.222  -7.215  -7.202  -7.185  -7.185  -0.859  -0.800  -0.767
 -0.734  -0.611  -0.516  -0.471  -0.460  -0.413  -0.401  -0.383
 -0.371  -0.320  -0.287  -0.283  -0.279  -0.267
 -- Virtual --
 -0.048   0.077   0.103   0.115   0.145   0.147   0.154   0.232
  0.292   0.344   0.400   0.418   0.424   0.440   0.477   0.489
  0.503   0.517   0.533   0.546   0.573   0.644   0.658   0.680
  0.695   0.731   0.786   0.815   0.835   0.841   0.856   0.863
  0.878   0.885   0.891   0.895   0.907   0.911   0.926   0.938
  1.021   1.062   1.160   1.190   1.284   1.351   1.398   1.451
  1.611   1.744   1.809   1.857   1.882   1.957   2.010   2.037
  2.052   2.081   2.108   2.248   2.287   2.326   2.411   2.444
  2.518   2.576   2.611   2.663   2.757   2.814   2.839   2.931
  3.154   3.227   3.379   3.392   3.421   3.562   4.208   4.239
  4.263   4.358   4.567
 
 Beta MOs
 -- Occupied --
*******-101.514 -10.280 -10.243 -10.218  -9.457  -9.427  -7.215
 -7.213  -7.212  -7.185  -7.182  -7.181  -0.844  -0.768  -0.727
 -0.722  -0.604  -0.512  -0.466  -0.453  -0.410  -0.399  -0.344
 -0.319  -0.307  -0.274  -0.270
 -- Virtual --
 -0.164  -0.157  -0.016   0.079   0.105   0.120   0.146   0.151
  0.155   0.235   0.297   0.357   0.416   0.423   0.436   0.449
  0.482   0.504   0.512   0.542   0.546   0.567   0.586   0.657
  0.668   0.698   0.702   0.751   0.791   0.821   0.840   0.852
  0.869   0.883   0.905   0.910   0.914   0.919   0.927   0.933
  0.939   0.960   1.056   1.083   1.168   1.196   1.295   1.366
  1.412   1.468   1.614   1.746   1.817   1.861   1.899   1.969
  2.010   2.038   2.054   2.085   2.117   2.251   2.290   2.328
  2.422   2.453   2.526   2.585   2.615   2.666   2.759   2.815
  2.840   2.933   3.155   3.230   3.383   3.393   3.422   3.566
  4.221   4.254   4.278   4.367   4.571
 --------------------------------------------------------------
 
          Ground-State Mulliken Net Atomic Charges

     Atom                 Charge (a.u.)    Spin (a.u.)
  --------------------------------------------------------
      1 Cl                   -0.140485       0.676306
      2 Cl                   -0.236429       0.740275
      3 C                    -0.100344      -0.006080
      4 C                    -0.121906       0.641288
      5 C                    -0.324473       0.001513
      6 H                     0.168016       0.002038
      7 H                     0.161750      -0.027857
      8 H                     0.156456      -0.028006
      9 H                     0.151075       0.002891
     10 H                     0.137564      -0.001654
     11 H                     0.148777      -0.000714
  --------------------------------------------------------
  Sum of atomic charges =    -0.000000
  Sum of spin   charges =     2.000000

 -----------------------------------------------------------------
                    Cartesian Multipole Moments
 -----------------------------------------------------------------
    Charge (ESU x 10^10)
                 0.0000
    Dipole Moment (Debye)
         X      -3.1256      Y      -4.5508      Z      -1.0189
       Tot       5.6140
    Quadrupole Moments (Debye-Ang)
        XX     -47.3090     XY      -3.6824     YY     -49.3350
        XZ       0.7232     YZ      -0.1630     ZZ     -42.5487
    Octopole Moments (Debye-Ang^2)
       XXX     -58.1836    XXY     -35.4800    XYY     -24.0859
       YYY     -91.9680    XXZ       4.7454    XYZ       2.9087
       YYZ       9.0933    XZZ     -17.3119    YZZ     -26.5447
       ZZZ      11.8387
    Hexadecapole Moments (Debye-Ang^3)
      XXXX    -469.8231   XXXY    -177.1227   XXYY    -194.8619
      XYYY    -179.8025   YYYY    -632.4052   XXXZ      53.4881
      XXYZ       6.6006   XYYZ      21.2229   YYYZ      28.0719
      XXZZ    -116.1805   XYZZ     -58.0754   YYZZ    -144.2751
      XZZZ      57.0745   YZZZ      18.8750   ZZZZ    -225.7126
 -----------------------------------------------------------------
 Calculating analytic gradient of the SCF energy
 Gradient of SCF Energy
            1           2           3           4           5           6
    1   0.0003293  -0.0000440   0.0021412  -0.0002462   0.0003500  -0.0024164
    2  -0.0034644   0.0002456  -0.0026270   0.0036898   0.0020420   0.0009645
    3  -0.0022423  -0.0001481  -0.0026389   0.0040348   0.0007883   0.0002463
            7           8           9          10          11
    1  -0.0000351   0.0001182   0.0000037  -0.0001840  -0.0000168
    2  -0.0006607   0.0000638  -0.0000278  -0.0000760  -0.0001496
    3  -0.0001326  -0.0000511   0.0000464   0.0001565  -0.0000595
 Max gradient component =       4.035E-03
 RMS gradient           =       1.537E-03
 Gradient time:  CPU 9.47 s  wall 0.84 s
 Geometry Optimization Parameters
   NAtoms,    NIC,     NZ,  NCons,   NDum,   NFix, NCnnct, MaxDiis
       11      83       0       1       0       0       0       0

 Cartesian Hessian Update
 Hessian Updated using BFGS Update


** CONSTRAINED OPTIMIZATION IN DELOCALIZED INTERNAL COORDINATES **
   Searching for a Minimum

   Optimization Cycle:   3

                       Coordinates (Angstroms)
     ATOM                X               Y               Z
      1  Cl       -0.2657556725    1.4293085547    0.6593847723
      2  Cl        2.1602140890    1.8804262354   -0.5833734701
      3  C        -0.8418421092   -0.5612796126   -0.3384571184
      4  C        -0.0641526083   -0.3407862747   -1.4702277228
      5  C        -0.4735975677   -1.5590882060    0.7176628350
      6  H        -1.8920766702   -0.2689398824   -0.3862914932
      7  H         0.9507717720   -0.7172113384   -1.5312445265
      8  H        -0.4187100747    0.2845163919   -2.2811788200
      9  H        -0.8917136014   -1.2840268259    1.6873913744
     10  H        -0.8925305295   -2.5362595316    0.4405126195
     11  H         0.6096949724   -1.6612615106    0.8106245497
   Point Group: c1    Number of degrees of freedom:    27


   Energy is  -1038.229132776

              Constraints and their Current Values
                                        Value     Constraint
   Distance(Angs):        1   3             2.300001     2.300000
 Hessian Updated using BFGS Update

   Using Lagrange Multiplier Algorithm


 28 Hessian modes will be used to form the next step
  Hessian Eigenvalues:
    -0.973834    0.019853    0.032576    0.045053    0.045252    0.046541
     0.056714    0.060466    0.082158    0.084565    0.084978    0.090249
     0.110305    0.121779    0.144347    0.159679    0.159984    0.160000
     0.160769    0.325994    0.338116    0.343521    0.345695    0.346102
     0.355261    0.370969    0.482470    1.035420

 Minimum Search - Taking P-RFO Step
 Searching for Lamda that Maximizes Along the Constraint modes Only
 Value Taken    Lamda =   0.00000007
 Searching for Lamda that Minimizes Along All other modes
 Value Taken    Lamda =  -0.00054582
 Step Taken.  Stepsize is  0.141241

                             Maximum     Tolerance    Cnvgd?
         Gradient            0.001879       0.000300      NO
         Displacement        0.062772       0.001200      NO
         Energy change     -0.000272       0.000001      NO


 New Cartesian Coordinates Obtained by Inverse Iteration

 Displacement from previous Coordinates is:  0.129547
 ----------------------------------------------------------------
             Standard Nuclear Orientation (Angstroms)
    I     Atom           X                Y                Z
 ----------------------------------------------------------------
    1      Cl     -0.2790138874     1.4525356357     0.6715437595
    2      Cl      2.1564904653     1.8842870456    -0.5606549996
    3      C      -0.8366930720    -0.5425379113    -0.3277960298
    4      C      -0.0683108083    -0.3584819150    -1.4806457847
    5      C      -0.4700633653    -1.5568481811     0.7156825532
    6      H      -1.8797312514    -0.2545330594    -0.3786822011
    7      H       0.9472806590    -0.7320707094    -1.5346649596
    8      H      -0.4254953421     0.2564851667    -2.2982016302
    9      H      -0.8823927618    -1.2911133404     1.6903432147
   10      H      -0.8949218960    -2.5272006935     0.4253715757
   11      H       0.6131532600    -1.6651240378     0.8025075019
 ----------------------------------------------------------------
 Nuclear Repulsion Energy =   258.2754958051 hartrees
 There are       30 alpha and       28 beta electrons

                       Distance Matrix (Angstroms)
             Cl(  1)   Cl(  2)   C (  3)   C (  4)   C (  5)   H (  6)
   Cl(  2)  2.763405
   C (  3)  2.300001  3.860421
   C (  4)  2.820656  3.290309  1.397623
   C (  5)  3.015765  4.513229  1.500697  2.534037
   H (  6)  2.565025  4.571515  1.083266  2.122822  2.209258
   H (  7)  3.338212  3.042402  2.162179  1.083473  2.784454  3.091332
   H (  8)  3.204900  3.512187  2.165645  1.083588  3.517622  2.461808
   H (  9)  2.988248  4.938114  2.152984  3.404071  1.091143  2.519930
   H ( 10)  4.034631  5.453860  2.123567  3.003253  1.098348  2.604106
   H ( 11)  3.245445  4.103464  2.154029  2.717443  1.092072  3.098298
             H (  7)   H (  8)   H (  9)   H ( 10)
   H (  8)  1.856002
   H (  9)  3.749788  4.302593
   H ( 10)  3.233875  3.922642  1.768678
   H ( 11)  2.538623  3.792858  1.778987  1.777554
 
 Applying Cartesian multipole field
    Component          Value
    ---------          -----
     (2,0,0)        1.00000E-11
     (0,2,0)        2.00000E-11
     (0,0,2)       -3.00000E-11
 Nucleus-field energy     =     0.0000000078 hartrees
 Requested basis set is 6-31G(d,p)
 There are 40 shells and 113 basis functions
 A cutoff of  1.0D-14 yielded    767 shell pairs
 There are      6308 function pairs
 Smallest overlap matrix eigenvalue = 5.37E-03
 Guess from superposition of atomic densities
 Warning:  Energy on first SCF cycle will be non-variational
 SAD guess density has 58.000000 electrons

 -----------------------------------------------------------------------
  General SCF calculation program by
  Eric Jon Sundstrom, Paul Horn, Yuezhi Mao, Dmitri Zuev, Alec White,
  David Stuck, Shaama M.S., Shane Yost, Joonho Lee, David Small,
  Daniel Levine, Susi Lehtola, Hugh Burton, Evgeny Epifanovsky
 -----------------------------------------------------------------------
 Exchange:     0.2000 Hartree-Fock + 0.0800 Slater + 0.7200 B88
 Correlation:  0.1900 VWN1RPA + 0.8100 LYP
 Using SG-1 standard quadrature grid
 using 12 threads for integral computing
 -------------------------------------------------------
 OpenMP Integral computing Module                
 Release: version 1.0, May 2013, Q-Chem Inc. Pittsburgh 
 -------------------------------------------------------
 -------------------------------------------------------
 OpenMP BLAS3 based DFT computing Module                
 Release: version 1.0, May 2013, Q-Chem Inc. Pittsburgh 
 -------------------------------------------------------
 A unrestricted SCF calculation will be
 performed using DIIS
 SCF converges when DIIS error is below 1.0e-06
 Alpha HF Exchange    Energy =  -7.25499796192247
 Beta HF Exchange     Energy =  -7.25499796192247
 DFT Correlation      Energy =  -2.75337561373954
 DFT Exchange         Energy = -57.29767590196304
 One-Electron (alpha) Energy = -969.38595047196827
 One-Electron (beta)  Energy = -969.38595047196827
 Total Coulomb        Energy = 716.57000591278882
 ---------------------------------------
  Cycle       Energy         DIIS error
 ---------------------------------------
    1   -1038.4874466578      2.56e-02  
 Alpha HF Exchange    Energy =  -7.39831961443641
 Beta HF Exchange     Energy =  -7.16901471296625
 DFT Correlation      Energy =  -2.77277377473109
 DFT Exchange         Energy = -57.83127337484146
 One-Electron (alpha) Energy = -989.55006811190003
 One-Electron (beta)  Energy = -955.90028101780013
 Total Coulomb        Energy = 724.18503479661354
    2   -1038.1611999972      2.87e-03  
 Alpha HF Exchange    Energy =  -7.35281186628312
 Beta HF Exchange     Energy =  -7.13287349178926
 DFT Correlation      Energy =  -2.75228849397850
 DFT Exchange         Energy = -57.46487499381998
 One-Electron (alpha) Energy = -986.87249724735500
 One-Electron (beta)  Energy = -953.67355026950247
 Total Coulomb        Energy = 718.83918754305716
    3   -1038.1342130068      3.47e-03  
 Alpha HF Exchange    Energy =  -7.37033102653824
 Beta HF Exchange     Energy =  -7.13826561668163
 DFT Correlation      Energy =  -2.76038043255571
 DFT Exchange         Energy = -57.57877438443039
 One-Electron (alpha) Energy = -987.79730731700704
 One-Electron (beta)  Energy = -953.78762168774347
 Total Coulomb        Energy = 719.93633760453667
    4   -1038.2208470476      9.41e-04  
 Alpha HF Exchange    Energy =  -7.37685357180715
 Beta HF Exchange     Energy =  -7.14631929443415
 DFT Correlation      Energy =  -2.76151880917418
 DFT Exchange         Energy = -57.62889861036719
 One-Electron (alpha) Energy = -988.28970404416259
 One-Electron (beta)  Energy = -954.43141640668944
 Total Coulomb        Energy = 721.13104219291631
    5   -1038.2281727309      3.47e-04  
 Alpha HF Exchange    Energy =  -7.37718353781771
 Beta HF Exchange     Energy =  -7.14518789180064
 DFT Correlation      Energy =  -2.76131135357660
 DFT Exchange         Energy = -57.62623623919757
 One-Electron (alpha) Energy = -988.27349538327201
 One-Electron (beta)  Energy = -954.30365394635874
 Total Coulomb        Energy = 720.98225249215909
    6   -1038.2293200470      9.68e-05  
 Alpha HF Exchange    Energy =  -7.37682322867495
 Beta HF Exchange     Energy =  -7.14480796512860
 DFT Correlation      Energy =  -2.76104318403564
 DFT Exchange         Energy = -57.62243337488520
 One-Electron (alpha) Energy = -988.23923909112989
 One-Electron (beta)  Energy = -954.25591260208512
 Total Coulomb        Energy = 720.89534257476987
    7   -1038.2294210583      2.90e-05  
 Alpha HF Exchange    Energy =  -7.37711200618563
 Beta HF Exchange     Energy =  -7.14498917381418
 DFT Correlation      Energy =  -2.76101417098788
 DFT Exchange         Energy = -57.62382804763024
 One-Electron (alpha) Energy = -988.25189907669710
 One-Electron (beta)  Energy = -954.26359122257759
 Total Coulomb        Energy = 720.91749646961603
    8   -1038.2294414154      1.84e-05  
 Alpha HF Exchange    Energy =  -7.37717239214756
 Beta HF Exchange     Energy =  -7.14503826829076
 DFT Correlation      Energy =  -2.76098737626544
 DFT Exchange         Energy = -57.62412202163736
 One-Electron (alpha) Energy = -988.25382892491723
 One-Electron (beta)  Energy = -954.26375088975476
 Total Coulomb        Energy = 720.91995855762138
    9   -1038.2294455025      6.25e-06  
 Alpha HF Exchange    Energy =  -7.37715061416716
 Beta HF Exchange     Energy =  -7.14502404175252
 DFT Correlation      Energy =  -2.76096682500089
 DFT Exchange         Energy = -57.62391843269536
 One-Electron (alpha) Energy = -988.24967818920709
 One-Electron (beta)  Energy = -954.26170251574661
 Total Coulomb        Energy = 720.91349877603807
   10   -1038.2294460297      3.04e-06  
 Alpha HF Exchange    Energy =  -7.37715903074622
 Beta HF Exchange     Energy =  -7.14503579235366
 DFT Correlation      Energy =  -2.76096879407644
 DFT Exchange         Energy = -57.62399881784278
 One-Electron (alpha) Energy = -988.25053535040399
 One-Electron (beta)  Energy = -954.26287851627114
 Total Coulomb        Energy = 720.91563437341370
   11   -1038.2294461154      1.28e-06  
 Alpha HF Exchange    Energy =  -7.37716376065585
 Beta HF Exchange     Energy =  -7.14503837969189
 DFT Correlation      Energy =  -2.76096711745505
 DFT Exchange         Energy = -57.62402060874480
 One-Electron (alpha) Energy = -988.25055434715910
 One-Electron (beta)  Energy = -954.26320829480153
 Total Coulomb        Energy = 720.91601056194315
   12   -1038.2294461337      5.56e-07  Convergence criterion met
 ---------------------------------------
 SCF time:   CPU 31.30s  wall 2.00s 
<S^2> =          2.014772704
 Alpha HF Exchange    Energy =  -7.37716376065585
 Beta HF Exchange     Energy =  -7.14503837969189
 DFT Correlation      Energy =  -2.76096711745505
 DFT Exchange         Energy = -57.62402060874480
 One-Electron (alpha) Energy = -988.25055434715910
 One-Electron (beta)  Energy = -954.26320829480153
 Total Coulomb        Energy = 720.91601056194315
 Nuclear repulsion Energy = 258.27549581285564
 SCF   energy in the final basis set =    -1038.2294461337
 Total energy in the final basis set =    -1038.2294461337
 
 --------------------------------------------------------------
 
                    Orbital Energies (a.u.)
 --------------------------------------------------------------
 
 Alpha MOs
 -- Occupied --
*******-101.519 -10.281 -10.253 -10.218  -9.462  -9.431  -7.227
 -7.222  -7.215  -7.202  -7.185  -7.185  -0.858  -0.800  -0.766
 -0.733  -0.612  -0.516  -0.470  -0.460  -0.412  -0.403  -0.382
 -0.370  -0.319  -0.287  -0.283  -0.278  -0.268
 -- Virtual --
 -0.049   0.078   0.104   0.115   0.144   0.148   0.154   0.230
  0.287   0.344   0.399   0.417   0.424   0.438   0.478   0.490
  0.504   0.517   0.532   0.545   0.573   0.640   0.658   0.678
  0.694   0.731   0.786   0.818   0.837   0.842   0.856   0.862
  0.879   0.885   0.890   0.895   0.907   0.910   0.925   0.937
  1.020   1.049   1.145   1.191   1.288   1.353   1.396   1.453
  1.612   1.741   1.807   1.863   1.877   1.956   2.009   2.035
  2.051   2.080   2.106   2.251   2.280   2.323   2.408   2.447
  2.519   2.575   2.613   2.666   2.756   2.812   2.841   2.927
  3.156   3.233   3.385   3.392   3.421   3.556   4.199   4.239
  4.263   4.357   4.566
 
 Beta MOs
 -- Occupied --
*******-101.513 -10.280 -10.244 -10.218  -9.457  -9.426  -7.216
 -7.213  -7.212  -7.185  -7.182  -7.181  -0.843  -0.768  -0.727
 -0.721  -0.605  -0.512  -0.466  -0.453  -0.409  -0.400  -0.344
 -0.319  -0.307  -0.274  -0.270
 -- Virtual --
 -0.164  -0.159  -0.017   0.080   0.106   0.120   0.145   0.151
  0.155   0.233   0.292   0.357   0.416   0.423   0.436   0.447
  0.482   0.504   0.512   0.542   0.545   0.566   0.587   0.654
  0.667   0.696   0.701   0.751   0.791   0.824   0.840   0.852
  0.869   0.884   0.904   0.910   0.913   0.919   0.927   0.932
  0.938   0.960   1.053   1.071   1.154   1.197   1.300   1.365
  1.411   1.470   1.615   1.744   1.815   1.866   1.895   1.968
  2.009   2.036   2.052   2.084   2.115   2.254   2.283   2.325
  2.419   2.457   2.526   2.585   2.616   2.669   2.758   2.813
  2.841   2.929   3.156   3.236   3.389   3.392   3.421   3.560
  4.213   4.253   4.278   4.366   4.570
 --------------------------------------------------------------
 
          Ground-State Mulliken Net Atomic Charges

     Atom                 Charge (a.u.)    Spin (a.u.)
  --------------------------------------------------------
      1 Cl                   -0.141042       0.664080
      2 Cl                   -0.237127       0.740196
      3 C                    -0.100304      -0.015003
      4 C                    -0.120828       0.663648
      5 C                    -0.324816       0.001818
      6 H                     0.169121       0.002065
      7 H                     0.161709      -0.028640
      8 H                     0.155681      -0.028863
      9 H                     0.150511       0.003193
     10 H                     0.138241      -0.001747
     11 H                     0.148855      -0.000745
  --------------------------------------------------------
  Sum of atomic charges =     0.000000
  Sum of spin   charges =     2.000000

 -----------------------------------------------------------------
                    Cartesian Multipole Moments
 -----------------------------------------------------------------
    Charge (ESU x 10^10)
                -0.0000
    Dipole Moment (Debye)
         X      -3.1184      Y      -4.5886      Z      -1.0633
       Tot       5.6489
    Quadrupole Moments (Debye-Ang)
        XX     -47.3212     XY      -3.7004     YY     -49.3861
        XZ       0.7044     YZ      -0.1648     ZZ     -42.5176
    Octopole Moments (Debye-Ang^2)
       XXX     -57.5161    XXY     -35.8651    XYY     -23.9480
       YYY     -93.0982    XXZ       4.2087    XYZ       2.8343
       YYZ       8.6127    XZZ     -17.1368    YZZ     -26.9649
       ZZZ      10.3817
    Hexadecapole Moments (Debye-Ang^3)
      XXXX    -468.3572   XXXY    -175.8801   XXYY    -195.8124
      XYYY    -178.6909   YYYY    -638.2277   XXXZ      51.7529
      XXYZ       5.3640   XYYZ      20.6058   YYYZ      24.7506
      XXZZ    -116.0202   XYZZ     -57.5814   YYZZ    -145.2656
      XZZZ      55.6632   YZZZ      15.5144   ZZZZ    -225.4419
 -----------------------------------------------------------------
 Calculating analytic gradient of the SCF energy
 Gradient of SCF Energy
            1           2           3           4           5           6
    1   0.0004225   0.0001119  -0.0044138   0.0012970   0.0002427   0.0025882
    2  -0.0003019   0.0004026  -0.0001570   0.0008088  -0.0003152  -0.0006141
    3  -0.0004344  -0.0001001   0.0004386  -0.0005793   0.0001880   0.0000607
            7           8           9          10          11
    1  -0.0003089   0.0000936   0.0000585  -0.0000729  -0.0000189
    2   0.0000660   0.0000884   0.0001570  -0.0000550  -0.0000795
    3   0.0003637   0.0001800  -0.0001472   0.0001489  -0.0001188
 Max gradient component =       4.414E-03
 RMS gradient           =       9.640E-04
 Gradient time:  CPU 9.43 s  wall 0.83 s
 Geometry Optimization Parameters
   NAtoms,    NIC,     NZ,  NCons,   NDum,   NFix, NCnnct, MaxDiis
       11      83       0       1       0       0       0       0

 Cartesian Hessian Update
 Hessian Updated using BFGS Update


** CONSTRAINED OPTIMIZATION IN DELOCALIZED INTERNAL COORDINATES **
   Searching for a Minimum

   Optimization Cycle:   4

                       Coordinates (Angstroms)
     ATOM                X               Y               Z
      1  Cl       -0.2790138874    1.4525356357    0.6715437595
      2  Cl        2.1564904653    1.8842870456   -0.5606549996
      3  C        -0.8366930720   -0.5425379113   -0.3277960298
      4  C        -0.0683108083   -0.3584819150   -1.4806457847
      5  C        -0.4700633653   -1.5568481811    0.7156825532
      6  H        -1.8797312514   -0.2545330594   -0.3786822011
      7  H         0.9472806590   -0.7320707094   -1.5346649596
      8  H        -0.4254953421    0.2564851667   -2.2982016302
      9  H        -0.8823927618   -1.2911133404    1.6903432147
     10  H        -0.8949218960   -2.5272006935    0.4253715757
     11  H         0.6131532600   -1.6651240378    0.8025075019
   Point Group: c1    Number of degrees of freedom:    27


   Energy is  -1038.229446134

              Constraints and their Current Values
                                        Value     Constraint
   Distance(Angs):        1   3             2.300001     2.300000
 Hessian Updated using BFGS Update

   Using Lagrange Multiplier Algorithm


 28 Hessian modes will be used to form the next step
  Hessian Eigenvalues:
    -0.967426    0.017216    0.029124    0.045055    0.045341    0.047283
     0.056726    0.060559    0.082183    0.084405    0.084980    0.089887
     0.110790    0.119895    0.145450    0.159734    0.159985    0.160257
     0.160731    0.326245    0.338227    0.343603    0.345701    0.346209
     0.355310    0.384504    0.513044    1.051491

 Minimum Search - Taking P-RFO Step
 Searching for Lamda that Maximizes Along the Constraint modes Only
 Value Taken    Lamda =   0.00000021
 Searching for Lamda that Minimizes Along All other modes
 Value Taken    Lamda =  -0.00006364
 Step Taken.  Stepsize is  0.044325

                             Maximum     Tolerance    Cnvgd?
         Gradient            0.001686       0.000300      NO
         Displacement        0.021178       0.001200      NO
         Energy change     -0.000313       0.000001      NO


 New Cartesian Coordinates Obtained by Inverse Iteration

 Displacement from previous Coordinates is:  0.047067
 ----------------------------------------------------------------
             Standard Nuclear Orientation (Angstroms)
    I     Atom           X                Y                Z
 ----------------------------------------------------------------
    1      Cl     -0.2842314438     1.4588024789     0.6766006527
    2      Cl      2.1554667585     1.8790371897    -0.5496815069
    3      C      -0.8334693588    -0.5370969666    -0.3257581715
    4      C      -0.0703267542    -0.3634247161    -1.4845530858
    5      C      -0.4675701157    -1.5540968555     0.7154562179
    6      H      -1.8785976709    -0.2500529169    -0.3777941086
    7      H       0.9454448381    -0.7369450267    -1.5394478271
    8      H      -0.4298988290     0.2476147523    -2.3041976200
    9      H      -0.8798981301    -1.2927727654     1.6914091739
   10      H      -0.8922501127    -2.5230265441     0.4204410661
   11      H       0.6156328185    -1.6626406295     0.8023282093
 ----------------------------------------------------------------
 Nuclear Repulsion Energy =   258.1793326876 hartrees
 There are       30 alpha and       28 beta electrons

                       Distance Matrix (Angstroms)
             Cl(  1)   Cl(  2)   C (  3)   C (  4)   C (  5)   H (  6)
   Cl(  2)  2.762697
   C (  3)  2.300000  3.849881
   C (  4)  2.834934  3.294962  1.398340
   C (  5)  3.018722  4.501922  1.500766  2.532892
   H (  6)  2.563969  4.564674  1.085078  2.123114  2.210594
   H (  7)  3.353249  3.047483  2.162757  1.083662  2.783692  3.092203
   H (  8)  3.220769  3.524767  2.166302  1.083734  3.516517  2.461185
   H (  9)  2.992628  4.929128  2.154569  3.406733  1.091233  2.523146
   H ( 10)  4.036120  5.441312  2.122306  2.994736  1.098277  2.603165
   H ( 11)  3.250995  4.091760  2.153909  2.718148  1.092088  3.099884
             H (  7)   H (  8)   H (  9)   H ( 10)
   H (  8)  1.856279
   H (  9)  3.752234  4.305829
   H ( 10)  3.226201  3.913295  1.768908
   H ( 11)  2.539607  3.793773  1.778730  1.777586
 
 Applying Cartesian multipole field
    Component          Value
    ---------          -----
     (2,0,0)        1.00000E-11
     (0,2,0)        2.00000E-11
     (0,0,2)       -3.00000E-11
 Nucleus-field energy     =     0.0000000078 hartrees
 Requested basis set is 6-31G(d,p)
 There are 40 shells and 113 basis functions
 A cutoff of  1.0D-14 yielded    767 shell pairs
 There are      6308 function pairs
 Smallest overlap matrix eigenvalue = 5.41E-03
 Guess from superposition of atomic densities
 Warning:  Energy on first SCF cycle will be non-variational
 SAD guess density has 58.000000 electrons

 -----------------------------------------------------------------------
  General SCF calculation program by
  Eric Jon Sundstrom, Paul Horn, Yuezhi Mao, Dmitri Zuev, Alec White,
  David Stuck, Shaama M.S., Shane Yost, Joonho Lee, David Small,
  Daniel Levine, Susi Lehtola, Hugh Burton, Evgeny Epifanovsky
 -----------------------------------------------------------------------
 Exchange:     0.2000 Hartree-Fock + 0.0800 Slater + 0.7200 B88
 Correlation:  0.1900 VWN1RPA + 0.8100 LYP
 Using SG-1 standard quadrature grid
 using 12 threads for integral computing
 -------------------------------------------------------
 OpenMP Integral computing Module                
 Release: version 1.0, May 2013, Q-Chem Inc. Pittsburgh 
 -------------------------------------------------------
 -------------------------------------------------------
 OpenMP BLAS3 based DFT computing Module                
 Release: version 1.0, May 2013, Q-Chem Inc. Pittsburgh 
 -------------------------------------------------------
 A unrestricted SCF calculation will be
 performed using DIIS
 SCF converges when DIIS error is below 1.0e-06
 Alpha HF Exchange    Energy =  -7.25469141207191
 Beta HF Exchange     Energy =  -7.25469141207191
 DFT Correlation      Energy =  -2.75325980069931
 DFT Exchange         Energy = -57.29706138802416
 One-Electron (alpha) Energy = -969.29147268155759
 One-Electron (beta)  Energy = -969.29147268155759
 Total Coulomb        Energy = 716.47822276725162
 ---------------------------------------
  Cycle       Energy         DIIS error
 ---------------------------------------
    1   -1038.4850939133      2.56e-02  
 Alpha HF Exchange    Energy =  -7.39806681267099
 Beta HF Exchange     Energy =  -7.16891423534562
 DFT Correlation      Energy =  -2.77263881391806
 DFT Exchange         Energy = -57.83001396296628
 One-Electron (alpha) Energy = -989.44179487607539
 One-Electron (beta)  Energy = -955.82024409405790
 Total Coulomb        Energy = 724.09109734324682
    2   -1038.1612427564      2.87e-03  
 Alpha HF Exchange    Energy =  -7.35256354470189
 Beta HF Exchange     Energy =  -7.13267914181820
 DFT Correlation      Energy =  -2.75215858907203
 DFT Exchange         Energy = -57.46355826108068
 One-Electron (alpha) Energy = -986.76384201178098
 One-Electron (beta)  Energy = -953.58815861826213
 Total Coulomb        Energy = 718.73975922109730
    3   -1038.1338682502      3.48e-03  
 Alpha HF Exchange    Energy =  -7.37007517867010
[...]


 New Cartesian Coordinates Obtained by Inverse Iteration

 Displacement from previous Coordinates is:  0.006847
 ----------------------------------------------------------------
             Standard Nuclear Orientation (Angstroms)
    I     Atom           X                Y                Z
 ----------------------------------------------------------------
    1      Cl     -0.3983174973     1.5903121811     0.3755155491
    2      Cl      2.3123460037     1.2205229286     0.4036436051
    3      C      -0.8783557490    -0.5267526128    -0.3844844737
    4      C      -0.2721423341    -0.3855636314    -1.6352498939
    5      C      -0.3039175726    -1.4057246722     0.6852827446
    6      H      -1.9473895546    -0.3340726787    -0.3309402335
    7      H       0.7677268270    -0.6594472206    -1.7794449695
    8      H      -0.7922882405     0.0963188107    -2.4556766299
    9      H      -0.6930329362    -1.1391848322     1.6691871979
   10      H      -0.6006363182    -2.4421780706     0.4742831173
   11      H       0.7863093719    -1.3488322019     0.7026869865
 ----------------------------------------------------------------
 Nuclear Repulsion Energy =   261.0125887993 hartrees
 There are       30 alpha and       28 beta electrons

                       Distance Matrix (Angstroms)
             Cl(  1)   Cl(  2)   C (  3)   C (  4)   C (  5)   H (  6)
   Cl(  2)  2.735915
   C (  3)  2.300000  3.722190
   C (  4)  2.821911  3.662810  1.397084
   C (  5)  3.013487  3.717705  1.498991  2.535076
   H (  6)  2.569428  4.593662  1.087578  2.123753  2.209558
   H (  7)  3.326399  3.268947  2.161738  1.084957  2.789307  3.094494
   H (  8)  3.225349  4.367871  2.164593  1.084372  3.515717  2.456420
   H (  9)  3.034897  4.025186  2.151043  3.415318  1.091111  2.494419
   H ( 10)  4.038770  4.680367  2.117419  2.964406  1.098544  2.627972
   H ( 11)  3.185742  3.003298  2.151480  2.741196  1.091849  3.093741
             H (  7)   H (  8)   H (  9)   H ( 10)
   H (  8)  1.860677
   H (  9)  3.775848  4.307067
   H ( 10)  3.182741  3.881412  1.770346
   H ( 11)  2.576155  3.815192  1.779474  1.780784
 
 Applying Cartesian multipole field
    Component          Value
    ---------          -----
     (2,0,0)        1.00000E-11
     (0,2,0)        2.00000E-11
     (0,0,2)       -3.00000E-11
 Nucleus-field energy     =     0.0000000063 hartrees
 Requested basis set is 6-31G(d,p)
 There are 40 shells and 113 basis functions
 A cutoff of  1.0D-14 yielded    773 shell pairs
 There are      6391 function pairs
 Smallest overlap matrix eigenvalue = 5.46E-03
 Guess from superposition of atomic densities
 Warning:  Energy on first SCF cycle will be non-variational
 SAD guess density has 58.000000 electrons

 -----------------------------------------------------------------------
  General SCF calculation program by
  Eric Jon Sundstrom, Paul Horn, Yuezhi Mao, Dmitri Zuev, Alec White,
  David Stuck, Shaama M.S., Shane Yost, Joonho Lee, David Small,
  Daniel Levine, Susi Lehtola, Hugh Burton, Evgeny Epifanovsky
 -----------------------------------------------------------------------
 Exchange:     0.2000 Hartree-Fock + 0.0800 Slater + 0.7200 B88
 Correlation:  0.1900 VWN1RPA + 0.8100 LYP
 Using SG-1 standard quadrature grid
 using 12 threads for integral computing
 -------------------------------------------------------
 OpenMP Integral computing Module                
 Release: version 1.0, May 2013, Q-Chem Inc. Pittsburgh 
 -------------------------------------------------------
 -------------------------------------------------------
 OpenMP BLAS3 based DFT computing Module                
 Release: version 1.0, May 2013, Q-Chem Inc. Pittsburgh 
 -------------------------------------------------------
 A unrestricted SCF calculation will be
 performed using DIIS
 SCF converges when DIIS error is below 1.0e-06
 Alpha HF Exchange    Energy =  -7.25512569218238
 Beta HF Exchange     Energy =  -7.25512569218238
 DFT Correlation      Energy =  -2.75366993295071
 DFT Exchange         Energy = -57.29763872353344
 One-Electron (alpha) Energy = -972.12513913467785
 One-Electron (beta)  Energy = -972.12513913467785
 Total Coulomb        Energy = 719.30959489593715
 ---------------------------------------
  Cycle       Energy         DIIS error
 ---------------------------------------
    1   -1038.4896546086      2.56e-02  
 Alpha HF Exchange    Energy =  -7.39824449286986
 Beta HF Exchange     Energy =  -7.16846006403240
 DFT Correlation      Energy =  -2.77294526886663
 DFT Exchange         Energy = -57.82919255245919
 One-Electron (alpha) Energy = -992.30053749008550
 One-Electron (beta)  Energy = -958.65824938287460
 Total Coulomb        Energy = 726.95392320829899
    2   -1038.1611172373      2.90e-03  
 Alpha HF Exchange    Energy =  -7.35301007999337
 Beta HF Exchange     Energy =  -7.13262707874190
 DFT Correlation      Energy =  -2.75240146794439
 DFT Exchange         Energy = -57.46485271964514
 One-Electron (alpha) Energy = -989.58203939425164
 One-Electron (beta)  Energy = -956.42188303206387
 Total Coulomb        Energy = 721.56105308302449
    3   -1038.1331718840      3.52e-03  
 Alpha HF Exchange    Energy =  -7.37036507133325
 Beta HF Exchange     Energy =  -7.13774974445626
 DFT Correlation      Energy =  -2.76052272646778
 DFT Exchange         Energy = -57.57708074850964
 One-Electron (alpha) Energy = -990.50846877062668
 One-Electron (beta)  Energy = -956.53610386250887
 Total Coulomb        Energy = 722.65543863690903
    4   -1038.2222634814      9.29e-04  
 Alpha HF Exchange    Energy =  -7.37699194935553
 Beta HF Exchange     Energy =  -7.14594534806113
 DFT Correlation      Energy =  -2.76166631448680
 DFT Exchange         Energy = -57.62811669948071
 One-Electron (alpha) Energy = -991.01469231016654
 One-Electron (beta)  Energy = -957.19401665374892
 Total Coulomb        Energy = 723.87944956634510
    5   -1038.2293909033      3.50e-04  
 Alpha HF Exchange    Energy =  -7.37726211150526
 Beta HF Exchange     Energy =  -7.14479445376814
 DFT Correlation      Energy =  -2.76147060816320
 DFT Exchange         Energy = -57.62518211805103
 One-Electron (alpha) Energy = -990.98850399987941
 One-Electron (beta)  Energy = -957.06347634791200
 Total Coulomb        Energy = 723.71758734785317
    6   -1038.2305134858      9.72e-05  
 Alpha HF Exchange    Energy =  -7.37687727544916
 Beta HF Exchange     Energy =  -7.14439179211352
 DFT Correlation      Energy =  -2.76119949288876
 DFT Exchange         Energy = -57.62124279007821
 One-Electron (alpha) Energy = -990.95340609974846
 One-Electron (beta)  Energy = -957.01801556785256
 Total Coulomb        Energy = 723.63193818850630
    7   -1038.2306060240      2.76e-05  
 Alpha HF Exchange    Energy =  -7.37714324207906
 Beta HF Exchange     Energy =  -7.14456128528594
 DFT Correlation      Energy =  -2.76118349731308
 DFT Exchange         Energy = -57.62259024496434
 One-Electron (alpha) Energy = -990.96425785244594
 One-Electron (beta)  Energy = -957.02608387890177
 Total Coulomb        Energy = 723.65260955509939
    8   -1038.2306216403      1.70e-05  
 Alpha HF Exchange    Energy =  -7.37719354447243
 Beta HF Exchange     Energy =  -7.14459763461341
 DFT Correlation      Energy =  -2.76115701625556
 DFT Exchange         Energy = -57.62281712394542
 One-Electron (alpha) Energy = -990.96523876443905
 One-Electron (beta)  Energy = -957.02651420126301
 Total Coulomb        Energy = 723.65430447300321
    9   -1038.2306250064      5.43e-06  
 Alpha HF Exchange    Energy =  -7.37717167114138
 Beta HF Exchange     Energy =  -7.14458580869348
 DFT Correlation      Energy =  -2.76113971411431
 DFT Exchange         Energy = -57.62263597412576
 One-Electron (alpha) Energy = -990.96119014873273
 One-Electron (beta)  Energy = -957.02485027021316
 Total Coulomb        Energy = 723.64835928930472
   10   -1038.2306254921      2.53e-06  
 Alpha HF Exchange    Energy =  -7.37718284129941
 Beta HF Exchange     Energy =  -7.14459785063568
 DFT Correlation      Energy =  -2.76114066156851
 DFT Exchange         Energy = -57.62272696453010
 One-Electron (alpha) Energy = -990.96209887374437
 One-Electron (beta)  Energy = -957.02624527655689
 Total Coulomb        Energy = 723.65077808140859
   11   -1038.2306255813      1.19e-06  
 Alpha HF Exchange    Energy =  -7.37718524265614
 Beta HF Exchange     Energy =  -7.14459890814926
 DFT Correlation      Energy =  -2.76113880947842
 DFT Exchange         Energy = -57.62273422794391
 One-Electron (alpha) Energy = -990.96188069112520
 One-Electron (beta)  Energy = -957.02643168122756
 Total Coulomb        Energy = 723.65075515426417
   12   -1038.2306256007      5.81e-07  Convergence criterion met
 ---------------------------------------
 SCF time:   CPU 31.33s  wall 3.00s 
<S^2> =          2.015453470
 Alpha HF Exchange    Energy =  -7.37718524265614
 Beta HF Exchange     Energy =  -7.14459890814926
 DFT Correlation      Energy =  -2.76113880947842
 DFT Exchange         Energy = -57.62273422794391
 One-Electron (alpha) Energy = -990.96188069112520
 One-Electron (beta)  Energy = -957.02643168122756
 Total Coulomb        Energy = 723.65075515426417
 Nuclear repulsion Energy = 261.01258880563262
 SCF   energy in the final basis set =    -1038.2306256007
 Total energy in the final basis set =    -1038.2306256007
 
 --------------------------------------------------------------
 
                    Orbital Energies (a.u.)
 --------------------------------------------------------------
 
 Alpha MOs
 -- Occupied --
*******-101.518 -10.282 -10.254 -10.213  -9.465  -9.431  -7.229
 -7.224  -7.218  -7.201  -7.184  -7.184  -0.858  -0.802  -0.766
 -0.732  -0.611  -0.517  -0.469  -0.458  -0.411  -0.400  -0.380
 -0.372  -0.323  -0.288  -0.282  -0.276  -0.270
 -- Virtual --
 -0.050   0.077   0.107   0.115   0.147   0.152   0.159   0.231
  0.283   0.348   0.397   0.422   0.425   0.442   0.462   0.489
  0.508   0.524   0.530   0.554   0.593   0.617   0.654   0.668
  0.699   0.736   0.784   0.814   0.833   0.849   0.856   0.862
  0.874   0.880   0.888   0.893   0.902   0.915   0.939   0.967
  1.014   1.064   1.141   1.196   1.292   1.351   1.393   1.443
  1.616   1.743   1.804   1.866   1.878   1.950   2.013   2.028
  2.050   2.084   2.101   2.249   2.282   2.331   2.402   2.443
  2.522   2.571   2.616   2.670   2.753   2.812   2.845   2.930
  3.164   3.228   3.381   3.393   3.430   3.553   4.200   4.243
  4.268   4.347   4.566
 
 Beta MOs
 -- Occupied --
*******-101.513 -10.281 -10.245 -10.213  -9.460  -9.426  -7.218
 -7.215  -7.214  -7.184  -7.181  -7.181  -0.843  -0.770  -0.727
 -0.719  -0.604  -0.512  -0.465  -0.451  -0.408  -0.397  -0.344
 -0.320  -0.311  -0.275  -0.270
 -- Virtual --
 -0.162  -0.160  -0.020   0.079   0.111   0.119   0.148   0.154
  0.161   0.234   0.288   0.360   0.412   0.430   0.438   0.446
  0.471   0.504   0.529   0.536   0.541   0.577   0.612   0.630
  0.662   0.681   0.708   0.757   0.789   0.824   0.837   0.861
  0.868   0.886   0.892   0.906   0.910   0.922   0.929   0.933
  0.958   0.976   1.041   1.091   1.150   1.201   1.305   1.362
  1.407   1.460   1.620   1.745   1.813   1.868   1.894   1.963
  2.015   2.030   2.052   2.087   2.108   2.253   2.284   2.332
  2.413   2.453   2.529   2.582   2.618   2.673   2.755   2.813
  2.846   2.932   3.165   3.231   3.385   3.394   3.430   3.557
  4.214   4.258   4.283   4.355   4.569
 --------------------------------------------------------------
 
          Ground-State Mulliken Net Atomic Charges

     Atom                 Charge (a.u.)    Spin (a.u.)
  --------------------------------------------------------
      1 Cl                   -0.133200       0.667227
      2 Cl                   -0.243151       0.734903
      3 C                    -0.100090      -0.025443
      4 C                    -0.123990       0.677224
      5 C                    -0.327980       0.003567
      6 H                     0.166852       0.002121
      7 H                     0.162769      -0.029555
      8 H                     0.148365      -0.029473
      9 H                     0.148868       0.002612
     10 H                     0.135865      -0.001952
     11 H                     0.165693      -0.001231
  --------------------------------------------------------
  Sum of atomic charges =    -0.000000
  Sum of spin   charges =     2.000000

 -----------------------------------------------------------------
                    Cartesian Multipole Moments
 -----------------------------------------------------------------
    Charge (ESU x 10^10)
                -0.0000
    Dipole Moment (Debye)
         X      -3.3635      Y      -3.9047      Z      -1.9649
       Tot       5.5155
    Quadrupole Moments (Debye-Ang)
        XX     -47.9674     XY      -2.7026     YY     -47.7013
        XZ      -0.6683     YZ      -1.1695     ZZ     -41.9897
    Octopole Moments (Debye-Ang^2)
       XXX     -59.3498    XXY     -29.0258    XYY     -20.3214
       YYY     -68.6578    XXZ      -5.8405    XYZ       0.0954
       YYZ      -1.0600    XZZ     -18.8973    YZZ     -21.4550
       ZZZ     -14.1094
    Hexadecapole Moments (Debye-Ang^3)
      XXXX    -523.9882   XXXY    -116.8508   XXYY    -179.9606
      XYYY    -108.7777   YYYY    -470.6909   XXXZ     -41.6687
      XXYZ     -14.0961   XYYZ     -16.0591   YYYZ     -33.0572
      XXZZ    -126.6484   XYZZ     -38.3096   YYZZ    -118.6072
      XZZZ     -39.3453   YZZZ     -37.1807   ZZZZ    -206.1528
 -----------------------------------------------------------------
 Calculating analytic gradient of the SCF energy
 Gradient of SCF Energy
            1           2           3           4           5           6
    1   0.0002426   0.0000154   0.0000146  -0.0000841  -0.0000602  -0.0000598
    2   0.0007064  -0.0000431  -0.0007345  -0.0000767   0.0000642   0.0001017
    3   0.0002105  -0.0000403  -0.0002843   0.0000494   0.0000205   0.0000195
            7           8           9          10          11
    1   0.0000083   0.0000105  -0.0000230  -0.0000418  -0.0000225
    2  -0.0000511  -0.0000181   0.0000458   0.0000208  -0.0000156
    3  -0.0000304  -0.0000106   0.0000147   0.0000353   0.0000157
 Max gradient component =       7.345E-04
 RMS gradient           =       1.966E-04
 Gradient time:  CPU 9.04 s  wall 0.76 s
 Geometry Optimization Parameters
   NAtoms,    NIC,     NZ,  NCons,   NDum,   NFix, NCnnct, MaxDiis
       11      83       0       1       0       0       0       0

 Cartesian Hessian Update
 Hessian Updated using BFGS Update


** CONSTRAINED OPTIMIZATION IN DELOCALIZED INTERNAL COORDINATES **
   Searching for a Minimum

   Optimization Cycle:  26

                       Coordinates (Angstroms)
     ATOM                X               Y               Z
      1  Cl       -0.3983174973    1.5903121811    0.3755155491
      2  Cl        2.3123460037    1.2205229286    0.4036436051
      3  C        -0.8783557490   -0.5267526128   -0.3844844737
      4  C        -0.2721423341   -0.3855636314   -1.6352498939
      5  C        -0.3039175726   -1.4057246722    0.6852827446
      6  H        -1.9473895546   -0.3340726787   -0.3309402335
      7  H         0.7677268270   -0.6594472206   -1.7794449695
      8  H        -0.7922882405    0.0963188107   -2.4556766299
      9  H        -0.6930329362   -1.1391848322    1.6691871979
     10  H        -0.6006363182   -2.4421780706    0.4742831173
     11  H         0.7863093719   -1.3488322019    0.7026869865
   Point Group: c1    Number of degrees of freedom:    27


   Energy is  -1038.230625601

              Constraints and their Current Values
                                        Value     Constraint
   Distance(Angs):        1   3             2.300000     2.300000
 Hessian Updated using BFGS Update

 26 Hessian modes will be used to form the next step
  Hessian Eigenvalues:
     0.001273    0.003178    0.009795    0.021101    0.022866    0.030437
     0.042408    0.057997    0.074192    0.081739    0.084881    0.085112
     0.114963    0.143065    0.159727    0.160090    0.160858    0.161517
     0.326052    0.337655    0.343711    0.346203    0.348501    0.355040
     0.371919    0.468448

 Minimum Search - Taking Simple RFO Step
 Searching for Lamda that Minimizes Along All modes
 Value Taken    Lamda =   0.00000000
 Step Taken.  Stepsize is  0.004229

                             Maximum     Tolerance    Cnvgd?
         Gradient           0.000068      0.000300     YES
         Displacement       0.002238      0.001200      NO
         Energy change     -0.000001      0.000001     YES


                       Distance Matrix (Angstroms)
             Cl(  1)   Cl(  2)   C (  3)   C (  4)   C (  5)   H (  6)
   Cl(  2)  2.735915
   C (  3)  2.300000  3.722190
   C (  4)  2.821911  3.662810  1.397084
   C (  5)  3.013487  3.717705  1.498991  2.535076
   H (  6)  2.569428  4.593662  1.087578  2.123753  2.209558
   H (  7)  3.326399  3.268947  2.161738  1.084957  2.789307  3.094494
   H (  8)  3.225349  4.367871  2.164593  1.084372  3.515717  2.456420
   H (  9)  3.034897  4.025186  2.151043  3.415318  1.091111  2.494419
   H ( 10)  4.038770  4.680367  2.117419  2.964406  1.098544  2.627972
   H ( 11)  3.185742  3.003298  2.151480  2.741196  1.091849  3.093741
             H (  7)   H (  8)   H (  9)   H ( 10)
   H (  8)  1.860677
   H (  9)  3.775848  4.307067
   H ( 10)  3.182741  3.881412  1.770346
   H ( 11)  2.576155  3.815192  1.779474  1.780784
 
 Final energy is   -1038.23062560068     


 ******************************
 **  OPTIMIZATION CONVERGED  **
 ******************************

                       Coordinates (Angstroms)
     ATOM                X               Y               Z
      1  Cl       -0.3983174973    1.5903121811    0.3755155491
      2  Cl        2.3123460037    1.2205229286    0.4036436051
      3  C        -0.8783557490   -0.5267526128   -0.3844844737
      4  C        -0.2721423341   -0.3855636314   -1.6352498939
      5  C        -0.3039175726   -1.4057246722    0.6852827446
      6  H        -1.9473895546   -0.3340726787   -0.3309402335
      7  H         0.7677268270   -0.6594472206   -1.7794449695
      8  H        -0.7922882405    0.0963188107   -2.4556766299
      9  H        -0.6930329362   -1.1391848322    1.6691871979
     10  H        -0.6006363182   -2.4421780706    0.4742831173
     11  H         0.7863093719   -1.3488322019    0.7026869865

Z-matrix Print:
$molecule
0 3
Cl
C  1 2.300000
H  2 1.087578 1 91.479099
C  2 1.397084 1 96.444636 3 117.299017 0
H  4 1.084372 2 120.939006 1 -82.134703 0
H  4 1.084957 2 120.620845 1 91.277519 0
C  2 1.498991 1 102.940422 3 -117.588917 0
H  7 1.091111 2 111.323468 1 54.297417 0
H  7 1.091849 2 111.313400 1 -67.802270 0
H  7 1.098544 2 108.219137 1 172.711404 0
Cl 1 2.735915 2 94.920441 3 177.590702 0
$end

PES scan, value:    2.3000 energy: -1038.2306256007
------- Summary of potential scan: ------ 
    2.3000     -1038.2306256007
----------------------------------------- 
Archival summary:
1\1\hpc0332\JobtypUnspecified\ProcedureUnspecified\6-31G**\l236(3)\knomura\TueMar1203:37:562019TueMar1203:37:562019\0\\#,JobtypUnspecified,ProcedureUnspecified,6-31G**,\\0,3\Cl\C,1,2.3\H,2,1.08758,1,91.4791\C,2,1.39708,1,96.4446,3,117.299,0\H,4,1.08437,2,120.939,1,-82.1347,0\H,4,1.08496,2,120.621,1,91.2775,0\C,2,1.49899,1,102.94,3,-117.589,0\H,7,1.09111,2,111.323,1,54.2974,0\H,7,1.09185,2,111.313,1,-67.8023,0\H,7,1.09854,2,108.219,1,172.711,0\Cl,1,2.73592,2,94.9204,3,177.591,0\\\@

 Total job time:  101.35s(wall), 1177.76s(cpu) 
 Tue Mar 12 03:37:56 2019

        *************************************************************
        *                                                           *
        *  Thank you very much for using Q-Chem.  Have a nice day.  *
        *                                                           *
        *************************************************************


