
Running Job 1 of 1 ruruma/CH3CHClCH2Cl_afterGeo_middle_singlet.xyz.data/inputs/bond_singlet_2.5.in
qchem ruruma/CH3CHClCH2Cl_afterGeo_middle_singlet.xyz.data/inputs/bond_singlet_2.5.in_25834.0 /staging/scratch/2858534/qchem25834/ 1
/usr/usc/qchem/5.1.1/exe/qcprog.exe_s ruruma/CH3CHClCH2Cl_afterGeo_middle_singlet.xyz.data/inputs/bond_singlet_2.5.in_25834.0 /staging/scratch/2858534/qchem25834/
Check license passed

                  Welcome to Q-Chem
     A Quantum Leap Into The Future Of Chemistry


 Q-Chem 5.1, Q-Chem, Inc., Pleasanton, CA (2018)

 Yihan Shao,  Zhengting Gan,  E. Epifanovsky,  A. T. B. Gilbert,  M. Wormit,  
 J. Kussmann,  A. W. Lange,  A. Behn,  Jia Deng,  Xintian Feng,  D. Ghosh,  
 M. Goldey,  P. R. Horn,  L. D. Jacobson,  I. Kaliman,  T. Kus,  A. Landau,  
 Jie Liu,  E. I. Proynov,  R. M. Richard,  R. P. Steele,  E. J. Sundstrom,  
 H. L. Woodcock III,  P. M. Zimmerman,  D. Zuev,  B. Albrecht,  E. Alguire,  
 S. A. Baeppler,  D. Barton,  Z. Benda,  Y. A. Bernard,  E. J. Berquist,  
 K. B. Bravaya,  H. Burton,  D. Casanova,  Chun-Min Chang,  Yunqing Chen,  
 A. Chien,  K. D. Closser,  M. P. Coons,  S. Coriani,  S. Dasgupta,  
 A. L. Dempwolff,  M. Diedenhofen,  Hainam Do,  R. G. Edgar,  Po-Tung Fang,  
 S. Faraji,  S. Fatehi,  Qingguo Feng,  K. D. Fenk,  J. Fosso-Tande,  
 Qinghui Ge,  A. Ghysels,  G. Gidofalvi,  J. Gomes,  J. Gonthier,  A. Gunina,  
 D. Hait,  M. W. D. Hanson-Heine,  P. H. P. Harbach,  A. W. Hauser,  
 J. E. Herr,  E. G. Hohenstein,  Z. C. Holden,  Kerwin Hui,  B. C. Huynh,  
 T.-C. Jagau,  Hyunjun Ji,  B. Kaduk,  K. Khistyaev,  Jaehoon Kim,  
 P. Klunzinger,  K. Koh,  D. Kosenkov,  L. Koulias,  T. Kowalczyk,  
 C. M. Krauter,  A. Kunitsa,  Ka Un Lao,  A. Laurent,  K. V. Lawler,  
 Joonho Lee,  D. Lefrancois,  S. Lehtola,  D. S. Levine,  Yi-Pei Li,  
 You-Sheng Lin,  Fenglai Liu,  E. Livshits,  A. Luenser,  P. Manohar,  
 E. Mansoor,  S. F. Manzer,  Shan-Ping Mao,  Yuezhi Mao,  N. Mardirossian,  
 A. V. Marenich,  T. Markovich,  L. A. Martinez-Martinez,  S. A. Maurer,  
 N. J. Mayhall,  S. C. McKenzie,  J.-M. Mewes,  A. F. Morrison,  
 J. W. Mullinax,  K. Nanda,  T. S. Nguyen-Beck,  R. Olivares-Amaya,  
 J. A. Parkhill,  T. M. Perrine,  F. Plasser,  P. Pokhilko,  S. Prager,  
 A. Prociuk,  E. Ramos,  D. R. Rehn,  F. Rob,  M. Schneider,  N. Sergueev,  
 S. M. Sharada,  S. Sharma,  D. W. Small,  T. Stauch,  T. Stein,  
 Yu-Chuan Su,  A. J. W. Thom,  A. Tkatchenko,  T. Tsuchimochi,  N. M. Tubman,  
 L. Vogt,  M. L. Vidal,  O. Vydrov,  M. A. Watson,  J. Wenzel,  
 M. de Wergifosse,  T. A. Wesolowski,  A. White,  J. Witte,  A. Yamada,  
 Jun Yang,  K. Yao,  S. Yeganeh,  S. R. Yost,  Zhi-Qiang You,  A. Zech,  
 Igor Ying Zhang,  Xing Zhang,  Yan Zhao,  Ying Zhu,  B. R. Brooks,  
 G. K. L. Chan,  C. J. Cramer,  M. S. Gordon,  W. J. Hehre,  A. Klamt,  
 M. W. Schmidt,  C. D. Sherrill,  D. G. Truhlar,  A. Aspuru-Guzik,  R. Baer,  
 A. T. Bell,  N. A. Besley,  Jeng-Da Chai,  A. E. DePrince, III,  
 R. A. DiStasio Jr.,  A. Dreuw,  B. D. Dunietz,  T. R. Furlani,  
 Chao-Ping Hsu,  Yousung Jung,  Jing Kong,  D. S. Lambrecht,  WanZhen Liang,  
 C. Ochsenfeld,  V. A. Rassolov,  L. V. Slipchenko,  J. E. Subotnik,  
 T. Van Voorhis,  J. M. Herbert,  A. I. Krylov,  P. M. W. Gill,  M. Head-Gordon

 Contributors to earlier versions of Q-Chem not listed above: 
 R. D. Adamson,  B. Austin,  J. Baker,  G. J. O. Beran,  K. Brandhorst,  
 S. T. Brown,  E. F. C. Byrd,  A. K. Chakraborty,  C.-L. Cheng,  
 Siu Hung Chien,  D. M. Chipman,  D. L. Crittenden,  H. Dachsel,  
 R. J. Doerksen,  A. D. Dutoi,  L. Fusti-Molnar,  W. A. Goddard III,  
 A. Golubeva-Zadorozhnaya,  S. R. Gwaltney,  G. Hawkins,  A. Heyden,  
 S. Hirata,  G. Kedziora,  F. J. Keil,  C. Kelley,  Jihan Kim,  R. A. King,  
 R. Z. Khaliullin,  P. P. Korambath,  W. Kurlancheek,  A. M. Lee,  M. S. Lee,  
 S. V. Levchenko,  Ching Yeh Lin,  D. Liotard,  R. C. Lochan,  I. Lotan,  
 P. E. Maslen,  N. Nair,  D. P. O'Neill,  D. Neuhauser,  E. Neuscamman,  
 C. M. Oana,  R. Olson,  B. Peters,  R. Peverati,  P. A. Pieniazek,  
 Y. M. Rhee,  J. Ritchie,  M. A. Rohrdanz,  E. Rosta,  N. J. Russ,  
 H. F. Schaefer III,  N. E. Schultz,  N. Shenvi,  A. C. Simmonett,  A. Sodt,  
 D. Stuck,  K. S. Thanthiriwatte,  V. Vanovschi,  Tao Wang,  A. Warshel,  
 C. F. Williams,  Q. Wu,  X. Xu,  W. Zhang

 Please cite Q-Chem as follows:
 Y. Shao et al., Mol. Phys. 113, 184-215 (2015)
 DOI: 10.1080/00268976.2014.952696

 Q-Chem 5.1.1 for Intel X86 EM64T Linux

 Parts of Q-Chem use Armadillo 8.300.2 (Tropical Shenanigans).
 http://arma.sourceforge.net/

 Q-Chem begins on Tue Mar 12 01:58:38 2019  

Host: 
0

     Scratch files written to /staging/scratch/2858534/qchem25834//
 Aug318 |scratch|qcdevops|jenkins|workspace|build_RNUM 6013   
Processing $rem in /usr/usc/qchem/5.1.1/config/preferences.
 MEM_TOTAL  2000 
Input Ideriv = 2
Curr. Ideriv = -1
Max.  Ideriv = 2

Checking the input file for inconsistencies... 	...done.

--------------------------------------------------------------
User input:
--------------------------------------------------------------

$comment
potential surface scanner
$end

$rem
JOBTYPE  PES_SCAN
UNRESTRICTED TRUE
SYM_IGNORE  TRUE
GEOM_OPT_MAX_CYCLES 400
SCF_MAX_CYCLES 400
METHOD   B3LYP
BASIS   6-31G**
PDB_PRINT 2
SCF_CONVERGENCE 6
THRESH 14
SCF_PRINT 1
$end
$molecule
0 1
Cl -1.434805 1.690322 0.277556
Cl 1.974614 -0.033095 0.597574
C -0.539255 -0.372131 -0.561658
C 0.892358 -0.049865 -0.840279
C -0.939399 -1.377272 0.458059
H -1.149776 -0.318745 -1.460707
H 1.277125 -0.831136 -1.510574
H 0.983103 0.913225 -1.339716
H -0.481376 -1.170876 1.425876
H -2.023472 -1.423105 0.560491
H -0.578816 -2.361920 0.118175
$end
$scan
stre 1 3 2.500000 2.501000 0.100000
$end
--------------------------------------------------------------
 ----------------------------------------------------------------
             Standard Nuclear Orientation (Angstroms)
    I     Atom           X                Y                Z
 ----------------------------------------------------------------
    1      Cl     -1.4348050000     1.6903220000     0.2775560000
    2      Cl      1.9746140000    -0.0330950000     0.5975740000
    3      C      -0.5392550000    -0.3721310000    -0.5616580000
    4      C       0.8923580000    -0.0498650000    -0.8402790000
    5      C      -0.9393990000    -1.3772720000     0.4580590000
    6      H      -1.1497760000    -0.3187450000    -1.4607070000
    7      H       1.2771250000    -0.8311360000    -1.5105740000
    8      H       0.9831030000     0.9132250000    -1.3397160000
    9      H      -0.4813760000    -1.1708760000     1.4258760000
   10      H      -2.0234720000    -1.4231050000     0.5604910000
   11      H      -0.5788160000    -2.3619200000     0.1181750000
 ----------------------------------------------------------------
 Nuclear Repulsion Energy =   266.2516209292 hartrees
 There are       29 alpha and       29 beta electrons
 Requested basis set is 6-31G(d,p)
 There are 40 shells and 113 basis functions

 Total QAlloc Memory Limit   2000 MB
 Mega-Array Size       188 MB
 MEM_STATIC part       192 MB
A total of 1 constraints
  
            1
    1   1.0100000
    2   1.0100000
    3   3.0100000
    4   2.5000000
    5   2.5010000
    6   0.1000000
    7   0.0000000
    8   0.0000000
    9   0.0000000
   10   0.0000000

                       Distance Matrix (Angstroms)
             Cl(  1)   Cl(  2)   C (  3)   C (  4)   C (  5)   H (  6)
   Cl(  2)  3.833630
   C (  3)  2.400000  2.788961
   C (  4)  3.113438  1.799717  1.493654
   C (  5)  3.112578  3.212125  1.486690  2.608261
   H (  6)  2.671919  3.752323  1.088060  2.151171  2.201454
   H (  7)  4.112143  2.359586  2.100087  1.098966  3.014425  2.480903
   H (  8)  3.010935  2.373122  2.138946  1.088675  3.489181  2.466082
   H (  9)  3.227092  2.830639  2.142810  2.877372  1.090438  3.083058
   H ( 10)  3.181196  4.232989  2.136976  3.514258  1.089866  2.463371
   H ( 11)  4.144730  3.489019  2.103093  2.903203  1.102303  2.644509
             H (  7)   H (  8)   H (  9)   H ( 10)
   H (  8)  1.777199
   H (  9)  3.439548  3.759877
   H ( 10)  3.941279  4.255434  1.786217
   H ( 11)  2.905278  3.910449  1.771486  1.778777
 
 A cutoff of  1.0D-14 yielded    785 shell pairs
 There are      6453 function pairs
 
 -------------------------------------------------------
 OpenMP Integral Computing Module                       
 Release: version 1.0, May 2013, Q-Chem Inc. Pittsburgh 
 -------------------------------------------------------
 Integral Job Info:
 Integral job number is                      11
 Integral operator is                         1
 short-range coefficients                     0
 long-range coefficients              100000000
 Omega coefficients                           0
 if combine SR and LR in K                    0
 Integral screening is                        0
 Integral computing path is                   2
 max size of driver memory is            800000
 size of driver memory is                593474
 size of scratch memory is             15267112
 max col of scratch BK array               1296
 max len of scratch array in speh3          155
 max len of scratch index in speh4           18
 max int batch size is                      520
 min int batch size is                       52
 fixed nKL is                                52
 max L of basis functions is                  2
 order of int derivative is                   0
 number of shells is                         40
 number of basis is                         113
 number of cartesian basis is               113
 number of contracted shell pairs           785
 number of primitive shell pairs           3165
 maxK2 (contraction) of shell pair           36
 max number of K2 of shell pair               1
 max number of CS2 of shell pair             60
 max number of PS2 of shell pair            330
 mem total for path MDJ                  519084
 -------------------------------------------------------
 Smallest overlap matrix eigenvalue = 5.91E-03

 Scale SEOQF with 1.000000e-01/1.000000e-01/1.000000e+00

 Standard Electronic Orientation quadrupole field applied
 Nucleus-field energy     =    -0.0000000156 hartrees
 Guess from superposition of atomic densities
 Warning:  Energy on first SCF cycle will be non-variational
 SAD guess density has 58.000000 electrons

 -----------------------------------------------------------------------
  General SCF calculation program by
  Eric Jon Sundstrom, Paul Horn, Yuezhi Mao, Dmitri Zuev, Alec White,
  David Stuck, Shaama M.S., Shane Yost, Joonho Lee, David Small,
  Daniel Levine, Susi Lehtola, Hugh Burton, Evgeny Epifanovsky
 -----------------------------------------------------------------------
 Exchange:     0.2000 Hartree-Fock + 0.0800 Slater + 0.7200 B88
 Correlation:  0.1900 VWN1RPA + 0.8100 LYP
 Using SG-1 standard quadrature grid
 using 12 threads for integral computing
 -------------------------------------------------------
 OpenMP Integral computing Module                
 Release: version 1.0, May 2013, Q-Chem Inc. Pittsburgh 
 -------------------------------------------------------
 -------------------------------------------------------
 OpenMP BLAS3 based DFT computing Module                
 Release: version 1.0, May 2013, Q-Chem Inc. Pittsburgh 
 -------------------------------------------------------
 A unrestricted SCF calculation will be
 performed using DIIS
 SCF converges when DIIS error is below 1.0e-06
 Alpha HF Exchange    Energy =  -7.27788899394766
 Beta HF Exchange     Energy =  -7.27788899394766
 DFT Correlation      Energy =  -2.76306642685302
 DFT Exchange         Energy = -57.34027248992969
 One-Electron (alpha) Energy = -977.36289859897363
 One-Electron (beta)  Energy = -977.36289859897363
 Total Coulomb        Energy = 724.43977048247280
 ---------------------------------------
  Cycle       Energy         DIIS error
 ---------------------------------------
    1   -1038.6935227066      2.70e-02  
 Alpha HF Exchange    Energy =  -7.29219573207744
 Beta HF Exchange     Energy =  -7.29219573207745
 DFT Correlation      Energy =  -2.78558641151918
 DFT Exchange         Energy = -57.86578958932263
 One-Electron (alpha) Energy = -980.87421038920718
 One-Electron (beta)  Energy = -980.87421038920775
 Total Coulomb        Energy = 732.49903849532029
    2   -1038.2335288345      2.97e-03  
 Alpha HF Exchange    Energy =  -7.23494532615176
 Beta HF Exchange     Energy =  -7.23494532615176
 DFT Correlation      Energy =  -2.76811655824728
 DFT Exchange         Energy = -57.42525539427177
 One-Electron (alpha) Energy = -977.26183221804456
 One-Electron (beta)  Energy = -977.26183221804490
 Total Coulomb        Energy = 724.81026473695431
    3   -1038.1250413904      4.76e-03  
 Alpha HF Exchange    Energy =  -7.25939643918414
 Beta HF Exchange     Energy =  -7.25939643918414
 DFT Correlation      Energy =  -2.77301253454317
 DFT Exchange         Energy = -57.59666295716769
 One-Electron (alpha) Energy = -978.78150687481650
 One-Electron (beta)  Energy = -978.78150687481627
 Total Coulomb        Energy = 727.91240034580755
    4   -1038.2874608603      1.45e-03  
 Alpha HF Exchange    Energy =  -7.26188121380539
 Beta HF Exchange     Energy =  -7.26188121380539
 DFT Correlation      Energy =  -2.77614183128430
 DFT Exchange         Energy = -57.63033358453201
 One-Electron (alpha) Energy = -979.10917470812785
 One-Electron (beta)  Energy = -979.10917470812831
 Total Coulomb        Energy = 728.59353644449698
    5   -1038.3034299016      2.69e-04  
 Alpha HF Exchange    Energy =  -7.26267993334309
 Beta HF Exchange     Energy =  -7.26267993334309
 DFT Correlation      Energy =  -2.77599699014218
 DFT Exchange         Energy = -57.63489994722019
 One-Electron (alpha) Energy = -979.12557330487732
 One-Electron (beta)  Energy = -979.12557330487721
 Total Coulomb        Energy = 728.63183318581457
    6   -1038.3039493144      6.41e-05  
 Alpha HF Exchange    Energy =  -7.26239917181965
 Beta HF Exchange     Energy =  -7.26239917181965
 DFT Correlation      Energy =  -2.77593855615855
 DFT Exchange         Energy = -57.63257578103902
 One-Electron (alpha) Energy = -979.10700370995062
 One-Electron (beta)  Energy = -979.10700370995096
 Total Coulomb        Energy = 728.59172489381262
    7   -1038.3039742933      1.92e-05  
 Alpha HF Exchange    Energy =  -7.26244298621416
 Beta HF Exchange     Energy =  -7.26244298621417
 DFT Correlation      Energy =  -2.77594239358637
 DFT Exchange         Energy = -57.63285983324906
 One-Electron (alpha) Energy = -979.11063385319858
 One-Electron (beta)  Energy = -979.11063385319892
 Total Coulomb        Energy = 728.59935827367508
    8   -1038.3039767184      3.93e-06  
 Alpha HF Exchange    Energy =  -7.26246253711241
 Beta HF Exchange     Energy =  -7.26246253711240
 DFT Correlation      Energy =  -2.77594848447399
 DFT Exchange         Energy = -57.63300487991221
 One-Electron (alpha) Energy = -979.11228238437241
 One-Electron (beta)  Energy = -979.11228238437150
 Total Coulomb        Energy = 728.60284547244964
    9   -1038.3039768213      9.85e-07  Convergence criterion met
 ---------------------------------------
 SCF time:   CPU 24.09s  wall 2.00s 
<S^2> =         -0.000000000
 Alpha HF Exchange    Energy =  -7.26246253711241
 Beta HF Exchange     Energy =  -7.26246253711240
 DFT Correlation      Energy =  -2.77594848447399
 DFT Exchange         Energy = -57.63300487991221
 One-Electron (alpha) Energy = -979.11228238437241
 One-Electron (beta)  Energy = -979.11228238437150
 Total Coulomb        Energy = 728.60284547244964
 Nuclear repulsion Energy = 266.25162091360096
 SCF   energy in the final basis set =    -1038.3039768213
 Total energy in the final basis set =    -1038.3039768213
 
 --------------------------------------------------------------
 
                    Orbital Energies (a.u.)
 --------------------------------------------------------------
 
 Alpha MOs
 -- Occupied --
*******-101.498 -10.306 -10.282 -10.220  -9.471  -9.411  -7.235
 -7.225  -7.225  -7.174  -7.166  -7.166  -0.890  -0.814  -0.740
 -0.725  -0.607  -0.514  -0.497  -0.461  -0.440  -0.417  -0.400
 -0.321  -0.319  -0.302  -0.270  -0.269
 -- Virtual --
 -0.102   0.008   0.066   0.109   0.119   0.130   0.144   0.160
  0.195   0.229   0.381   0.386   0.411   0.431   0.436   0.456
  0.487   0.491   0.516   0.529   0.570   0.597   0.613   0.647
  0.660   0.680   0.735   0.772   0.798   0.828   0.839   0.856
  0.876   0.880   0.887   0.918   0.931   0.932   0.943   0.964
  1.002   1.019   1.044   1.171   1.285   1.335   1.383   1.425
  1.541   1.661   1.773   1.835   1.857   1.862   1.996   2.013
  2.036   2.059   2.068   2.110   2.196   2.243   2.303   2.377
  2.467   2.511   2.576   2.621   2.692   2.714   2.801   2.840
  2.889   3.171   3.214   3.316   3.378   3.423   3.425   4.142
  4.273   4.284   4.419   4.547
 
 Beta MOs
 -- Occupied --
*******-101.498 -10.306 -10.282 -10.220  -9.471  -9.411  -7.235
 -7.225  -7.225  -7.174  -7.166  -7.166  -0.890  -0.814  -0.740
 -0.725  -0.607  -0.514  -0.497  -0.461  -0.440  -0.417  -0.400
 -0.321  -0.319  -0.302  -0.270  -0.269
 -- Virtual --
 -0.102   0.008   0.066   0.109   0.119   0.130   0.144   0.160
  0.195   0.229   0.381   0.386   0.411   0.431   0.436   0.456
  0.487   0.491   0.516   0.529   0.570   0.597   0.613   0.647
  0.660   0.680   0.735   0.772   0.798   0.828   0.839   0.856
  0.876   0.880   0.887   0.918   0.931   0.932   0.943   0.964
  1.002   1.019   1.044   1.171   1.285   1.335   1.383   1.425
  1.541   1.661   1.773   1.835   1.857   1.862   1.996   2.013
  2.036   2.059   2.068   2.110   2.196   2.243   2.303   2.377
  2.467   2.511   2.576   2.621   2.692   2.714   2.801   2.840
  2.889   3.171   3.214   3.316   3.378   3.423   3.425   4.142
  4.273   4.284   4.419   4.547
 --------------------------------------------------------------
 
          Ground-State Mulliken Net Atomic Charges

     Atom                 Charge (a.u.)    Spin (a.u.)
  --------------------------------------------------------
      1 Cl                   -0.354938       0.000000
      2 Cl                   -0.039986       0.000000
      3 C                    -0.022259      -0.000000
      4 C                    -0.289967      -0.000000
      5 C                    -0.323413       0.000000
      6 H                     0.181763       0.000000
      7 H                     0.174112      -0.000000
      8 H                     0.204932       0.000000
      9 H                     0.177406      -0.000000
     10 H                     0.157476       0.000000
     11 H                     0.134872      -0.000000
  --------------------------------------------------------
  Sum of atomic charges =    -0.000000
  Sum of spin   charges =    -0.000000

 -----------------------------------------------------------------
                    Cartesian Multipole Moments
 -----------------------------------------------------------------
    Charge (ESU x 10^10)
                -0.0000
    Dipole Moment (Debye)
         X       0.7404      Y      -4.1648      Z      -2.6309
       Tot       4.9815
    Quadrupole Moments (Debye-Ang)
        XX     -49.1673     XY       5.3225     YY     -47.4748
        XZ      -0.8528     YZ      -0.7282     ZZ     -41.8665
    Octopole Moments (Debye-Ang^2)
       XXX      -5.8003    XXY     -16.2222    XYY       2.5985
       YYY     -36.2144    XXZ      -6.9205    XYZ       0.6641
       YYZ      -6.2188    XZZ       0.7900    YZZ     -10.7152
       ZZZ     -17.4812
    Hexadecapole Moments (Debye-Ang^3)
      XXXX    -614.8893   XXXY      79.3183   XXYY    -169.0876
      XYYY      72.1587   YYYY    -379.0347   XXXZ      -4.4203
      XXYZ      -1.9101   XYYZ      -7.3413   YYYZ      -4.8817
      XXZZ    -117.3127   XYZZ      22.9071   YYZZ     -87.8207
      XZZZ      -4.6657   YZZZ      -7.9120   ZZZZ    -144.0977
 -----------------------------------------------------------------
 Calculating analytic gradient of the SCF energy
 Gradient of SCF Energy
            1           2           3           4           5           6
    1  -0.0163235   0.0000095   0.0163252  -0.0000387   0.0000154  -0.0000083
    2   0.0374454   0.0000333  -0.0374317  -0.0000321  -0.0000754   0.0000098
    3   0.0151735   0.0000156  -0.0151417  -0.0000840  -0.0000660   0.0000050
            7           8           9          10          11
    1  -0.0000028  -0.0000057   0.0000004   0.0000121   0.0000164
    2  -0.0000059   0.0000104   0.0000108   0.0000233   0.0000120
    3   0.0000155   0.0000182   0.0000158   0.0000440   0.0000042
 Max gradient component =       3.745E-02
 RMS gradient           =       1.072E-02
 Gradient time:  CPU 9.34 s  wall 0.79 s
 Geometry Optimization Parameters
   NAtoms,    NIC,     NZ,  NCons,   NDum,   NFix, NCnnct, MaxDiis
       11      68       0       1       0       0       0       0


** CONSTRAINED OPTIMIZATION IN DELOCALIZED INTERNAL COORDINATES **
   Searching for a Minimum

   Optimization Cycle:   1

                       Coordinates (Angstroms)
     ATOM                X               Y               Z
      1  Cl       -1.4348050000    1.6903220000    0.2775560000
      2  Cl        1.9746140000   -0.0330950000    0.5975740000
      3  C        -0.5392550000   -0.3721310000   -0.5616580000
      4  C         0.8923580000   -0.0498650000   -0.8402790000
      5  C        -0.9393990000   -1.3772720000    0.4580590000
      6  H        -1.1497760000   -0.3187450000   -1.4607070000
      7  H         1.2771250000   -0.8311360000   -1.5105740000
      8  H         0.9831030000    0.9132250000   -1.3397160000
      9  H        -0.4813760000   -1.1708760000    1.4258760000
     10  H        -2.0234720000   -1.4231050000    0.5604910000
     11  H        -0.5788160000   -2.3619200000    0.1181750000
   Point Group: c1    Number of degrees of freedom:    27


   Energy is  -1038.303976821

              Constraints and their Current Values
                                        Value     Constraint
   Distance(Angs):        1   3             2.400000     2.500000

 Attempting to Generate Delocalized Internal Coordinates

   Using Lagrange Multiplier Algorithm


 28 Hessian modes will be used to form the next step
  Hessian Eigenvalues:
    -0.968815    0.045000    0.045000    0.061827    0.079799    0.081643
     0.082131    0.085876    0.087399    0.137773    0.160000    0.160000
     0.160000    0.160000    0.160000    0.188535    0.223929    0.225382
     0.261390    0.330524    0.334287    0.337968    0.338149    0.347621
     0.348282    0.349662    0.350378    1.032188

 Minimum Search - Taking P-RFO Step
 Searching for Lamda that Maximizes Along the Constraint modes Only
 Value Taken    Lamda =   0.02766901
 Searching for Lamda that Minimizes Along All other modes
 Value Taken    Lamda =  -0.00963512
 Step Taken.  Stepsize is  0.185021

                             Maximum     Tolerance    Cnvgd?
         Gradient            0.188972       0.000300      NO
         Displacement        0.185016       0.001200      NO
         Energy change     *********       0.000001      NO


 New Cartesian Coordinates Obtained by Inverse Iteration

 Displacement from previous Coordinates is:  0.174851
 ----------------------------------------------------------------
             Standard Nuclear Orientation (Angstroms)
    I     Atom           X                Y                Z
 ----------------------------------------------------------------
    1      Cl     -1.4710734302     1.7660114806     0.3032179016
    2      Cl      1.9761200876    -0.0363485312     0.5965429562
    3      C      -0.5356429075    -0.3810036517    -0.5655931701
    4      C       0.8959564304    -0.0572742893    -0.8427724303
    5      C      -0.9358776173    -1.3846013256     0.4556259016
    6      H      -1.1449832172    -0.3302149670    -1.4655933979
    7      H       1.2827999126    -0.8392116513    -1.5111000704
    8      H       0.9860275878     0.9049643864    -1.3439850420
    9      H      -0.4794725199    -1.1756215649     1.4236408767
   10      H      -2.0200414168    -1.4318010169     0.5564913789
   11      H      -0.5735119095    -2.3694968690     0.1183220956
 ----------------------------------------------------------------
 Nuclear Repulsion Energy =   263.3446333078 hartrees
 There are       29 alpha and       29 beta electrons

                       Distance Matrix (Angstroms)
             Cl(  1)   Cl(  2)   C (  3)   C (  4)   C (  5)   H (  6)
   Cl(  2)  3.900985
   C (  3)  2.497907  2.788961
   C (  4)  3.200077  1.799672  1.493689
   C (  5)  3.199379  3.212067  1.486703  2.608304
   H (  6)  2.762099  3.752339  1.088060  2.151241  2.201486
   H (  7)  4.202708  2.359543  2.100160  1.098970  3.014629  2.480984
   H (  8)  3.080913  2.373184  2.138946  1.088683  3.489188  2.466103
   H (  9)  3.300277  2.830542  2.142808  2.877349  1.090427  3.083065
   H ( 10)  3.254461  4.232989  2.136981  3.514300  1.089868  2.463340
   H ( 11)  4.235827  3.488968  2.103159  2.903345  1.102317  2.644624
             H (  7)   H (  8)   H (  9)   H ( 10)
   H (  8)  1.777119
   H (  9)  3.439692  3.759825
   H ( 10)  3.941428  4.255436  1.786317
   H ( 11)  2.905630  3.910576  1.771451  1.778683
 
 Applying Cartesian multipole field
    Component          Value
    ---------          -----
     (2,0,0)        1.00000E-11
     (0,2,0)        2.00000E-11
     (0,0,2)       -3.00000E-10
 Nucleus-field energy     =    -0.0000000155 hartrees
 Requested basis set is 6-31G(d,p)
 There are 40 shells and 113 basis functions
 A cutoff of  1.0D-14 yielded    783 shell pairs
 There are      6445 function pairs
 Smallest overlap matrix eigenvalue = 5.99E-03
 Guess from superposition of atomic densities
 Warning:  Energy on first SCF cycle will be non-variational
 SAD guess density has 58.000000 electrons

 -----------------------------------------------------------------------
  General SCF calculation program by
  Eric Jon Sundstrom, Paul Horn, Yuezhi Mao, Dmitri Zuev, Alec White,
  David Stuck, Shaama M.S., Shane Yost, Joonho Lee, David Small,
  Daniel Levine, Susi Lehtola, Hugh Burton, Evgeny Epifanovsky
 -----------------------------------------------------------------------
 Exchange:     0.2000 Hartree-Fock + 0.0800 Slater + 0.7200 B88
 Correlation:  0.1900 VWN1RPA + 0.8100 LYP
 Using SG-1 standard quadrature grid
 using 12 threads for integral computing
 -------------------------------------------------------
 OpenMP Integral computing Module                
 Release: version 1.0, May 2013, Q-Chem Inc. Pittsburgh 
 -------------------------------------------------------
 -------------------------------------------------------
 OpenMP BLAS3 based DFT computing Module                
 Release: version 1.0, May 2013, Q-Chem Inc. Pittsburgh 
 -------------------------------------------------------
 A unrestricted SCF calculation will be
 performed using DIIS
 SCF converges when DIIS error is below 1.0e-06
 Alpha HF Exchange    Energy =  -7.27545037257883
 Beta HF Exchange     Energy =  -7.27545037257883
 DFT Correlation      Energy =  -2.76156605815114
 DFT Exchange         Energy = -57.33583564012532
 One-Electron (alpha) Energy = -974.45725287340463
 One-Electron (beta)  Energy = -974.45725287340463
 Total Coulomb        Energy = 721.54420508021826
 ---------------------------------------
  Cycle       Energy         DIIS error
 ---------------------------------------
    1   -1038.6739698177      2.69e-02  
 Alpha HF Exchange    Energy =  -7.29218766357892
 Beta HF Exchange     Energy =  -7.29218766357892
 DFT Correlation      Energy =  -2.78423716351459
 DFT Exchange         Energy = -57.86474671577881
 One-Electron (alpha) Energy = -978.00182383431309
 One-Electron (beta)  Energy = -978.00182383431297
 Total Coulomb        Energy = 729.67546050349540
    2   -1038.2169130793      3.06e-03  
 Alpha HF Exchange    Energy =  -7.23311745070963
 Beta HF Exchange     Energy =  -7.23311745070965
 DFT Correlation      Energy =  -2.76691586842136
 DFT Exchange         Energy = -57.41369235659798
 One-Electron (alpha) Energy = -974.20780545430046
 One-Electron (beta)  Energy = -974.20780545430114
 Total Coulomb        Energy = 721.70564828392310
    3   -1038.0121724588      5.83e-03  
 Alpha HF Exchange    Energy =  -7.25651501219552
 Beta HF Exchange     Energy =  -7.25651501219553
 DFT Correlation      Energy =  -2.77074632883607
 DFT Exchange         Energy = -57.57470830747774
 One-Electron (alpha) Energy = -975.74586045856643
 One-Electron (beta)  Energy = -975.74586045856688
 Total Coulomb        Energy = 724.73159737316428
    4   -1038.2739749124      1.66e-03  
 Alpha HF Exchange    Energy =  -7.26023949304589
 Beta HF Exchange     Energy =  -7.26023949304590
 DFT Correlation      Energy =  -2.77470271832161
 DFT Exchange         Energy = -57.62151321572448
 One-Electron (alpha) Energy = -976.18510585829893
 One-Electron (beta)  Energy = -976.18510585829927
 Total Coulomb        Energy = 725.64719414178739
    5   -1038.2950792027      3.13e-04  
 Alpha HF Exchange    Energy =  -7.26128753808435
 Beta HF Exchange     Energy =  -7.26128753808435
 DFT Correlation      Energy =  -2.77458522641784
 DFT Exchange         Energy = -57.62778644535291
 One-Electron (alpha) Energy = -976.21482584224520
 One-Electron (beta)  Energy = -976.21482584224509
 Total Coulomb        Energy = 725.71418005275461
    6   -1038.2957850874      8.04e-05  
 Alpha HF Exchange    Energy =  -7.26094320506723
 Beta HF Exchange     Energy =  -7.26094320506724
 DFT Correlation      Energy =  -2.77450542838957
 DFT Exchange         Energy = -57.62487415221788
 One-Electron (alpha) Energy = -976.19083987752379
 One-Electron (beta)  Energy = -976.19083987752470
 Total Coulomb        Energy = 725.66248804016141
    7   -1038.2958244133      2.46e-05  
 Alpha HF Exchange    Energy =  -7.26100266483664
 Beta HF Exchange     Energy =  -7.26100266483664
 DFT Correlation      Energy =  -2.77450847043596
 DFT Exchange         Energy = -57.62523143889932
 One-Electron (alpha) Energy = -976.19538969336293
 One-Electron (beta)  Energy = -976.19538969336293
 Total Coulomb        Energy = 725.67206257983105
    8   -1038.2958287536      6.14e-06  
 Alpha HF Exchange    Energy =  -7.26103358152644
 Beta HF Exchange     Energy =  -7.26103358152644
 DFT Correlation      Energy =  -2.77451567598795
 DFT Exchange         Energy = -57.62544160658450
 One-Electron (alpha) Energy = -976.19765480220678
 One-Electron (beta)  Energy = -976.19765480220747
 Total Coulomb        Energy = 725.67687170639294
    9   -1038.2958290514      1.39e-06  
 Alpha HF Exchange    Energy =  -7.26102526244833
 Beta HF Exchange     Energy =  -7.26102526244834
 DFT Correlation      Energy =  -2.77451220747617
 DFT Exchange         Energy = -57.62536873589723
 One-Electron (alpha) Energy = -976.19669419501395
 One-Electron (beta)  Energy = -976.19669419501452
 Total Coulomb        Energy = 725.67485750224796
   10   -1038.2958290638      3.34e-07  Convergence criterion met
 ---------------------------------------
 SCF time:   CPU 25.96s  wall 3.00s 
<S^2> =         -0.000000000
 Alpha HF Exchange    Energy =  -7.26102526244833
 Beta HF Exchange     Energy =  -7.26102526244834
 DFT Correlation      Energy =  -2.77451220747617
 DFT Exchange         Energy = -57.62536873589723
 One-Electron (alpha) Energy = -976.19669419501395
 One-Electron (beta)  Energy = -976.19669419501452
 Total Coulomb        Energy = 725.67485750224796
 Nuclear repulsion Energy = 263.34463329229129
 SCF   energy in the final basis set =    -1038.2958290638
 Total energy in the final basis set =    -1038.2958290638
 
 --------------------------------------------------------------
 
                    Orbital Energies (a.u.)
 --------------------------------------------------------------
 
 Alpha MOs
 -- Occupied --
*******-101.494 -10.311 -10.286 -10.223  -9.473  -9.406  -7.237
 -7.227  -7.227  -7.170  -7.161  -7.161  -0.892  -0.816  -0.735
 -0.727  -0.610  -0.517  -0.499  -0.463  -0.442  -0.419  -0.402
 -0.322  -0.320  -0.296  -0.265  -0.264
 -- Virtual --
 -0.114   0.006   0.064   0.106   0.116   0.128   0.143   0.158
  0.193   0.227   0.381   0.386   0.410   0.431   0.434   0.454
  0.488   0.491   0.516   0.529   0.568   0.599   0.616   0.638
  0.658   0.677   0.731   0.774   0.798   0.827   0.835   0.854
  0.874   0.881   0.885   0.920   0.933   0.935   0.942   0.959
  0.995   1.010   1.036   1.157   1.282   1.325   1.373   1.400
  1.536   1.654   1.769   1.832   1.852   1.857   1.993   2.010
  2.032   2.055   2.064   2.107   2.191   2.240   2.299   2.374
  2.462   2.506   2.572   2.617   2.688   2.711   2.798   2.837
  2.886   3.167   3.210   3.312   3.374   3.419   3.422   4.134
  4.270   4.285   4.415   4.535
 
 Beta MOs
 -- Occupied --
*******-101.494 -10.311 -10.286 -10.223  -9.473  -9.406  -7.237
 -7.227  -7.227  -7.170  -7.161  -7.161  -0.892  -0.816  -0.735
 -0.727  -0.610  -0.517  -0.499  -0.463  -0.442  -0.419  -0.402
 -0.322  -0.320  -0.296  -0.265  -0.264
 -- Virtual --
 -0.114   0.006   0.064   0.106   0.116   0.128   0.143   0.158
  0.193   0.227   0.381   0.386   0.410   0.431   0.434   0.454
  0.488   0.491   0.516   0.529   0.568   0.599   0.616   0.638
  0.658   0.677   0.731   0.774   0.798   0.827   0.835   0.854
  0.874   0.881   0.885   0.920   0.933   0.935   0.942   0.959
  0.995   1.010   1.036   1.157   1.282   1.325   1.373   1.400
  1.536   1.654   1.769   1.832   1.852   1.857   1.993   2.010
  2.032   2.055   2.064   2.107   2.191   2.240   2.299   2.374
  2.462   2.506   2.572   2.617   2.688   2.711   2.798   2.837
  2.886   3.167   3.210   3.312   3.374   3.419   3.422   4.134
  4.270   4.285   4.415   4.535
 --------------------------------------------------------------
 
          Ground-State Mulliken Net Atomic Charges

     Atom                 Charge (a.u.)    Spin (a.u.)
  --------------------------------------------------------
      1 Cl                   -0.383951       0.000000
      2 Cl                   -0.036649      -0.000000
      3 C                     0.001664       0.000000
      4 C                    -0.296481      -0.000000
      5 C                    -0.330057      -0.000000
      6 H                     0.181033       0.000000
      7 H                     0.176909       0.000000
      8 H                     0.208384       0.000000
      9 H                     0.180346       0.000000
     10 H                     0.160498      -0.000000
     11 H                     0.138303       0.000000
  --------------------------------------------------------
  Sum of atomic charges =    -0.000000
  Sum of spin   charges =    -0.000000

 -----------------------------------------------------------------
                    Cartesian Multipole Moments
 -----------------------------------------------------------------
    Charge (ESU x 10^10)
                -0.0000
    Dipole Moment (Debye)
         X       0.9469      Y      -4.5387      Z      -2.7313
       Tot       5.3811
    Quadrupole Moments (Debye-Ang)
        XX     -49.4140     XY       5.8902     YY     -47.9957
        XZ      -0.7653     YZ      -0.8506     ZZ     -41.7921
    Octopole Moments (Debye-Ang^2)
       XXX      -3.5146    XXY     -18.1120    XYY       4.0638
       YYY     -40.8482    XXZ      -7.3986    XYZ       0.9048
       YYZ      -6.7618    XZZ       1.4097    YZZ     -11.8267
       ZZZ     -18.5070
    Hexadecapole Moments (Debye-Ang^3)
      XXXX    -624.8763   XXXY      88.6831   XXYY    -175.9068
      XYYY      82.0758   YYYY    -403.7245   XXXZ      -2.1062
      XXYZ      -3.1142   XYYZ      -6.4501   YYYZ      -8.1930
      XXZZ    -118.9172   XYZZ      25.6284   YYZZ     -91.8457
      XZZZ      -2.6082   YZZZ     -10.8456   ZZZZ    -145.0071
 -----------------------------------------------------------------
 Calculating analytic gradient of the SCF energy
 Gradient of SCF Energy
            1           2           3           4           5           6
    1  -0.0166557   0.0000530   0.0132642   0.0014566   0.0008834   0.0009941
    2   0.0380212   0.0001665  -0.0313900  -0.0019452  -0.0032630  -0.0019710
    3   0.0154529   0.0002607  -0.0133490  -0.0021460  -0.0004377  -0.0006733
            7           8           9          10          11
    1   0.0003681   0.0000034  -0.0001455   0.0000601  -0.0002817
    2   0.0002396  -0.0001444   0.0001692   0.0001000   0.0000170
    3   0.0003333   0.0001865  -0.0000946   0.0000584   0.0004088
 Max gradient component =       3.802E-02
 RMS gradient           =       1.004E-02
 Gradient time:  CPU 9.18 s  wall 0.77 s
 Geometry Optimization Parameters
   NAtoms,    NIC,     NZ,  NCons,   NDum,   NFix, NCnnct, MaxDiis
       11      68       0       1       0       0       0       0

 Cartesian Hessian Update
 Hessian Updated using BFGS Update


** CONSTRAINED OPTIMIZATION IN DELOCALIZED INTERNAL COORDINATES **
   Searching for a Minimum

   Optimization Cycle:   2

                       Coordinates (Angstroms)
     ATOM                X               Y               Z
      1  Cl       -1.4710734302    1.7660114806    0.3032179016
      2  Cl        1.9761200876   -0.0363485312    0.5965429562
      3  C        -0.5356429075   -0.3810036517   -0.5655931701
      4  C         0.8959564304   -0.0572742893   -0.8427724303
      5  C        -0.9358776173   -1.3846013256    0.4556259016
      6  H        -1.1449832172   -0.3302149670   -1.4655933979
      7  H         1.2827999126   -0.8392116513   -1.5111000704
      8  H         0.9860275878    0.9049643864   -1.3439850420
      9  H        -0.4794725199   -1.1756215649    1.4236408767
     10  H        -2.0200414168   -1.4318010169    0.5564913789
     11  H        -0.5735119095   -2.3694968690    0.1183220956
   Point Group: c1    Number of degrees of freedom:    27


   Energy is  -1038.295829064

              Constraints and their Current Values
                                        Value     Constraint
   Distance(Angs):        1   3             2.497907     2.500000
 Hessian Updated using BFGS Update

   Using Lagrange Multiplier Algorithm


 25 Hessian modes will be used to form the next step
  Hessian Eigenvalues:
    -0.998229    0.045000    0.045091    0.078776    0.081077    0.081802
     0.085841    0.086927    0.098414    0.137826    0.160000    0.168117
     0.188731    0.224014    0.238804    0.261793    0.333702    0.334480
     0.337971    0.347580    0.348275    0.349539    0.350356    0.401480
     1.002324

 Minimum Search - Taking P-RFO Step
 Searching for Lamda that Maximizes Along the Constraint modes Only
 Value Taken    Lamda =   0.00001042
 Searching for Lamda that Minimizes Along All other modes
 Value Taken    Lamda =  -0.00014983
 Step Taken.  Stepsize is  0.021798

                             Maximum     Tolerance    Cnvgd?
         Gradient            0.008461       0.000300      NO
         Displacement        0.013666       0.001200      NO
         Energy change      0.008148       0.000001      NO


 New Cartesian Coordinates Obtained by Inverse Iteration

 Displacement from previous Coordinates is:  0.012330
 ----------------------------------------------------------------
             Standard Nuclear Orientation (Angstroms)
    I     Atom           X                Y                Z
 ----------------------------------------------------------------
    1      Cl     -1.4690517466     1.7643370015     0.3028276749
    2      Cl      1.9760731552    -0.0364123026     0.5966801828
    3      C      -0.5339111558    -0.3848681491    -0.5669003088
    4      C       0.8957444739    -0.0570102664    -0.8421827787
    5      C      -0.9361166346    -1.3841335269     0.4557808804
    6      H      -1.1449957505    -0.3301211845    -1.4655691519
    7      H       1.2829030757    -0.8378416653    -1.5119269242
    8      H       0.9837154479     0.9059590329    -1.3427236731
    9      H      -0.4794414857    -1.1747267591     1.4236744337
   10      H      -2.0204169419    -1.4301958680     0.5561344324
   11      H      -0.5742014375    -2.3695843126     0.1190022325
 ----------------------------------------------------------------
 Nuclear Repulsion Energy =   263.4309695167 hartrees
 There are       29 alpha and       29 beta electrons

                       Distance Matrix (Angstroms)
             Cl(  1)   Cl(  2)   C (  3)   C (  4)   C (  5)   H (  6)
   Cl(  2)  3.898453
   C (  3)  2.499999  2.788434
   C (  4)  3.196970  1.799406  1.492376
   C (  5)  3.196917  3.212017  1.485321  2.608003
   H (  6)  2.760253  3.752360  1.088130  2.151237  2.201399
   H (  7)  4.199753  2.359872  2.097397  1.099157  3.015685  2.480851
   H (  8)  3.075828  2.373631  2.138066  1.088848  3.487821  2.464629
   H (  9)  3.297533  2.830059  2.142249  2.876549  1.090514  3.082864
   H ( 10)  3.251647  4.232754  2.136262  3.513535  1.089908  2.462481
   H ( 11)  4.233657  3.489379  2.100282  2.903897  1.102504  2.645011
             H (  7)   H (  8)   H (  9)   H ( 10)
   H (  8)  1.777353
   H (  9)  3.440509  3.758063
   H ( 10)  3.942041  4.253010  1.786756
   H ( 11)  2.907749  3.910618  1.771675  1.779066
 
 Applying Cartesian multipole field
    Component          Value
    ---------          -----
     (2,0,0)        1.00000E-11
     (0,2,0)        2.00000E-11
     (0,0,2)       -3.00000E-10
 Nucleus-field energy     =    -0.0000000155 hartrees
 Requested basis set is 6-31G(d,p)
 There are 40 shells and 113 basis functions
 A cutoff of  1.0D-14 yielded    784 shell pairs
 There are      6449 function pairs
 Smallest overlap matrix eigenvalue = 5.96E-03
 Guess from superposition of atomic densities
 Warning:  Energy on first SCF cycle will be non-variational
 SAD guess density has 58.000000 electrons

 -----------------------------------------------------------------------
  General SCF calculation program by
  Eric Jon Sundstrom, Paul Horn, Yuezhi Mao, Dmitri Zuev, Alec White,
  David Stuck, Shaama M.S., Shane Yost, Joonho Lee, David Small,
  Daniel Levine, Susi Lehtola, Hugh Burton, Evgeny Epifanovsky
 -----------------------------------------------------------------------
 Exchange:     0.2000 Hartree-Fock + 0.0800 Slater + 0.7200 B88
 Correlation:  0.1900 VWN1RPA + 0.8100 LYP
 Using SG-1 standard quadrature grid
 using 12 threads for integral computing
 -------------------------------------------------------
 OpenMP Integral computing Module                
 Release: version 1.0, May 2013, Q-Chem Inc. Pittsburgh 
 -------------------------------------------------------
 -------------------------------------------------------
 OpenMP BLAS3 based DFT computing Module                
 Release: version 1.0, May 2013, Q-Chem Inc. Pittsburgh 
 -------------------------------------------------------
 A unrestricted SCF calculation will be
 performed using DIIS
 SCF converges when DIIS error is below 1.0e-06
 Alpha HF Exchange    Energy =  -7.27571137405586
 Beta HF Exchange     Energy =  -7.27571137405586
 DFT Correlation      Energy =  -2.76162973291166
 DFT Exchange         Energy = -57.33634325540626
 One-Electron (alpha) Energy = -974.54265267449580
 One-Electron (beta)  Energy = -974.54265267449580
 Total Coulomb        Energy = 721.62714633329858
 ---------------------------------------
  Cycle       Energy         DIIS error
 ---------------------------------------
    1   -1038.6765852509      2.69e-02  
 Alpha HF Exchange    Energy =  -7.29235385855468
 Beta HF Exchange     Energy =  -7.29235385855468
 DFT Correlation      Energy =  -2.78431960365847
 DFT Exchange         Energy = -57.86585528625589
 One-Electron (alpha) Energy = -978.09448389467343
 One-Electron (beta)  Energy = -978.09448389467298
 Total Coulomb        Energy = 729.77641421130704
    2   -1038.2164666838      3.07e-03  
 Alpha HF Exchange    Energy =  -7.23312772408561
 Beta HF Exchange     Energy =  -7.23312772408562
 DFT Correlation      Energy =  -2.76696806215215
 DFT Exchange         Energy = -57.41377111055984
 One-Electron (alpha) Energy = -974.28164832121661
 One-Electron (beta)  Energy = -974.28164832121695
 Total Coulomb        Energy = 721.77112488991213
    3   -1038.0081968722      5.86e-03  
 Alpha HF Exchange    Energy =  -7.25656191127047
 Beta HF Exchange     Energy =  -7.25656191127046
 DFT Correlation      Energy =  -2.77078863110473
 DFT Exchange         Energy = -57.57494308492406
 One-Electron (alpha) Energy = -975.82923387641165
 One-Electron (beta)  Energy = -975.82923387641074
 Total Coulomb        Energy = 724.81264793641242
    4   -1038.2737058537      1.66e-03  
 Alpha HF Exchange    Energy =  -7.26032277870285
 Beta HF Exchange     Energy =  -7.26032277870284
 DFT Correlation      Energy =  -2.77477011546238
 DFT Exchange         Energy = -57.62215181094265
 One-Electron (alpha) Energy = -976.27180504463286
 One-Electron (beta)  Energy = -976.27180504463229
 Total Coulomb        Energy = 725.73524352125742
    5   -1038.2949645506      3.14e-04  
 Alpha HF Exchange    Energy =  -7.26137212645985
 Beta HF Exchange     Energy =  -7.26137212645985
 DFT Correlation      Energy =  -2.77465141194136
 DFT Exchange         Energy = -57.62842714671115
 One-Electron (alpha) Energy = -976.30129127931912
 One-Electron (beta)  Energy = -976.30129127931934
 Total Coulomb        Energy = 725.80176273619679
    6   -1038.2956731328      8.09e-05  
 Alpha HF Exchange    Energy =  -7.26102921835656
 Beta HF Exchange     Energy =  -7.26102921835657
 DFT Correlation      Energy =  -2.77457218456753
 DFT Exchange         Energy = -57.62552348740163
 One-Electron (alpha) Energy = -976.27752581016455
 One-Electron (beta)  Energy = -976.27752581016534
 Total Coulomb        Energy = 725.75052313943786
    7   -1038.2957130883      2.49e-05  
 Alpha HF Exchange    Energy =  -7.26108855518655
 Beta HF Exchange     Energy =  -7.26108855518656
 DFT Correlation      Energy =  -2.77457495051503
 DFT Exchange         Energy = -57.62587754795108
 One-Electron (alpha) Energy = -976.28203444804444
 One-Electron (beta)  Energy = -976.28203444804524
 Total Coulomb        Energy = 725.76001148210287
    8   -1038.2957175216      6.26e-06  
 Alpha HF Exchange    Energy =  -7.26112003326672
 Beta HF Exchange     Energy =  -7.26112003326673
 DFT Correlation      Energy =  -2.77458218768894
 DFT Exchange         Energy = -57.62609070422204
 One-Electron (alpha) Energy = -976.28432892669809
 One-Electron (beta)  Energy = -976.28432892669844
 Total Coulomb        Energy = 725.76488347741042
    9   -1038.2957178332      1.40e-06  
 Alpha HF Exchange    Energy =  -7.26111169206927
 Beta HF Exchange     Energy =  -7.26111169206926
 DFT Correlation      Energy =  -2.77457869573707
 DFT Exchange         Energy = -57.62601749579386
 One-Electron (alpha) Energy = -976.28336260260483
 One-Electron (beta)  Energy = -976.28336260260448
 Total Coulomb        Energy = 725.76285743392384
   10   -1038.2957178457      3.37e-07  Convergence criterion met
 ---------------------------------------
 SCF time:   CPU 25.17s  wall 2.00s 
<S^2> =          0.000000000
 Alpha HF Exchange    Energy =  -7.26111169206927
 Beta HF Exchange     Energy =  -7.26111169206926
 DFT Correlation      Energy =  -2.77457869573707
 DFT Exchange         Energy = -57.62601749579386
 One-Electron (alpha) Energy = -976.28336260260483
 One-Electron (beta)  Energy = -976.28336260260448
 Total Coulomb        Energy = 725.76285743392384
 Nuclear repulsion Energy = 263.43096950124266
 SCF   energy in the final basis set =    -1038.2957178457
 Total energy in the final basis set =    -1038.2957178457
 
 --------------------------------------------------------------
 
                    Orbital Energies (a.u.)
 --------------------------------------------------------------
 
 Alpha MOs
 -- Occupied --
*******-101.493 -10.311 -10.286 -10.223  -9.473  -9.406  -7.237
 -7.227  -7.227  -7.169  -7.161  -7.161  -0.893  -0.816  -0.734
 -0.727  -0.610  -0.517  -0.500  -0.463  -0.443  -0.420  -0.403
 -0.322  -0.320  -0.295  -0.265  -0.264
 -- Virtual --
 -0.114   0.006   0.064   0.106   0.116   0.128   0.142   0.158
  0.193   0.228   0.381   0.386   0.410   0.431   0.434   0.454
  0.488   0.491   0.516   0.530   0.568   0.599   0.616   0.638
  0.659   0.677   0.731   0.774   0.798   0.827   0.835   0.854
  0.873   0.881   0.885   0.920   0.933   0.936   0.942   0.959
  0.995   1.010   1.036   1.158   1.281   1.325   1.373   1.400
  1.536   1.655   1.769   1.832   1.853   1.859   1.992   2.009
  2.032   2.055   2.064   2.108   2.191   2.240   2.299   2.374
  2.462   2.505   2.572   2.618   2.688   2.712   2.798   2.837
  2.887   3.167   3.210   3.312   3.374   3.419   3.422   4.134
  4.270   4.286   4.416   4.535
 
 Beta MOs
 -- Occupied --
*******-101.493 -10.311 -10.286 -10.223  -9.473  -9.406  -7.237
 -7.227  -7.227  -7.169  -7.161  -7.161  -0.893  -0.816  -0.734
 -0.727  -0.610  -0.517  -0.500  -0.463  -0.443  -0.420  -0.403
 -0.322  -0.320  -0.295  -0.265  -0.264
 -- Virtual --
 -0.114   0.006   0.064   0.106   0.116   0.128   0.142   0.158
  0.193   0.228   0.381   0.386   0.410   0.431   0.434   0.454
  0.488   0.491   0.516   0.530   0.568   0.599   0.616   0.638
  0.659   0.677   0.731   0.774   0.798   0.827   0.835   0.854
  0.873   0.881   0.885   0.920   0.933   0.936   0.942   0.959
  0.995   1.010   1.036   1.158   1.281   1.325   1.373   1.400
  1.536   1.655   1.769   1.832   1.853   1.859   1.992   2.009
  2.032   2.055   2.064   2.108   2.191   2.240   2.299   2.374
  2.462   2.505   2.572   2.618   2.688   2.712   2.798   2.837
  2.887   3.167   3.210   3.312   3.374   3.419   3.422   4.134
  4.270   4.286   4.416   4.535
 --------------------------------------------------------------
 
          Ground-State Mulliken Net Atomic Charges

     Atom                 Charge (a.u.)    Spin (a.u.)
  --------------------------------------------------------
      1 Cl                   -0.386175      -0.000000
      2 Cl                   -0.036144      -0.000000
      3 C                     0.002159       0.000000
      4 C                    -0.296528      -0.000000
      5 C                    -0.329905      -0.000000
      6 H                     0.181433      -0.000000
      7 H                     0.176789       0.000000
      8 H                     0.208740       0.000000
      9 H                     0.180566       0.000000
     10 H                     0.160809       0.000000
     11 H                     0.138256       0.000000
  --------------------------------------------------------
  Sum of atomic charges =     0.000000
  Sum of spin   charges =    -0.000000

 -----------------------------------------------------------------
                    Cartesian Multipole Moments
 -----------------------------------------------------------------
    Charge (ESU x 10^10)
                 0.0000
    Dipole Moment (Debye)
         X       0.9553      Y      -4.5561      Z      -2.7348
       Tot       5.3990
    Quadrupole Moments (Debye-Ang)
        XX     -49.4106     XY       5.9153     YY     -48.0150
        XZ      -0.7558     YZ      -0.8575     ZZ     -41.7832
    Octopole Moments (Debye-Ang^2)
       XXX      -3.5778    XXY     -18.1155    XYY       4.0742
       YYY     -40.8065    XXZ      -7.3859    XYZ       0.9127
       YYZ      -6.7718    XZZ       1.3787    YZZ     -11.8037
       ZZZ     -18.4940
    Hexadecapole Moments (Debye-Ang^3)
      XXXX    -624.2711   XXXY      88.5368   XXYY    -175.8236
      XYYY      81.9540   YYYY    -403.5099   XXXZ      -2.1198
      XXYZ      -3.1361   XYYZ      -6.4418   YYYZ      -8.2174
      XXZZ    -118.8223   XYZZ      25.5644   YYZZ     -91.7885
      XZZZ      -2.6518   YZZZ     -10.8543   ZZZZ    -144.9883
 -----------------------------------------------------------------
 Calculating analytic gradient of the SCF energy
 Gradient of SCF Energy
            1           2           3           4           5           6
    1  -0.0164679   0.0000647   0.0139963   0.0009835   0.0007575   0.0008146
    2   0.0377363   0.0001717  -0.0325526  -0.0016182  -0.0025254  -0.0017036
    3   0.0153627   0.0002555  -0.0134793  -0.0016873  -0.0005187  -0.0006379
            7           8           9          10          11
    1   0.0001492   0.0000070  -0.0001279  -0.0000010  -0.0001759
    2   0.0001370  -0.0000311   0.0001604   0.0001031   0.0001223
    3   0.0003155   0.0001079  -0.0000142   0.0000813   0.0002144
 Max gradient component =       3.774E-02
 RMS gradient           =       1.013E-02
 Gradient time:  CPU 9.27 s  wall 0.77 s
 Geometry Optimization Parameters
   NAtoms,    NIC,     NZ,  NCons,   NDum,   NFix, NCnnct, MaxDiis
       11      68       0       1       0       0       0       0

 Cartesian Hessian Update
 Hessian Updated using BFGS Update


** CONSTRAINED OPTIMIZATION IN DELOCALIZED INTERNAL COORDINATES **
   Searching for a Minimum

   Optimization Cycle:   3

                       Coordinates (Angstroms)
     ATOM                X               Y               Z
      1  Cl       -1.4690517466    1.7643370015    0.3028276749
      2  Cl        1.9760731552   -0.0364123026    0.5966801828
      3  C        -0.5339111558   -0.3848681491   -0.5669003088
      4  C         0.8957444739   -0.0570102664   -0.8421827787
      5  C        -0.9361166346   -1.3841335269    0.4557808804
      6  H        -1.1449957505   -0.3301211845   -1.4655691519
      7  H         1.2829030757   -0.8378416653   -1.5119269242
      8  H         0.9837154479    0.9059590329   -1.3427236731
      9  H        -0.4794414857   -1.1747267591    1.4236744337
     10  H        -2.0204169419   -1.4301958680    0.5561344324
     11  H        -0.5742014375   -2.3695843126    0.1190022325
   Point Group: c1    Number of degrees of freedom:    27


   Energy is  -1038.295717846

              Constraints and their Current Values
                                        Value     Constraint
   Distance(Angs):        1   3             2.499999     2.500000
 Hessian Updated using BFGS Update

 24 Hessian modes will be used to form the next step
  Hessian Eigenvalues:
     0.025416    0.045016    0.045539    0.079802    0.081733    0.082398
     0.085875    0.087266    0.137733    0.159964    0.160002    0.174682
     0.188527    0.221824    0.224080    0.260970    0.332843    0.334061
     0.337296    0.346259    0.347920    0.348864    0.350215    0.365902

 Minimum Search - Taking Simple RFO Step
 Searching for Lamda that Minimizes Along All modes
 Value Taken    Lamda =  -0.00022235
 Step Taken.  Stepsize is  0.090855

                             Maximum     Tolerance    Cnvgd?
         Gradient           0.001506      0.000300      NO
         Displacement       0.058750      0.001200      NO
         Energy change      0.000111      0.000001      NO


 New Cartesian Coordinates Obtained by Inverse Iteration

 Displacement from previous Coordinates is:  0.066095
 ----------------------------------------------------------------
             Standard Nuclear Orientation (Angstroms)
    I     Atom           X                Y                Z
 ----------------------------------------------------------------
    1      Cl     -1.4599578302     1.7511437567     0.2969434284
    2      Cl      1.9761464464    -0.0391694077     0.5960255931
    3      C      -0.5281558940    -0.3994607737    -0.5729087286
    4      C       0.8958704042    -0.0551452242    -0.8410073976
    5      C      -0.9380413380    -1.3829877327     0.4571785010
    6      H      -1.1472188600    -0.3256640341    -1.4645873954
    7      H       1.2898423209    -0.8270288794    -1.5188209810
    8      H       0.9747490011     0.9116191845    -1.3357365462
    9      H      -0.4790140155    -1.1706948780     1.4233121259
   10      H      -2.0224944541    -1.4230144898     0.5562117636
   11      H      -0.5814247808    -2.3741955217     0.1281866367
 ----------------------------------------------------------------
 Nuclear Repulsion Energy =   263.9000038339 hartrees
 There are       29 alpha and       29 beta electrons

                       Distance Matrix (Angstroms)
             Cl(  1)   Cl(  2)   C (  3)   C (  4)   C (  5)   H (  6)
   Cl(  2)  3.886063
   C (  3)  2.499999  2.787068
   C (  4)  3.179236  1.797864  1.489389
   C (  5)  3.181329  3.212105  1.482029  2.609920
   H (  6)  2.741154  3.752814  1.088015  2.153194  2.203378
   H (  7)  4.183943  2.358879  2.093486  1.100204  3.029378  2.488689
   H (  8)  3.049302  2.374553  2.135313  1.088858  3.484040  2.459719
   H (  9)  3.281478  2.827113  2.140587  2.874352  1.090499  3.082294
   H ( 10)  3.234030  4.231518  2.134391  3.512854  1.089701  2.460470
   H ( 11)  4.221223  3.494623  2.096175  2.915430  1.103587  2.655849
             H (  7)   H (  8)   H (  9)   H ( 10)
   H (  8)  1.776429
   H (  9)  3.450088  3.749908
   H ( 10)  3.953800  4.244226  1.788256
   H ( 11)  2.933939  3.919353  1.770947  1.778941
 
 Applying Cartesian multipole field
    Component          Value
    ---------          -----
     (2,0,0)        1.00000E-11
     (0,2,0)        2.00000E-11
     (0,0,2)       -3.00000E-10
 Nucleus-field energy     =    -0.0000000155 hartrees
 Requested basis set is 6-31G(d,p)
 There are 40 shells and 113 basis functions
 A cutoff of  1.0D-14 yielded    784 shell pairs
 There are      6449 function pairs
 Smallest overlap matrix eigenvalue = 5.91E-03
 Guess from superposition of atomic densities
 Warning:  Energy on first SCF cycle will be non-variational
 SAD guess density has 58.000000 electrons

 -----------------------------------------------------------------------
  General SCF calculation program by
  Eric Jon Sundstrom, Paul Horn, Yuezhi Mao, Dmitri Zuev, Alec White,
  David Stuck, Shaama M.S., Shane Yost, Joonho Lee, David Small,
  Daniel Levine, Susi Lehtola, Hugh Burton, Evgeny Epifanovsky
 -----------------------------------------------------------------------
 Exchange:     0.2000 Hartree-Fock + 0.0800 Slater + 0.7200 B88
 Correlation:  0.1900 VWN1RPA + 0.8100 LYP
 Using SG-1 standard quadrature grid
 using 12 threads for integral computing
 -------------------------------------------------------
 OpenMP Integral computing Module                
 Release: version 1.0, May 2013, Q-Chem Inc. Pittsburgh 
 -------------------------------------------------------
 -------------------------------------------------------
 OpenMP BLAS3 based DFT computing Module                
 Release: version 1.0, May 2013, Q-Chem Inc. Pittsburgh 
 -------------------------------------------------------
 A unrestricted SCF calculation will be
 performed using DIIS
 SCF converges when DIIS error is below 1.0e-06
 Alpha HF Exchange    Energy =  -7.27649980289163
 Beta HF Exchange     Energy =  -7.27649980289163
 DFT Correlation      Energy =  -2.76189924080095
 DFT Exchange         Energy = -57.33788939553069
 One-Electron (alpha) Energy = -975.00918000402544
 One-Electron (beta)  Energy = -975.00918000402544
 Total Coulomb        Energy = 722.08682158650583
 ---------------------------------------
  Cycle       Energy         DIIS error
 ---------------------------------------
    1   -1038.6843228453      2.70e-02  
 Alpha HF Exchange    Energy =  -7.29283658671454
 Beta HF Exchange     Energy =  -7.29283658671453
 DFT Correlation      Energy =  -2.78463238100881
 DFT Exchange         Energy = -57.86904177333867
 One-Electron (alpha) Energy = -978.58180420711687
 One-Electron (beta)  Energy = -978.58180420711585
 Total Coulomb        Energy = 730.28696287305786
    2   -1038.2159890506      3.08e-03  
 Alpha HF Exchange    Energy =  -7.23320430331674
 Beta HF Exchange     Energy =  -7.23320430331674
 DFT Correlation      Energy =  -2.76719909337918
 DFT Exchange         Energy = -57.41440772953430
 One-Electron (alpha) Energy = -974.71867709848721
 One-Electron (beta)  Energy = -974.71867709848664
 Total Coulomb        Energy = 722.18381553618815
    3   -1038.0015502720      5.92e-03  
 Alpha HF Exchange    Energy =  -7.25682778962171
 Beta HF Exchange     Energy =  -7.25682778962172
 DFT Correlation      Energy =  -2.77103475141448
 DFT Exchange         Energy = -57.57656039938058
 One-Electron (alpha) Energy = -976.29774280423908
 One-Electron (beta)  Energy = -976.29774280423953
 Total Coulomb        Energy = 725.28311513613357
    4   -1038.2736173840      1.67e-03  
 Alpha HF Exchange    Energy =  -7.26064139536154
 Beta HF Exchange     Energy =  -7.26064139536152
 DFT Correlation      Energy =  -2.77505328768184
 DFT Exchange         Energy = -57.62437923502346
 One-Electron (alpha) Energy = -976.74434442724203
 One-Electron (beta)  Energy = -976.74434442724123
 Total Coulomb        Energy = 726.21431570432196
    5   -1038.2950846452      3.14e-04  
 Alpha HF Exchange    Energy =  -7.26168197667147
 Beta HF Exchange     Energy =  -7.26168197667148
 DFT Correlation      Energy =  -2.77492873424810
 DFT Exchange         Energy = -57.63057346229556
 One-Electron (alpha) Energy = -976.77230448304124
 One-Electron (beta)  Energy = -976.77230448304169
 Total Coulomb        Energy = 726.27768060256301
    6   -1038.2957906950      8.19e-05  
 Alpha HF Exchange    Energy =  -7.26134669093804
 Beta HF Exchange     Energy =  -7.26134669093803
 DFT Correlation      Energy =  -2.77485246647355
 DFT Exchange         Energy = -57.62772636117676
 One-Electron (alpha) Energy = -976.74958580542136
 One-Electron (beta)  Energy = -976.74958580542091
 Total Coulomb        Energy = 726.22860820388314
    7   -1038.2958317981      2.53e-05  
 Alpha HF Exchange    Energy =  -7.26140465001448
 Beta HF Exchange     Energy =  -7.26140465001448
 DFT Correlation      Energy =  -2.77485441418709
 DFT Exchange         Energy = -57.62806561974580
 One-Electron (alpha) Energy = -976.75390476343478
 One-Electron (beta)  Energy = -976.75390476343478
 Total Coulomb        Energy = 726.23769866217867
    8   -1038.2958363803      6.48e-06  
 Alpha HF Exchange    Energy =  -7.26143716180348
 Beta HF Exchange     Energy =  -7.26143716180347
 DFT Correlation      Energy =  -2.77486169589886
 DFT Exchange         Energy = -57.62828410406026
 One-Electron (alpha) Energy = -976.75625780662642
 One-Electron (beta)  Energy = -976.75625780662585
 Total Coulomb        Energy = 726.24269520019982
    9   -1038.2958367183      1.39e-06  
 Alpha HF Exchange    Energy =  -7.26142882010707
 Beta HF Exchange     Energy =  -7.26142882010707
 DFT Correlation      Energy =  -2.77485818397380
 DFT Exchange         Energy = -57.62821057166931
 One-Electron (alpha) Energy = -976.75528653629874
 One-Electron (beta)  Energy = -976.75528653629863
 Total Coulomb        Energy = 726.24065891944633
   10   -1038.2958367306      3.40e-07  Convergence criterion met
 ---------------------------------------
 SCF time:   CPU 26.15s  wall 2.00s 
<S^2> =         -0.000000000
 Alpha HF Exchange    Energy =  -7.26142882010707
 Beta HF Exchange     Energy =  -7.26142882010707
 DFT Correlation      Energy =  -2.77485818397380
 DFT Exchange         Energy = -57.62821057166931
 One-Electron (alpha) Energy = -976.75528653629874
 One-Electron (beta)  Energy = -976.75528653629863
 Total Coulomb        Energy = 726.24065891944633
 Nuclear repulsion Energy = 263.90000381835989
 SCF   energy in the final basis set =    -1038.2958367306
 Total energy in the final basis set =    -1038.2958367306
 
 --------------------------------------------------------------
 
                    Orbital Energies (a.u.)
 --------------------------------------------------------------
 
 Alpha MOs
 -- Occupied --
*******-101.492 -10.311 -10.286 -10.224  -9.473  -9.404  -7.238
 -7.227  -7.227  -7.167  -7.159  -7.159  -0.893  -0.817  -0.734
 -0.728  -0.610  -0.518  -0.499  -0.464  -0.443  -0.420  -0.403
 -0.322  -0.320  -0.293  -0.264  -0.263
 -- Virtual --
 -0.113   0.006   0.064   0.105   0.115   0.129   0.142   0.157
  0.195   0.230   0.381   0.385   0.409   0.432   0.434   0.455
  0.487   0.490   0.516   0.531   0.569   0.601   0.619   0.638
  0.661   0.677   0.731   0.773   0.797   0.825   0.835   0.854
  0.873   0.879   0.886   0.921   0.934   0.937   0.943   0.959
  0.993   1.013   1.037   1.162   1.279   1.323   1.375   1.399
  1.537   1.656   1.771   1.829   1.856   1.863   1.990   2.009
  2.033   2.056   2.064   2.113   2.191   2.241   2.300   2.374
  2.464   2.503   2.570   2.619   2.689   2.715   2.800   2.835
  2.890   3.167   3.209   3.312   3.374   3.417   3.425   4.134
  4.270   4.287   4.416   4.536
 
 Beta MOs
 -- Occupied --
*******-101.492 -10.311 -10.286 -10.224  -9.473  -9.404  -7.238
 -7.227  -7.227  -7.167  -7.159  -7.159  -0.893  -0.817  -0.734
 -0.728  -0.610  -0.518  -0.499  -0.464  -0.443  -0.420  -0.403
 -0.322  -0.320  -0.293  -0.264  -0.263
 -- Virtual --
 -0.113   0.006   0.064   0.105   0.115   0.129   0.142   0.157
  0.195   0.230   0.381   0.385   0.409   0.432   0.434   0.455
  0.487   0.490   0.516   0.531   0.569   0.601   0.619   0.638
  0.661   0.677   0.731   0.773   0.797   0.825   0.835   0.854
  0.873   0.879   0.886   0.921   0.934   0.937   0.943   0.959
  0.993   1.013   1.037   1.162   1.279   1.323   1.375   1.399
  1.537   1.656   1.771   1.829   1.856   1.863   1.990   2.009
  2.033   2.056   2.064   2.113   2.191   2.241   2.300   2.374
  2.464   2.503   2.570   2.619   2.689   2.715   2.800   2.835
  2.890   3.167   3.209   3.312   3.374   3.417   3.425   4.134
  4.270   4.287   4.416   4.536
 --------------------------------------------------------------
 
          Ground-State Mulliken Net Atomic Charges

     Atom                 Charge (a.u.)    Spin (a.u.)
  --------------------------------------------------------
      1 Cl                   -0.391823       0.000000
      2 Cl                   -0.034662      -0.000000
      3 C                     0.001808      -0.000000
      4 C                    -0.296584       0.000000
      5 C                    -0.329213       0.000000
      6 H                     0.183468       0.000000
      7 H                     0.176338      -0.000000
      8 H                     0.209787       0.000000
      9 H                     0.181176      -0.000000
     10 H                     0.161694       0.000000
     11 H                     0.138012       0.000000
  --------------------------------------------------------
  Sum of atomic charges =    -0.000000
  Sum of spin   charges =     0.000000

 -----------------------------------------------------------------
                    Cartesian Multipole Moments
 -----------------------------------------------------------------
    Charge (ESU x 10^10)
                -0.0000
    Dipole Moment (Debye)
         X       0.9685      Y      -4.5795      Z      -2.7352
       Tot       5.4213
    Quadrupole Moments (Debye-Ang)
        XX     -49.3682     XY       5.9571     YY     -48.0254
        XZ      -0.7410     YZ      -0.8790     ZZ     -41.7541
    Octopole Moments (Debye-Ang^2)
       XXX      -3.9476    XXY     -17.9155    XYY       3.9586
       YYY     -40.1138    XXZ      -7.2771    XYZ       0.9193
       YYZ      -6.6581    XZZ       1.2406    YZZ     -11.5698
       ZZZ     -18.2201
    Hexadecapole Moments (Debye-Ang^3)
      XXXX    -621.8647   XXXY      87.3375   XXYY    -175.0145
      XYYY      80.8878   YYYY    -400.3585   XXXZ      -2.3975
      XXYZ      -3.0014   XYYZ      -6.5018   YYYZ      -7.8076
      XXZZ    -118.3883   XYZZ      25.1174   YYZZ     -91.2481
      XZZZ      -2.9855   YZZZ     -10.3400   ZZZZ    -144.7742
 -----------------------------------------------------------------
 Calculating analytic gradient of the SCF energy
 Gradient of SCF Energy
            1           2           3           4           5           6
    1  -0.0158048  -0.0000211   0.0160579  -0.0003920  -0.0000627   0.0001231
    2   0.0366218   0.0001005  -0.0365816   0.0002514   0.0003127  -0.0003324
    3   0.0149227  -0.0000864  -0.0145667   0.0002163  -0.0001455  -0.0002133
            7           8           9          10          11
    1  -0.0000262   0.0000585  -0.0000290   0.0000205   0.0000756
    2  -0.0002056  -0.0000582  -0.0000425  -0.0000445  -0.0000216
    3   0.0000436  -0.0001149   0.0000354   0.0000537  -0.0001447
 Max gradient component =       3.662E-02
 RMS gradient           =       1.048E-02
 Gradient time:  CPU 9.14 s  wall 0.76 s
 Geometry Optimization Parameters
   NAtoms,    NIC,     NZ,  NCons,   NDum,   NFix, NCnnct, MaxDiis
       11      68       0       1       0       0       0       0

 Cartesian Hessian Update
 Hessian Updated using BFGS Update


** CONSTRAINED OPTIMIZATION IN DELOCALIZED INTERNAL COORDINATES **
   Searching for a Minimum

   Optimization Cycle:   4

                       Coordinates (Angstroms)
     ATOM                X               Y               Z
      1  Cl       -1.4599578302    1.7511437567    0.2969434284
      2  Cl        1.9761464464   -0.0391694077    0.5960255931
      3  C        -0.5281558940   -0.3994607737   -0.5729087286
      4  C         0.8958704042   -0.0551452242   -0.8410073976
      5  C        -0.9380413380   -1.3829877327    0.4571785010
      6  H        -1.1472188600   -0.3256640341   -1.4645873954
      7  H         1.2898423209   -0.8270288794   -1.5188209810
      8  H         0.9747490011    0.9116191845   -1.3357365462
      9  H        -0.4790140155   -1.1706948780    1.4233121259
     10  H        -2.0224944541   -1.4230144898    0.5562117636
     11  H        -0.5814247808   -2.3741955217    0.1281866367
   Point Group: c1    Number of degrees of freedom:    27


   Energy is  -1038.295836731

              Constraints and their Current Values
                                        Value     Constraint
   Distance(Angs):        1   3             2.499999     2.500000
 Hessian Updated using BFGS Update

 25 Hessian modes will be used to form the next step
  Hessian Eigenvalues:
     0.022017    0.045014    0.046024    0.079935    0.081660    0.082811
     0.085873    0.087285    0.137736    0.159960    0.160000    0.160195
     0.175502    0.188615    0.223786    0.226687    0.261187    0.333877
     0.334078    0.337822    0.347075    0.348009    0.348989    0.350192
     0.373951

 Minimum Search - Taking Simple RFO Step
 Searching for Lamda that Minimizes Along All modes
 Value Taken    Lamda =  -0.00000701
 Step Taken.  Stepsize is  0.013856

                             Maximum     Tolerance    Cnvgd?
         Gradient           0.000475      0.000300      NO
         Displacement       0.007534      0.001200      NO
         Energy change     -0.000119      0.000001      NO


 New Cartesian Coordinates Obtained by Inverse Iteration

 Displacement from previous Coordinates is:  0.015027
 ----------------------------------------------------------------
             Standard Nuclear Orientation (Angstroms)
    I     Atom           X                Y                Z
 ----------------------------------------------------------------
    1      Cl     -1.4606167656     1.7497338863     0.2945820076
    2      Cl      1.9758282206    -0.0422711061     0.5964425959
    3      C      -0.5278224979    -0.4009617025    -0.5739804875
    4      C       0.8963293205    -0.0553892468    -0.8412809849
    5      C      -0.9378469564    -1.3832117697     0.4574606549
    6      H      -1.1483409356    -0.3239519548    -1.4642215879
    7      H       1.2916222269    -0.8245583428    -1.5212274211
    8      H       0.9738163599     0.9128230649    -1.3334467190
    9      H      -0.4780284488    -1.1692684844     1.4228726678
   10      H      -2.0223356094    -1.4220171100     0.5566952426
   11      H      -0.5823039142    -2.3755252339     0.1309010315
 ----------------------------------------------------------------
 Nuclear Repulsion Energy =   263.9110474419 hartrees
 There are       29 alpha and       29 beta electrons

                       Distance Matrix (Angstroms)
             Cl(  1)   Cl(  2)   C (  3)   C (  4)   C (  5)   H (  6)
   Cl(  2)  3.887358
   C (  3)  2.499999  2.786901
   C (  4)  3.178655  1.797926  1.489657
   C (  5)  3.180435  3.210442  1.482163  2.610373
   H (  6)  2.736984  3.753147  1.087889  2.154265  2.204360
   H (  7)  4.183176  2.358948  2.094538  1.100093  3.032793  2.491441
   H (  8)  3.045876  2.375017  2.134886  1.088883  3.483329  2.459729
   H (  9)  3.280106  2.823920  2.140140  2.873322  1.090516  3.082076
   H ( 10)  3.231754  4.229727  2.134139  3.512921  1.089711  2.460431
   H ( 11)  4.220899  3.493543  2.097314  2.917966  1.103512  2.659655
             H (  7)   H (  8)   H (  9)   H ( 10)
   H (  8)  1.776163
   H (  9)  3.452277  3.747033
   H ( 10)  3.956897  4.242763  1.788583
   H ( 11)  2.940515  3.921614  1.770627  1.778811
 
 Applying Cartesian multipole field
    Component          Value
    ---------          -----
     (2,0,0)        1.00000E-11
     (0,2,0)        2.00000E-11
     (0,0,2)       -3.00000E-10
 Nucleus-field energy     =    -0.0000000155 hartrees
 Requested basis set is 6-31G(d,p)
 There are 40 shells and 113 basis functions
 A cutoff of  1.0D-14 yielded    784 shell pairs
 There are      6449 function pairs
 Smallest overlap matrix eigenvalue = 5.91E-03
 Guess from superposition of atomic densities
 Warning:  Energy on first SCF cycle will be non-variational
 SAD guess density has 58.000000 electrons

 -----------------------------------------------------------------------
  General SCF calculation program by
  Eric Jon Sundstrom, Paul Horn, Yuezhi Mao, Dmitri Zuev, Alec White,
  David Stuck, Shaama M.S., Shane Yost, Joonho Lee, David Small,
  Daniel Levine, Susi Lehtola, Hugh Burton, Evgeny Epifanovsky
 -----------------------------------------------------------------------
 Exchange:     0.2000 Hartree-Fock + 0.0800 Slater + 0.7200 B88
 Correlation:  0.1900 VWN1RPA + 0.8100 LYP
 Using SG-1 standard quadrature grid
 using 12 threads for integral computing
 -------------------------------------------------------
 OpenMP Integral computing Module                
 Release: version 1.0, May 2013, Q-Chem Inc. Pittsburgh 
 -------------------------------------------------------
 -------------------------------------------------------
 OpenMP BLAS3 based DFT computing Module                
 Release: version 1.0, May 2013, Q-Chem Inc. Pittsburgh 
 -------------------------------------------------------
 A unrestricted SCF calculation will be
 performed using DIIS
 SCF converges when DIIS error is below 1.0e-06
 Alpha HF Exchange    Energy =  -7.27646687140256
 Beta HF Exchange     Energy =  -7.27646687140256
 DFT Correlation      Energy =  -2.76190435809387
 DFT Exchange         Energy = -57.33782993314647
 One-Electron (alpha) Energy = -975.02030588366597
 One-Electron (beta)  Energy = -975.02030588366597
 Total Coulomb        Energy = 722.09826934330147
 ---------------------------------------
  Cycle       Energy         DIIS error
 ---------------------------------------
    1   -1038.6839630317      2.70e-02  
 Alpha HF Exchange    Energy =  -7.29284603465624
 Beta HF Exchange     Energy =  -7.29284603465624
 DFT Correlation      Energy =  -2.78463536926298
 DFT Exchange         Energy = -57.86906326483674
 One-Electron (alpha) Energy = -978.59282057845940
 One-Electron (beta)  Energy = -978.59282057845905
 Total Coulomb        Energy = 730.29804132979268
    2   -1038.2159431041      3.08e-03  
 Alpha HF Exchange    Energy =  -7.23320302983127
 Beta HF Exchange     Energy =  -7.23320302983127
 DFT Correlation      Energy =  -2.76721267281875
 DFT Exchange         Energy = -57.41442574147136
 One-Electron (alpha) Energy = -974.72911955915220
 One-Electron (beta)  Energy = -974.72911955915242
 Total Coulomb        Energy = 722.19472997075115
    3   -1038.0005061951      5.93e-03  
 Alpha HF Exchange    Energy =  -7.25681956982549
 Beta HF Exchange     Energy =  -7.25681956982549
 DFT Correlation      Energy =  -2.77103805981002
 DFT Exchange         Energy = -57.57647145907761
 One-Electron (alpha) Energy = -976.30865490399117
 One-Electron (beta)  Energy = -976.30865490399128
 Total Coulomb        Energy = 725.29380781875648
    4   -1038.2736032214      1.67e-03  
 Alpha HF Exchange    Energy =  -7.26064008251535
 Beta HF Exchange     Energy =  -7.26064008251534
 DFT Correlation      Energy =  -2.77506050017139
 DFT Exchange         Energy = -57.62436677966241
 One-Electron (alpha) Energy = -976.75561346675613
 One-Electron (beta)  Energy = -976.75561346675556
 Total Coulomb        Energy = 726.22579863260796
    5   -1038.2950883194      3.14e-04  
 Alpha HF Exchange    Energy =  -7.26168190405367
 Beta HF Exchange     Energy =  -7.26168190405367
 DFT Correlation      Energy =  -2.77493583333052
 DFT Exchange         Energy = -57.63056866354490
 One-Electron (alpha) Energy = -976.78362316257630
 One-Electron (beta)  Energy = -976.78362316257676
 Total Coulomb        Energy = 726.28927157552994
    6   -1038.2957956282      8.20e-05  
 Alpha HF Exchange    Energy =  -7.26134602186846
 Beta HF Exchange     Energy =  -7.26134602186845
 DFT Correlation      Energy =  -2.77485937540883
 DFT Exchange         Energy = -57.62771608388482
 One-Electron (alpha) Energy = -976.76086983465279
 One-Electron (beta)  Energy = -976.76086983465188
 Total Coulomb        Energy = 726.24012288199697
    7   -1038.2958368639      2.54e-05  
 Alpha HF Exchange    Energy =  -7.26140416335227
 Beta HF Exchange     Energy =  -7.26140416335228
 DFT Correlation      Energy =  -2.77486131363934
 DFT Exchange         Energy = -57.62805619979715
 One-Electron (alpha) Energy = -976.76519617669840
 One-Electron (beta)  Energy = -976.76519617669908
 Total Coulomb        Energy = 726.24922929489060
    8   -1038.2958414722      6.51e-06  
 Alpha HF Exchange    Energy =  -7.26143681742800
 Beta HF Exchange     Energy =  -7.26143681742800
 DFT Correlation      Energy =  -2.77486860730659
 DFT Exchange         Energy = -57.62827549040124
 One-Electron (alpha) Energy = -976.76755658619868
 One-Electron (beta)  Energy = -976.76755658619891
 Total Coulomb        Energy = 726.25424166475341
    9   -1038.2958418138      1.40e-06  
 Alpha HF Exchange    Energy =  -7.26142846412136
 Beta HF Exchange     Energy =  -7.26142846412137
 DFT Correlation      Energy =  -2.77486508437375
 DFT Exchange         Energy = -57.62820180745376
 One-Electron (alpha) Energy = -976.76658340498147
 One-Electron (beta)  Energy = -976.76658340498159
 Total Coulomb        Energy = 726.25220137736903
   10   -1038.2958418263      3.41e-07  Convergence criterion met
 ---------------------------------------
 SCF time:   CPU 25.89s  wall 2.00s 
<S^2> =         -0.000000000
 Alpha HF Exchange    Energy =  -7.26142846412136
 Beta HF Exchange     Energy =  -7.26142846412137
 DFT Correlation      Energy =  -2.77486508437375
 DFT Exchange         Energy = -57.62820180745376
 One-Electron (alpha) Energy = -976.76658340498147
 One-Electron (beta)  Energy = -976.76658340498159
 Total Coulomb        Energy = 726.25220137736903
 Nuclear repulsion Energy = 263.91104742641238
 SCF   energy in the final basis set =    -1038.2958418263
 Total energy in the final basis set =    -1038.2958418263
 
 --------------------------------------------------------------
 
                    Orbital Energies (a.u.)
 --------------------------------------------------------------
 
 Alpha MOs
 -- Occupied --
*******-101.492 -10.311 -10.286 -10.224  -9.473  -9.404  -7.238
 -7.227  -7.227  -7.167  -7.159  -7.159  -0.893  -0.817  -0.734
 -0.728  -0.610  -0.518  -0.499  -0.464  -0.443  -0.420  -0.403
 -0.322  -0.320  -0.293  -0.264  -0.263
 -- Virtual --
 -0.113   0.006   0.065   0.105   0.115   0.129   0.142   0.157
  0.196   0.230   0.381   0.385   0.409   0.432   0.434   0.455
[...]

 26 Hessian modes will be used to form the next step
  Hessian Eigenvalues:
     0.003146    0.022578    0.045063    0.072257    0.080862    0.082471
     0.085777    0.087580    0.137791    0.159964    0.160003    0.160022
     0.161337    0.177924    0.188331    0.217400    0.226253    0.260696
     0.332210    0.334662    0.337152    0.346574    0.348174    0.349196
     0.350134    0.367344

 Minimum Search - Taking Simple RFO Step
 Searching for Lamda that Minimizes Along All modes
 Value Taken    Lamda =  -0.00000127
 Step Taken.  Stepsize is  0.014342

                             Maximum     Tolerance    Cnvgd?
         Gradient           0.000117      0.000300     YES
         Displacement       0.009122      0.001200      NO
         Energy change     -0.000001      0.000001      NO


 New Cartesian Coordinates Obtained by Inverse Iteration

 Displacement from previous Coordinates is:  0.017026
 ----------------------------------------------------------------
             Standard Nuclear Orientation (Angstroms)
    I     Atom           X                Y                Z
 ----------------------------------------------------------------
    1      Cl     -1.4693061811     1.7505800180     0.2815089958
    2      Cl      1.9822966547    -0.0675332442     0.5920541866
    3      C      -0.5273494205    -0.4016026451    -0.5733738705
    4      C       0.8969960855    -0.0560904163    -0.8418979239
    5      C      -0.9372457326    -1.3819769650     0.4601719250
    6      H      -1.1484798652    -0.3246777034    -1.4630334922
    7      H       1.2881482120    -0.8141845026    -1.5361027776
    8      H       0.9742973523     0.9204212932    -1.3173933222
    9      H      -0.4839299128    -1.1600046978     1.4269171979
   10      H      -2.0219470825    -1.4259560375     0.5543396416
   11      H      -0.5731791100    -2.3735730992     0.1416064396
 ----------------------------------------------------------------
 Nuclear Repulsion Energy =   263.6608190026 hartrees
 There are       29 alpha and       29 beta electrons

                       Distance Matrix (Angstroms)
             Cl(  1)   Cl(  2)   C (  3)   C (  4)   C (  5)   H (  6)
   Cl(  2)  3.913507
   C (  3)  2.499999  2.787140
   C (  4)  3.182057  1.798396  1.490048
   C (  5)  3.182440  3.204510  1.482351  2.611093
   H (  6)  2.730028  3.753834  1.087757  2.154512  2.204818
   H (  7)  4.181541  2.359742  2.095973  1.099830  3.043005  2.486385
   H (  8)  3.035927  2.374470  2.134539  1.088874  3.480628  2.465292
   H (  9)  3.279395  2.823608  2.139678  2.876301  1.090579  3.080781
   H ( 10)  3.235773  4.228558  2.134212  3.513722  1.089669  2.458771
   H ( 11)  4.222707  3.471481  2.098086  2.915377  1.103309  2.665298
             H (  7)   H (  8)   H (  9)   H ( 10)
   H (  8)  1.776286
   H (  9)  3.469775  3.739765
   H ( 10)  3.962442  4.241032  1.788189
   H ( 11)  2.951430  3.920939  1.769954  1.779678
 
 Applying Cartesian multipole field
    Component          Value
    ---------          -----
     (2,0,0)        1.00000E-11
     (0,2,0)        2.00000E-11
     (0,0,2)       -3.00000E-10
 Nucleus-field energy     =    -0.0000000153 hartrees
 Requested basis set is 6-31G(d,p)
 There are 40 shells and 113 basis functions
 A cutoff of  1.0D-14 yielded    784 shell pairs
 There are      6449 function pairs
 Smallest overlap matrix eigenvalue = 5.89E-03
 Guess from superposition of atomic densities
 Warning:  Energy on first SCF cycle will be non-variational
 SAD guess density has 58.000000 electrons

 -----------------------------------------------------------------------
  General SCF calculation program by
  Eric Jon Sundstrom, Paul Horn, Yuezhi Mao, Dmitri Zuev, Alec White,
  David Stuck, Shaama M.S., Shane Yost, Joonho Lee, David Small,
  Daniel Levine, Susi Lehtola, Hugh Burton, Evgeny Epifanovsky
 -----------------------------------------------------------------------
 Exchange:     0.2000 Hartree-Fock + 0.0800 Slater + 0.7200 B88
 Correlation:  0.1900 VWN1RPA + 0.8100 LYP
 Using SG-1 standard quadrature grid
 using 12 threads for integral computing
 -------------------------------------------------------
 OpenMP Integral computing Module                
 Release: version 1.0, May 2013, Q-Chem Inc. Pittsburgh 
 -------------------------------------------------------
 -------------------------------------------------------
 OpenMP BLAS3 based DFT computing Module                
 Release: version 1.0, May 2013, Q-Chem Inc. Pittsburgh 
 -------------------------------------------------------
 A unrestricted SCF calculation will be
 performed using DIIS
 SCF converges when DIIS error is below 1.0e-06
 Alpha HF Exchange    Energy =  -7.27639393772058
 Beta HF Exchange     Energy =  -7.27639393772058
 DFT Correlation      Energy =  -2.76188310549544
 DFT Exchange         Energy = -57.33770404994491
 One-Electron (alpha) Energy = -974.77019701139807
 One-Electron (beta)  Energy = -974.77019701139807
 Total Coulomb        Energy = 721.84879196372674
 ---------------------------------------
  Cycle       Energy         DIIS error
 ---------------------------------------
    1   -1038.6831581026      2.70e-02  
 Alpha HF Exchange    Energy =  -7.29284265250686
 Beta HF Exchange     Energy =  -7.29284265250685
 DFT Correlation      Energy =  -2.78460737741507
 DFT Exchange         Energy = -57.86902787346112
 One-Electron (alpha) Energy = -978.33558382823014
 One-Electron (beta)  Energy = -978.33558382822980
 Total Coulomb        Energy = 730.03367040937792
    2   -1038.2159988157      3.08e-03  
 Alpha HF Exchange    Energy =  -7.23319877158460
 Beta HF Exchange     Energy =  -7.23319877158460
 DFT Correlation      Energy =  -2.76720187068596
 DFT Exchange         Energy = -57.41447895222156
 One-Electron (alpha) Energy = -974.48379741456438
 One-Electron (beta)  Energy = -974.48379741456415
 Total Coulomb        Energy = 721.95477214246046
    3   -1038.0000820654      5.93e-03  
 Alpha HF Exchange    Energy =  -7.25680029137029
 Beta HF Exchange     Energy =  -7.25680029137030
 DFT Correlation      Energy =  -2.77101405473894
 DFT Exchange         Energy = -57.57632825425821
 One-Electron (alpha) Energy = -976.05400255898326
 One-Electron (beta)  Energy = -976.05400255898394
 Total Coulomb        Energy = 725.03450853451386
    4   -1038.2736204879      1.67e-03  
 Alpha HF Exchange    Energy =  -7.26063007983282
 Beta HF Exchange     Energy =  -7.26063007983283
 DFT Correlation      Energy =  -2.77503784803375
 DFT Exchange         Energy = -57.62430253150693
 One-Electron (alpha) Energy = -976.50232194759701
 One-Electron (beta)  Energy = -976.50232194759724
 Total Coulomb        Energy = 725.96932934440906
    5   -1038.2950961027      3.14e-04  
 Alpha HF Exchange    Energy =  -7.26167308051974
 Beta HF Exchange     Energy =  -7.26167308051973
 DFT Correlation      Energy =  -2.77491409771285
 DFT Exchange         Energy = -57.63051516374593
 One-Electron (alpha) Energy = -976.53038917898482
 One-Electron (beta)  Energy = -976.53038917898471
 Total Coulomb        Energy = 726.03293111289258
    6   -1038.2958036803      8.20e-05  
 Alpha HF Exchange    Energy =  -7.26133578163001
 Beta HF Exchange     Energy =  -7.26133578163001
 DFT Correlation      Energy =  -2.77483679849846
 DFT Exchange         Energy = -57.62764918850057
 One-Electron (alpha) Energy = -976.50744673759334
 One-Electron (beta)  Energy = -976.50744673759323
 Total Coulomb        Energy = 725.98338715247974
    7   -1038.2958448856      2.54e-05  
 Alpha HF Exchange    Energy =  -7.26139488595438
 Beta HF Exchange     Energy =  -7.26139488595437
 DFT Correlation      Energy =  -2.77483899572271
 DFT Exchange         Energy = -57.62799659762086
 One-Electron (alpha) Energy = -976.51183033261532
 One-Electron (beta)  Energy = -976.51183033261464
 Total Coulomb        Energy = 725.99261754645761
    8   -1038.2958494967      6.53e-06  
 Alpha HF Exchange    Energy =  -7.26142753704225
 Beta HF Exchange     Energy =  -7.26142753704225
 DFT Correlation      Energy =  -2.77484627831667
 DFT Exchange         Energy = -57.62821571255910
 One-Electron (alpha) Energy = -976.51418094036069
 One-Electron (beta)  Energy = -976.51418094036092
 Total Coulomb        Energy = 725.99761011845953
    9   -1038.2958498399      1.40e-06  
 Alpha HF Exchange    Energy =  -7.26141915702925
 Beta HF Exchange     Energy =  -7.26141915702925
 DFT Correlation      Energy =  -2.77484273786343
 DFT Exchange         Energy = -57.62814175993410
 One-Electron (alpha) Energy = -976.51320591284889
 One-Electron (beta)  Energy = -976.51320591284878
 Total Coulomb        Energy = 725.99556579776106
   10   -1038.2958498525      3.42e-07  Convergence criterion met
 ---------------------------------------
 SCF time:   CPU 25.42s  wall 2.00s 
<S^2> =          0.000000000
 Alpha HF Exchange    Energy =  -7.26141915702925
 Beta HF Exchange     Energy =  -7.26141915702925
 DFT Correlation      Energy =  -2.77484273786343
 DFT Exchange         Energy = -57.62814175993410
 One-Electron (alpha) Energy = -976.51320591284889
 One-Electron (beta)  Energy = -976.51320591284878
 Total Coulomb        Energy = 725.99556579776106
 Nuclear repulsion Energy = 263.66081898731892
 SCF   energy in the final basis set =    -1038.2958498525
 Total energy in the final basis set =    -1038.2958498525
 
 --------------------------------------------------------------
 
                    Orbital Energies (a.u.)
 --------------------------------------------------------------
 
 Alpha MOs
 -- Occupied --
*******-101.492 -10.311 -10.286 -10.224  -9.474  -9.404  -7.238
 -7.228  -7.227  -7.167  -7.159  -7.159  -0.893  -0.817  -0.734
 -0.728  -0.610  -0.518  -0.500  -0.464  -0.443  -0.420  -0.403
 -0.323  -0.320  -0.293  -0.264  -0.263
 -- Virtual --
 -0.113   0.005   0.065   0.105   0.115   0.128   0.142   0.157
  0.196   0.230   0.381   0.386   0.409   0.432   0.433   0.456
  0.487   0.490   0.516   0.530   0.569   0.601   0.619   0.638
  0.660   0.677   0.730   0.773   0.797   0.825   0.835   0.854
  0.873   0.879   0.886   0.921   0.934   0.937   0.944   0.959
  0.993   1.011   1.037   1.164   1.278   1.321   1.376   1.399
  1.539   1.656   1.770   1.829   1.856   1.862   1.990   2.009
  2.033   2.057   2.064   2.114   2.192   2.241   2.301   2.374
  2.464   2.502   2.570   2.618   2.689   2.714   2.800   2.835
  2.891   3.167   3.210   3.312   3.374   3.416   3.425   4.133
  4.270   4.287   4.415   4.536
 
 Beta MOs
 -- Occupied --
*******-101.492 -10.311 -10.286 -10.224  -9.474  -9.404  -7.238
 -7.228  -7.227  -7.167  -7.159  -7.159  -0.893  -0.817  -0.734
 -0.728  -0.610  -0.518  -0.500  -0.464  -0.443  -0.420  -0.403
 -0.323  -0.320  -0.293  -0.264  -0.263
 -- Virtual --
 -0.113   0.005   0.065   0.105   0.115   0.128   0.142   0.157
  0.196   0.230   0.381   0.386   0.409   0.432   0.433   0.456
  0.487   0.490   0.516   0.530   0.569   0.601   0.619   0.638
  0.660   0.677   0.730   0.773   0.797   0.825   0.835   0.854
  0.873   0.879   0.886   0.921   0.934   0.937   0.944   0.959
  0.993   1.011   1.037   1.164   1.278   1.321   1.376   1.399
  1.539   1.656   1.770   1.829   1.856   1.862   1.990   2.009
  2.033   2.057   2.064   2.114   2.192   2.241   2.301   2.374
  2.464   2.502   2.570   2.618   2.689   2.714   2.800   2.835
  2.891   3.167   3.210   3.312   3.374   3.416   3.425   4.133
  4.270   4.287   4.415   4.536
 --------------------------------------------------------------
 
          Ground-State Mulliken Net Atomic Charges

     Atom                 Charge (a.u.)    Spin (a.u.)
  --------------------------------------------------------
      1 Cl                   -0.393033       0.000000
      2 Cl                   -0.035655       0.000000
      3 C                     0.001608       0.000000
      4 C                    -0.297260      -0.000000
      5 C                    -0.329480      -0.000000
      6 H                     0.184500      -0.000000
      7 H                     0.176738       0.000000
      8 H                     0.210944       0.000000
      9 H                     0.181657       0.000000
     10 H                     0.161334       0.000000
     11 H                     0.138646       0.000000
  --------------------------------------------------------
  Sum of atomic charges =     0.000000
  Sum of spin   charges =     0.000000

 -----------------------------------------------------------------
                    Cartesian Multipole Moments
 -----------------------------------------------------------------
    Charge (ESU x 10^10)
                -0.0000
    Dipole Moment (Debye)
         X       0.9853      Y      -4.5600      Z      -2.7087
       Tot       5.3946
    Quadrupole Moments (Debye-Ang)
        XX     -49.4463     XY       6.0323     YY     -48.0376
        XZ      -0.7784     YZ      -0.8491     ZZ     -41.7365
    Octopole Moments (Debye-Ang^2)
       XXX      -3.7642    XXY     -17.5945    XYY       4.0365
       YYY     -39.0479    XXZ      -7.0187    XYZ       0.8526
       YYZ      -6.3616    XZZ       1.2777    YZZ     -11.2930
       ZZZ     -17.5385
    Hexadecapole Moments (Debye-Ang^3)
      XXXX    -626.1619   XXXY      90.2551   XXYY    -175.8037
      XYYY      83.8202   YYYY    -400.2573   XXXZ      -2.9295
      XXYZ      -2.4941   XYYZ      -6.7170   YYYZ      -6.1167
      XXZZ    -118.8956   XYZZ      25.9031   YYZZ     -91.1865
      XZZZ      -3.6464   YZZZ      -8.4867   ZZZZ    -143.8417
 -----------------------------------------------------------------
 Calculating analytic gradient of the SCF energy
 Gradient of SCF Energy
            1           2           3           4           5           6
    1  -0.0160460   0.0000071   0.0160683  -0.0000760   0.0000118  -0.0000083
    2   0.0364617   0.0000552  -0.0364663  -0.0000222  -0.0000504   0.0000019
    3   0.0143857   0.0000244  -0.0143633  -0.0000816  -0.0000768  -0.0000014
            7           8           9          10          11
    1   0.0000070  -0.0000032  -0.0000049   0.0000141   0.0000301
    2  -0.0000259   0.0000008   0.0000199   0.0000159   0.0000094
    3   0.0000297   0.0000029   0.0000238   0.0000432   0.0000133
 Max gradient component =       3.647E-02
 RMS gradient           =       1.043E-02
 Gradient time:  CPU 9.25 s  wall 0.77 s
 Geometry Optimization Parameters
   NAtoms,    NIC,     NZ,  NCons,   NDum,   NFix, NCnnct, MaxDiis
       11      68       0       1       0       0       0       0

 Cartesian Hessian Update
 Hessian Updated using BFGS Update


** CONSTRAINED OPTIMIZATION IN DELOCALIZED INTERNAL COORDINATES **
   Searching for a Minimum

   Optimization Cycle:  10

                       Coordinates (Angstroms)
     ATOM                X               Y               Z
      1  Cl       -1.4693061811    1.7505800180    0.2815089958
      2  Cl        1.9822966547   -0.0675332442    0.5920541866
      3  C        -0.5273494205   -0.4016026451   -0.5733738705
      4  C         0.8969960855   -0.0560904163   -0.8418979239
      5  C        -0.9372457326   -1.3819769650    0.4601719250
      6  H        -1.1484798652   -0.3246777034   -1.4630334922
      7  H         1.2881482120   -0.8141845026   -1.5361027776
      8  H         0.9742973523    0.9204212932   -1.3173933222
      9  H        -0.4839299128   -1.1600046978    1.4269171979
     10  H        -2.0219470825   -1.4259560375    0.5543396416
     11  H        -0.5731791100   -2.3735730992    0.1416064396
   Point Group: c1    Number of degrees of freedom:    27


   Energy is  -1038.295849852

              Constraints and their Current Values
                                        Value     Constraint
   Distance(Angs):        1   3             2.499999     2.500000
 Hessian Updated using BFGS Update

 26 Hessian modes will be used to form the next step
  Hessian Eigenvalues:
     0.002936    0.021741    0.042681    0.052607    0.080520    0.083317
     0.085778    0.087260    0.137782    0.159981    0.160003    0.160173
     0.161823    0.178496    0.188259    0.217038    0.227265    0.260430
     0.333491    0.334554    0.337713    0.347054    0.348210    0.349293
     0.350196    0.377136

 Minimum Search - Taking Simple RFO Step
 Searching for Lamda that Minimizes Along All modes
 Value Taken    Lamda =   0.00000000
 Step Taken.  Stepsize is  0.007619

                             Maximum     Tolerance    Cnvgd?
         Gradient           0.000083      0.000300     YES
         Displacement       0.004222      0.001200      NO
         Energy change     -0.000001      0.000001     YES


                       Distance Matrix (Angstroms)
             Cl(  1)   Cl(  2)   C (  3)   C (  4)   C (  5)   H (  6)
   Cl(  2)  3.913507
   C (  3)  2.499999  2.787140
   C (  4)  3.182057  1.798396  1.490048
   C (  5)  3.182440  3.204510  1.482351  2.611093
   H (  6)  2.730028  3.753834  1.087757  2.154512  2.204818
   H (  7)  4.181541  2.359742  2.095973  1.099830  3.043005  2.486385
   H (  8)  3.035927  2.374470  2.134539  1.088874  3.480628  2.465292
   H (  9)  3.279395  2.823608  2.139678  2.876301  1.090579  3.080781
   H ( 10)  3.235773  4.228558  2.134212  3.513722  1.089669  2.458771
   H ( 11)  4.222707  3.471481  2.098086  2.915377  1.103309  2.665298
             H (  7)   H (  8)   H (  9)   H ( 10)
   H (  8)  1.776286
   H (  9)  3.469775  3.739765
   H ( 10)  3.962442  4.241032  1.788189
   H ( 11)  2.951430  3.920939  1.769954  1.779678
 
 Final energy is   -1038.29584985247     


 ******************************
 **  OPTIMIZATION CONVERGED  **
 ******************************

                       Coordinates (Angstroms)
     ATOM                X               Y               Z
      1  Cl       -1.4693061811    1.7505800180    0.2815089958
      2  Cl        1.9822966547   -0.0675332442    0.5920541866
      3  C        -0.5273494205   -0.4016026451   -0.5733738705
      4  C         0.8969960855   -0.0560904163   -0.8418979239
      5  C        -0.9372457326   -1.3819769650    0.4601719250
      6  H        -1.1484798652   -0.3246777034   -1.4630334922
      7  H         1.2881482120   -0.8141845026   -1.5361027776
      8  H         0.9742973523    0.9204212932   -1.3173933222
      9  H        -0.4839299128   -1.1600046978    1.4269171979
     10  H        -2.0219470825   -1.4259560375    0.5543396416
     11  H        -0.5731791100   -2.3735730992    0.1416064396

Z-matrix Print:
$molecule
0 1
Cl
C  1 1.798396
H  2 1.088874 1 108.122838
H  2 1.099830 1 106.515155 3 116.438853 0
C  2 1.490048 1 115.575821 3 -124.762509 0
H  5 1.087757 2 112.460736 1 176.761770 0
C  5 1.482351 2 122.910719 1 -33.994808 0
H  7 1.089669 5 111.235595 2 175.124989 0
H  7 1.090579 5 111.623976 2 51.577198 0
H  7 1.103309 5 107.568037 2 -66.194155 0
Cl 5 2.499999 2 102.836727 1 81.123251 0
$end

PES scan, value:    2.5000 energy: -1038.2958498525
------- Summary of potential scan: ------ 
    2.5000     -1038.2958498525
----------------------------------------- 
Archival summary:
1\1\hpc0332\JobtypUnspecified\ProcedureUnspecified\6-31G**\l236\knomura\TueMar1201:59:122019TueMar1201:59:122019\0\\#,JobtypUnspecified,ProcedureUnspecified,6-31G**,\\0,1\Cl\C,1,1.7984\H,2,1.08887,1,108.123\H,2,1.09983,1,106.515,3,116.439,0\C,2,1.49005,1,115.576,3,-124.763,0\H,5,1.08776,2,112.461,1,176.762,0\C,5,1.48235,2,122.911,1,-33.9948,0\H,7,1.08967,5,111.236,2,175.125,0\H,7,1.09058,5,111.624,2,51.5772,0\H,7,1.10331,5,107.568,2,-66.1942,0\Cl,5,2.5,2,102.837,1,81.1233,0\\\@

 Total job time:  33.51s(wall), 391.80s(cpu) 
 Tue Mar 12 01:59:12 2019

        *************************************************************
        *                                                           *
        *  Thank you very much for using Q-Chem.  Have a nice day.  *
        *                                                           *
        *************************************************************


