
Running Job 1 of 1 ruruma/CH3CHClCH2Cl_afterGeo_middle_singlet.xyz.data/inputs/bond_singlet_2.2.in
qchem ruruma/CH3CHClCH2Cl_afterGeo_middle_singlet.xyz.data/inputs/bond_singlet_2.2.in_25741.0 /staging/scratch/2858534/qchem25741/ 1
/usr/usc/qchem/5.1.1/exe/qcprog.exe_s ruruma/CH3CHClCH2Cl_afterGeo_middle_singlet.xyz.data/inputs/bond_singlet_2.2.in_25741.0 /staging/scratch/2858534/qchem25741/
Check license passed

                  Welcome to Q-Chem
     A Quantum Leap Into The Future Of Chemistry


 Q-Chem 5.1, Q-Chem, Inc., Pleasanton, CA (2018)

 Yihan Shao,  Zhengting Gan,  E. Epifanovsky,  A. T. B. Gilbert,  M. Wormit,  
 J. Kussmann,  A. W. Lange,  A. Behn,  Jia Deng,  Xintian Feng,  D. Ghosh,  
 M. Goldey,  P. R. Horn,  L. D. Jacobson,  I. Kaliman,  T. Kus,  A. Landau,  
 Jie Liu,  E. I. Proynov,  R. M. Richard,  R. P. Steele,  E. J. Sundstrom,  
 H. L. Woodcock III,  P. M. Zimmerman,  D. Zuev,  B. Albrecht,  E. Alguire,  
 S. A. Baeppler,  D. Barton,  Z. Benda,  Y. A. Bernard,  E. J. Berquist,  
 K. B. Bravaya,  H. Burton,  D. Casanova,  Chun-Min Chang,  Yunqing Chen,  
 A. Chien,  K. D. Closser,  M. P. Coons,  S. Coriani,  S. Dasgupta,  
 A. L. Dempwolff,  M. Diedenhofen,  Hainam Do,  R. G. Edgar,  Po-Tung Fang,  
 S. Faraji,  S. Fatehi,  Qingguo Feng,  K. D. Fenk,  J. Fosso-Tande,  
 Qinghui Ge,  A. Ghysels,  G. Gidofalvi,  J. Gomes,  J. Gonthier,  A. Gunina,  
 D. Hait,  M. W. D. Hanson-Heine,  P. H. P. Harbach,  A. W. Hauser,  
 J. E. Herr,  E. G. Hohenstein,  Z. C. Holden,  Kerwin Hui,  B. C. Huynh,  
 T.-C. Jagau,  Hyunjun Ji,  B. Kaduk,  K. Khistyaev,  Jaehoon Kim,  
 P. Klunzinger,  K. Koh,  D. Kosenkov,  L. Koulias,  T. Kowalczyk,  
 C. M. Krauter,  A. Kunitsa,  Ka Un Lao,  A. Laurent,  K. V. Lawler,  
 Joonho Lee,  D. Lefrancois,  S. Lehtola,  D. S. Levine,  Yi-Pei Li,  
 You-Sheng Lin,  Fenglai Liu,  E. Livshits,  A. Luenser,  P. Manohar,  
 E. Mansoor,  S. F. Manzer,  Shan-Ping Mao,  Yuezhi Mao,  N. Mardirossian,  
 A. V. Marenich,  T. Markovich,  L. A. Martinez-Martinez,  S. A. Maurer,  
 N. J. Mayhall,  S. C. McKenzie,  J.-M. Mewes,  A. F. Morrison,  
 J. W. Mullinax,  K. Nanda,  T. S. Nguyen-Beck,  R. Olivares-Amaya,  
 J. A. Parkhill,  T. M. Perrine,  F. Plasser,  P. Pokhilko,  S. Prager,  
 A. Prociuk,  E. Ramos,  D. R. Rehn,  F. Rob,  M. Schneider,  N. Sergueev,  
 S. M. Sharada,  S. Sharma,  D. W. Small,  T. Stauch,  T. Stein,  
 Yu-Chuan Su,  A. J. W. Thom,  A. Tkatchenko,  T. Tsuchimochi,  N. M. Tubman,  
 L. Vogt,  M. L. Vidal,  O. Vydrov,  M. A. Watson,  J. Wenzel,  
 M. de Wergifosse,  T. A. Wesolowski,  A. White,  J. Witte,  A. Yamada,  
 Jun Yang,  K. Yao,  S. Yeganeh,  S. R. Yost,  Zhi-Qiang You,  A. Zech,  
 Igor Ying Zhang,  Xing Zhang,  Yan Zhao,  Ying Zhu,  B. R. Brooks,  
 G. K. L. Chan,  C. J. Cramer,  M. S. Gordon,  W. J. Hehre,  A. Klamt,  
 M. W. Schmidt,  C. D. Sherrill,  D. G. Truhlar,  A. Aspuru-Guzik,  R. Baer,  
 A. T. Bell,  N. A. Besley,  Jeng-Da Chai,  A. E. DePrince, III,  
 R. A. DiStasio Jr.,  A. Dreuw,  B. D. Dunietz,  T. R. Furlani,  
 Chao-Ping Hsu,  Yousung Jung,  Jing Kong,  D. S. Lambrecht,  WanZhen Liang,  
 C. Ochsenfeld,  V. A. Rassolov,  L. V. Slipchenko,  J. E. Subotnik,  
 T. Van Voorhis,  J. M. Herbert,  A. I. Krylov,  P. M. W. Gill,  M. Head-Gordon

 Contributors to earlier versions of Q-Chem not listed above: 
 R. D. Adamson,  B. Austin,  J. Baker,  G. J. O. Beran,  K. Brandhorst,  
 S. T. Brown,  E. F. C. Byrd,  A. K. Chakraborty,  C.-L. Cheng,  
 Siu Hung Chien,  D. M. Chipman,  D. L. Crittenden,  H. Dachsel,  
 R. J. Doerksen,  A. D. Dutoi,  L. Fusti-Molnar,  W. A. Goddard III,  
 A. Golubeva-Zadorozhnaya,  S. R. Gwaltney,  G. Hawkins,  A. Heyden,  
 S. Hirata,  G. Kedziora,  F. J. Keil,  C. Kelley,  Jihan Kim,  R. A. King,  
 R. Z. Khaliullin,  P. P. Korambath,  W. Kurlancheek,  A. M. Lee,  M. S. Lee,  
 S. V. Levchenko,  Ching Yeh Lin,  D. Liotard,  R. C. Lochan,  I. Lotan,  
 P. E. Maslen,  N. Nair,  D. P. O'Neill,  D. Neuhauser,  E. Neuscamman,  
 C. M. Oana,  R. Olson,  B. Peters,  R. Peverati,  P. A. Pieniazek,  
 Y. M. Rhee,  J. Ritchie,  M. A. Rohrdanz,  E. Rosta,  N. J. Russ,  
 H. F. Schaefer III,  N. E. Schultz,  N. Shenvi,  A. C. Simmonett,  A. Sodt,  
 D. Stuck,  K. S. Thanthiriwatte,  V. Vanovschi,  Tao Wang,  A. Warshel,  
 C. F. Williams,  Q. Wu,  X. Xu,  W. Zhang

 Please cite Q-Chem as follows:
 Y. Shao et al., Mol. Phys. 113, 184-215 (2015)
 DOI: 10.1080/00268976.2014.952696

 Q-Chem 5.1.1 for Intel X86 EM64T Linux

 Parts of Q-Chem use Armadillo 8.300.2 (Tropical Shenanigans).
 http://arma.sourceforge.net/

 Q-Chem begins on Tue Mar 12 01:56:57 2019  

Host: 
0

     Scratch files written to /staging/scratch/2858534/qchem25741//
 Aug318 |scratch|qcdevops|jenkins|workspace|build_RNUM 6013   
Processing $rem in /usr/usc/qchem/5.1.1/config/preferences.
 MEM_TOTAL  2000 
Input Ideriv = 2
Curr. Ideriv = -1
Max.  Ideriv = 2

Checking the input file for inconsistencies... 	...done.

--------------------------------------------------------------
User input:
--------------------------------------------------------------

$comment
potential surface scanner
$end

$rem
JOBTYPE  PES_SCAN
UNRESTRICTED TRUE
SYM_IGNORE  TRUE
GEOM_OPT_MAX_CYCLES 400
SCF_MAX_CYCLES 400
METHOD   B3LYP
BASIS   6-31G**
PDB_PRINT 2
SCF_CONVERGENCE 6
THRESH 14
SCF_PRINT 1
$end
$molecule
0 1
Cl -1.343049 1.520545 0.254672
Cl 1.957884 0.059474 0.609462
C -0.578001 -0.274889 -0.520646
C 0.877095 -0.035549 -0.832907
C -0.943734 -1.363023 0.449535
H -1.149278 -0.300797 -1.448880
H 1.236495 -0.878885 -1.433206
H 1.009155 0.885722 -1.398012
H -0.471201 -1.204390 1.419659
H -2.025285 -1.420505 0.578322
H -0.589781 -2.322301 0.046799
$end
$scan
stre 1 3 2.200000 2.201000 0.100000
$end
--------------------------------------------------------------
 ----------------------------------------------------------------
             Standard Nuclear Orientation (Angstroms)
    I     Atom           X                Y                Z
 ----------------------------------------------------------------
    1      Cl     -1.3430490000     1.5205450000     0.2546720000
    2      Cl      1.9578840000     0.0594740000     0.6094620000
    3      C      -0.5780010000    -0.2748890000    -0.5206460000
    4      C       0.8770950000    -0.0355490000    -0.8329070000
    5      C      -0.9437340000    -1.3630230000     0.4495350000
    6      H      -1.1492780000    -0.3007970000    -1.4488800000
    7      H       1.2364950000    -0.8788850000    -1.4332060000
    8      H       1.0091550000     0.8857220000    -1.3980120000
    9      H      -0.4712010000    -1.2043900000     1.4196590000
   10      H      -2.0252850000    -1.4205050000     0.5783220000
   11      H      -0.5897810000    -2.3223010000     0.0467990000
 ----------------------------------------------------------------
 Nuclear Repulsion Energy =   274.3507527505 hartrees
 There are       29 alpha and       29 beta electrons
 Requested basis set is 6-31G(d,p)
 There are 40 shells and 113 basis functions

 Total QAlloc Memory Limit   2000 MB
 Mega-Array Size       188 MB
 MEM_STATIC part       192 MB
A total of 1 constraints
  
            1
    1   1.0100000
    2   1.0100000
    3   3.0100000
    4   2.2000000
    5   2.2010000
    6   0.1000000
    7   0.0000000
    8   0.0000000
    9   0.0000000
   10   0.0000000

                       Distance Matrix (Angstroms)
             Cl(  1)   Cl(  2)   C (  3)   C (  4)   C (  5)   H (  6)
   Cl(  2)  3.627225
   C (  3)  2.100000  2.796365
   C (  4)  2.921181  1.804872  1.507347
   C (  5)  2.917600  3.235500  1.503013  2.592733
   H (  6)  2.501384  3.744466  1.090251  2.134471  2.185075
   H (  7)  3.906436  2.360808  2.118956  1.095784  2.921045  2.454861
   H (  8)  2.944016  2.369119  2.153103  1.088818  3.504862  2.463584
   H (  9)  3.089107  2.855560  2.154103  2.873699  1.090684  3.082983
   H ( 10)  3.036440  4.249346  2.148208  3.511905  1.090707  2.476021
   H ( 11)  3.921491  3.532710  2.124624  2.855668  1.098951  2.576154
             H (  7)   H (  8)   H (  9)   H ( 10)
   H (  8)  1.779539
   H (  9)  3.340811  3.807794
   H ( 10)  3.870246  4.293298  1.780374
   H ( 11)  2.758469  3.864646  1.774410  1.776633
 
 A cutoff of  1.0D-14 yielded    784 shell pairs
 There are      6443 function pairs
 
 -------------------------------------------------------
 OpenMP Integral Computing Module                       
 Release: version 1.0, May 2013, Q-Chem Inc. Pittsburgh 
 -------------------------------------------------------
 Integral Job Info:
 Integral job number is                      11
 Integral operator is                         1
 short-range coefficients                     0
 long-range coefficients              100000000
 Omega coefficients                           0
 if combine SR and LR in K                    0
 Integral screening is                        0
 Integral computing path is                   2
 max size of driver memory is            800000
 size of driver memory is                593474
 size of scratch memory is             15267112
 max col of scratch BK array               1296
 max len of scratch array in speh3          155
 max len of scratch index in speh4           18
 max int batch size is                      520
 min int batch size is                       52
 fixed nKL is                                52
 max L of basis functions is                  2
 order of int derivative is                   0
 number of shells is                         40
 number of basis is                         113
 number of cartesian basis is               113
 number of contracted shell pairs           784
 number of primitive shell pairs           3217
 maxK2 (contraction) of shell pair           36
 max number of K2 of shell pair               1
 max number of CS2 of shell pair             62
 max number of PS2 of shell pair            324
 mem total for path MDJ                  520332
 -------------------------------------------------------
 Smallest overlap matrix eigenvalue = 5.79E-03

 Scale SEOQF with 1.000000e-01/1.000000e-01/1.000000e+00

 Standard Electronic Orientation quadrupole field applied
 Nucleus-field energy     =    -0.0000000160 hartrees
 Guess from superposition of atomic densities
 Warning:  Energy on first SCF cycle will be non-variational
 SAD guess density has 58.000000 electrons

 -----------------------------------------------------------------------
  General SCF calculation program by
  Eric Jon Sundstrom, Paul Horn, Yuezhi Mao, Dmitri Zuev, Alec White,
  David Stuck, Shaama M.S., Shane Yost, Joonho Lee, David Small,
  Daniel Levine, Susi Lehtola, Hugh Burton, Evgeny Epifanovsky
 -----------------------------------------------------------------------
 Exchange:     0.2000 Hartree-Fock + 0.0800 Slater + 0.7200 B88
 Correlation:  0.1900 VWN1RPA + 0.8100 LYP
 Using SG-1 standard quadrature grid
 using 12 threads for integral computing
 -------------------------------------------------------
 OpenMP Integral computing Module                
 Release: version 1.0, May 2013, Q-Chem Inc. Pittsburgh 
 -------------------------------------------------------
 -------------------------------------------------------
 OpenMP BLAS3 based DFT computing Module                
 Release: version 1.0, May 2013, Q-Chem Inc. Pittsburgh 
 -------------------------------------------------------
 A unrestricted SCF calculation will be
 performed using DIIS
 SCF converges when DIIS error is below 1.0e-06
 Alpha HF Exchange    Energy =  -7.28600541115020
 Beta HF Exchange     Energy =  -7.28600541115020
 DFT Correlation      Energy =  -2.76743485828238
 DFT Exchange         Energy = -57.35514762213002
 One-Electron (alpha) Energy = -985.46356358828746
 One-Electron (beta)  Energy = -985.46356358828746
 Total Coulomb        Energy = 732.51230107428319
 ---------------------------------------
  Cycle       Energy         DIIS error
 ---------------------------------------
    1   -1038.7586666704      2.73e-02  
 Alpha HF Exchange    Energy =  -7.29256808711839
 Beta HF Exchange     Energy =  -7.29256808711838
 DFT Correlation      Energy =  -2.78948095047157
 DFT Exchange         Energy = -57.86792600757587
 One-Electron (alpha) Energy = -988.80029336067116
 One-Electron (beta)  Energy = -988.80029336067082
 Total Coulomb        Energy = 740.21582828352518
    2   -1038.2765488355      2.71e-03  
 Alpha HF Exchange    Energy =  -7.24495215902474
 Beta HF Exchange     Energy =  -7.24495215902473
 DFT Correlation      Energy =  -2.77195689387353
 DFT Exchange         Energy = -57.48061300512448
 One-Electron (alpha) Energy = -985.76190279479852
 One-Electron (beta)  Energy = -985.76190279479829
 Total Coulomb        Energy = 733.63918445905210
    3   -1038.2763426130      2.79e-03  
 Alpha HF Exchange    Energy =  -7.26608478627751
 Beta HF Exchange     Energy =  -7.26608478627752
 DFT Correlation      Energy =  -2.77948766023119
 DFT Exchange         Energy = -57.64783249652443
 One-Electron (alpha) Energy = -987.13774080417170
 One-Electron (beta)  Energy = -987.13774080417204
 Total Coulomb        Energy = 736.55696290488606
    4   -1038.3272556982      4.36e-04  
 Alpha HF Exchange    Energy =  -7.26692139758520
 Beta HF Exchange     Energy =  -7.26692139758520
 DFT Correlation      Energy =  -2.78035397821817
 DFT Exchange         Energy = -57.65786702507245
 One-Electron (alpha) Energy = -987.24192371144159
 One-Electron (beta)  Energy = -987.24192371144113
 Total Coulomb        Energy = 736.77693994808476
    5   -1038.3282185387      2.19e-04  
 Alpha HF Exchange    Energy =  -7.26704543741179
 Beta HF Exchange     Energy =  -7.26704543741179
 DFT Correlation      Energy =  -2.78008007048782
 DFT Exchange         Energy = -57.65745467248810
 One-Electron (alpha) Energy = -987.21986756317835
 One-Electron (beta)  Energy = -987.21986756317835
 Total Coulomb        Energy = 736.73205616465350
    6   -1038.3285518449      4.29e-05  
 Alpha HF Exchange    Energy =  -7.26682472450515
 Beta HF Exchange     Energy =  -7.26682472450515
 DFT Correlation      Energy =  -2.78005759913213
 DFT Exchange         Energy = -57.65580500393838
 One-Electron (alpha) Energy = -987.20745029548220
 One-Electron (beta)  Energy = -987.20745029548186
 Total Coulomb        Energy = 736.70509546594894
    7   -1038.3285644425      8.03e-06  
 Alpha HF Exchange    Energy =  -7.26687488318165
 Beta HF Exchange     Energy =  -7.26687488318165
 DFT Correlation      Energy =  -2.78006948907384
 DFT Exchange         Energy = -57.65618675158945
 One-Electron (alpha) Energy = -987.21196136302081
 One-Electron (beta)  Energy = -987.21196136302115
 Total Coulomb        Energy = 736.71461116443027
    8   -1038.3285648341      2.76e-06  
 Alpha HF Exchange    Energy =  -7.26687261946274
 Beta HF Exchange     Energy =  -7.26687261946274
 DFT Correlation      Energy =  -2.78006996197218
 DFT Exchange         Energy = -57.65617200663199
 One-Electron (alpha) Energy = -987.21178194372396
 One-Electron (beta)  Energy = -987.21178194372385
 Total Coulomb        Energy = 736.71423347977725
    9   -1038.3285648806      6.60e-07  Convergence criterion met
 ---------------------------------------
 SCF time:   CPU 24.34s  wall 2.00s 
<S^2> =         -0.000000000
 Alpha HF Exchange    Energy =  -7.26687261946274
 Beta HF Exchange     Energy =  -7.26687261946274
 DFT Correlation      Energy =  -2.78006996197218
 DFT Exchange         Energy = -57.65617200663199
 One-Electron (alpha) Energy = -987.21178194372396
 One-Electron (beta)  Energy = -987.21178194372385
 Total Coulomb        Energy = 736.71423347977725
 Nuclear repulsion Energy = 274.35075273455482
 SCF   energy in the final basis set =    -1038.3285648806
 Total energy in the final basis set =    -1038.3285648806
 
 --------------------------------------------------------------
 
                    Orbital Energies (a.u.)
 --------------------------------------------------------------
 
 Alpha MOs
 -- Occupied --
*******-101.519 -10.289 -10.272 -10.209  -9.463  -9.433  -7.227
 -7.217  -7.217  -7.197  -7.188  -7.188  -0.882  -0.815  -0.758
 -0.712  -0.598  -0.502  -0.490  -0.452  -0.428  -0.404  -0.390
 -0.344  -0.311  -0.307  -0.289  -0.287
 -- Virtual --
 -0.054   0.017   0.070   0.119   0.129   0.135   0.152   0.167
  0.191   0.224   0.375   0.391   0.418   0.429   0.446   0.457
  0.472   0.497   0.516   0.530   0.562   0.584   0.592   0.659
  0.668   0.689   0.741   0.794   0.807   0.843   0.849   0.863
  0.878   0.891   0.894   0.911   0.920   0.928   0.948   0.983
  1.029   1.044   1.073   1.175   1.307   1.370   1.394   1.525
  1.562   1.688   1.784   1.839   1.846   1.868   2.011   2.023
  2.043   2.066   2.079   2.101   2.211   2.258   2.316   2.378
  2.477   2.542   2.591   2.631   2.685   2.721   2.806   2.851
  2.885   3.180   3.226   3.322   3.390   3.426   3.447   4.158
  4.268   4.292   4.432   4.567
 
 Beta MOs
 -- Occupied --
*******-101.519 -10.289 -10.272 -10.209  -9.463  -9.433  -7.227
 -7.217  -7.217  -7.197  -7.188  -7.188  -0.882  -0.815  -0.758
 -0.712  -0.598  -0.502  -0.490  -0.452  -0.428  -0.404  -0.390
 -0.344  -0.311  -0.307  -0.289  -0.287
 -- Virtual --
 -0.054   0.017   0.070   0.119   0.129   0.135   0.152   0.167
  0.191   0.224   0.375   0.391   0.418   0.429   0.446   0.457
  0.472   0.497   0.516   0.530   0.562   0.584   0.592   0.659
  0.668   0.689   0.741   0.794   0.807   0.843   0.849   0.863
  0.878   0.891   0.894   0.911   0.920   0.928   0.948   0.983
  1.029   1.044   1.073   1.175   1.307   1.370   1.394   1.525
  1.562   1.688   1.784   1.839   1.846   1.868   2.011   2.023
  2.043   2.066   2.079   2.101   2.211   2.258   2.316   2.378
  2.477   2.542   2.591   2.631   2.685   2.721   2.806   2.851
  2.885   3.180   3.226   3.322   3.390   3.426   3.447   4.158
  4.268   4.292   4.432   4.567
 --------------------------------------------------------------
 
          Ground-State Mulliken Net Atomic Charges

     Atom                 Charge (a.u.)    Spin (a.u.)
  --------------------------------------------------------
      1 Cl                   -0.215687       0.000000
      2 Cl                   -0.055348      -0.000000
      3 C                    -0.107265      -0.000000
      4 C                    -0.271839      -0.000000
      5 C                    -0.307798       0.000000
      6 H                     0.172020       0.000000
      7 H                     0.166516       0.000000
      8 H                     0.187352       0.000000
      9 H                     0.164025      -0.000000
     10 H                     0.144213       0.000000
     11 H                     0.123812      -0.000000
  --------------------------------------------------------
  Sum of atomic charges =    -0.000000
  Sum of spin   charges =    -0.000000

 -----------------------------------------------------------------
                    Cartesian Multipole Moments
 -----------------------------------------------------------------
    Charge (ESU x 10^10)
                -0.0000
    Dipole Moment (Debye)
         X       0.0251      Y      -2.9911      Z      -2.3565
       Tot       3.8079
    Quadrupole Moments (Debye-Ang)
        XX     -48.5164     XY       3.3550     YY     -46.0884
        XZ      -1.0934     YZ      -0.3798     ZZ     -42.2734
    Octopole Moments (Debye-Ang^2)
       XXX     -11.3423    XXY     -12.6364    XYY      -0.9161
       YYY     -28.8432    XXZ      -6.5125    XYZ       0.1538
       YYZ      -5.6933    XZZ      -0.5836    YZZ      -9.0652
       ZZZ     -16.8420
    Hexadecapole Moments (Debye-Ang^3)
      XXXX    -587.7443   XXXY      51.0313   XXYY    -152.7800
      XYYY      42.6672   YYYY    -325.8494   XXXZ      -8.9736
      XXYZ      -0.2567   XYYZ      -8.9291   YYYZ      -1.1000
      XXZZ    -113.4493   XYZZ      15.0655   YYZZ     -78.9593
      XZZZ      -8.1719   YZZZ      -5.6019   ZZZZ    -143.7502
 -----------------------------------------------------------------
 Calculating analytic gradient of the SCF energy
 Gradient of SCF Energy
            1           2           3           4           5           6
    1  -0.0145613  -0.0000099   0.0144645   0.0000941   0.0000203  -0.0000021
    2   0.0340903   0.0000166  -0.0340464  -0.0000911  -0.0001255   0.0000425
    3   0.0147024  -0.0000038  -0.0147196  -0.0000166  -0.0000332   0.0000173
            7           8           9          10          11
    1   0.0000019  -0.0000145   0.0000163   0.0000047  -0.0000139
    2   0.0000378   0.0000211   0.0000118   0.0000344   0.0000086
    3  -0.0000095   0.0000075  -0.0000028   0.0000376   0.0000208
 Max gradient component =       3.409E-02
 RMS gradient           =       9.809E-03
 Gradient time:  CPU 9.41 s  wall 0.80 s
 Geometry Optimization Parameters
   NAtoms,    NIC,     NZ,  NCons,   NDum,   NFix, NCnnct, MaxDiis
       11      68       0       1       0       0       0       0


** CONSTRAINED OPTIMIZATION IN DELOCALIZED INTERNAL COORDINATES **
   Searching for a Minimum

   Optimization Cycle:   1

                       Coordinates (Angstroms)
     ATOM                X               Y               Z
      1  Cl       -1.3430490000    1.5205450000    0.2546720000
      2  Cl        1.9578840000    0.0594740000    0.6094620000
      3  C        -0.5780010000   -0.2748890000   -0.5206460000
      4  C         0.8770950000   -0.0355490000   -0.8329070000
      5  C        -0.9437340000   -1.3630230000    0.4495350000
      6  H        -1.1492780000   -0.3007970000   -1.4488800000
      7  H         1.2364950000   -0.8788850000   -1.4332060000
      8  H         1.0091550000    0.8857220000   -1.3980120000
      9  H        -0.4712010000   -1.2043900000    1.4196590000
     10  H        -2.0252850000   -1.4205050000    0.5783220000
     11  H        -0.5897810000   -2.3223010000    0.0467990000
   Point Group: c1    Number of degrees of freedom:    27


   Energy is  -1038.328564881

              Constraints and their Current Values
                                        Value     Constraint
   Distance(Angs):        1   3             2.100000     2.200000

 Attempting to Generate Delocalized Internal Coordinates

   Using Lagrange Multiplier Algorithm


 28 Hessian modes will be used to form the next step
  Hessian Eigenvalues:
    -0.942538    0.045000    0.045000    0.066905    0.079804    0.080334
     0.082685    0.085242    0.086746    0.125515    0.160000    0.160000
     0.160000    0.160000    0.160000    0.188745    0.223850    0.229228
     0.257366    0.316186    0.320633    0.337984    0.341527    0.347310
     0.347337    0.347837    0.349496    1.060965

 Minimum Search - Taking P-RFO Step
 Searching for Lamda that Maximizes Along the Constraint modes Only
 Value Taken    Lamda =   0.02800661
 Searching for Lamda that Minimizes Along All other modes
 Value Taken    Lamda =  -0.00945380
 Step Taken.  Stepsize is  0.184906

                             Maximum     Tolerance    Cnvgd?
         Gradient            0.188973       0.000300      NO
         Displacement        0.184901       0.001200      NO
         Energy change     *********       0.000001      NO


 New Cartesian Coordinates Obtained by Inverse Iteration

 Displacement from previous Coordinates is:  0.174937
 ----------------------------------------------------------------
             Standard Nuclear Orientation (Angstroms)
    I     Atom           X                Y                Z
 ----------------------------------------------------------------
    1      Cl     -1.3786867713     1.5960326534     0.2818255423
    2      Cl      1.9593414810     0.0564540696     0.6080637676
    3      C      -0.5745274907    -0.2836414450    -0.5248205155
    4      C       0.8805401564    -0.0428681492    -0.8355153311
    5      C      -0.9402659313    -1.3702185090     0.4469685574
    6      H      -1.1443942850    -0.3124397532    -1.4538603199
    7      H       1.2417629082    -0.8871322350    -1.4334707091
    8      H       1.0122581272     0.8773041875    -1.4024615835
    9      H      -0.4695926692    -1.2091797616     1.4175926573
   10      H      -2.0219445306    -1.4292099534     0.5739765305
   11      H      -0.5841909947    -2.3296991043     0.0464994040
 ----------------------------------------------------------------
 Nuclear Repulsion Energy =   271.0076487229 hartrees
 There are       29 alpha and       29 beta electrons

                       Distance Matrix (Angstroms)
             Cl(  1)   Cl(  2)   C (  3)   C (  4)   C (  5)   H (  6)
   Cl(  2)  3.690415
   C (  3)  2.197845  2.796352
   C (  4)  3.006419  1.804882  1.507224
   C (  5)  3.003020  3.235594  1.502927  2.592674
   H (  6)  2.590321  3.744434  1.090272  2.134333  2.184883
   H (  7)  3.996887  2.360749  2.118669  1.095817  2.920732  2.454472
   H (  8)  3.011646  2.369172  2.153123  1.088804  3.504868  2.463591
   H (  9)  3.160006  2.856026  2.154206  2.873958  1.090678  3.082976
   H ( 10)  3.106642  4.249588  2.148185  3.511841  1.090706  2.475761
   H ( 11)  4.012228  3.532512  2.124347  2.855343  1.098985  2.575702
             H (  7)   H (  8)   H (  9)   H ( 10)
   H (  8)  1.779570
   H (  9)  3.340811  3.808150
   H ( 10)  3.869816  4.293332  1.780421
   H ( 11)  2.757792  3.864325  1.774428  1.776583
 
 Applying Cartesian multipole field
    Component          Value
    ---------          -----
     (2,0,0)        1.00000E-11
     (0,2,0)        2.00000E-11
     (0,0,2)       -3.00000E-10
 Nucleus-field energy     =    -0.0000000159 hartrees
 Requested basis set is 6-31G(d,p)
 There are 40 shells and 113 basis functions
 A cutoff of  1.0D-14 yielded    783 shell pairs
 There are      6440 function pairs
 Smallest overlap matrix eigenvalue = 5.90E-03
 Guess from superposition of atomic densities
 Warning:  Energy on first SCF cycle will be non-variational
 SAD guess density has 58.000000 electrons

 -----------------------------------------------------------------------
  General SCF calculation program by
  Eric Jon Sundstrom, Paul Horn, Yuezhi Mao, Dmitri Zuev, Alec White,
  David Stuck, Shaama M.S., Shane Yost, Joonho Lee, David Small,
  Daniel Levine, Susi Lehtola, Hugh Burton, Evgeny Epifanovsky
 -----------------------------------------------------------------------
 Exchange:     0.2000 Hartree-Fock + 0.0800 Slater + 0.7200 B88
 Correlation:  0.1900 VWN1RPA + 0.8100 LYP
 Using SG-1 standard quadrature grid
 using 12 threads for integral computing
 -------------------------------------------------------
 OpenMP Integral computing Module                
 Release: version 1.0, May 2013, Q-Chem Inc. Pittsburgh 
 -------------------------------------------------------
 -------------------------------------------------------
 OpenMP BLAS3 based DFT computing Module                
 Release: version 1.0, May 2013, Q-Chem Inc. Pittsburgh 
 -------------------------------------------------------
 A unrestricted SCF calculation will be
 performed using DIIS
 SCF converges when DIIS error is below 1.0e-06
 Alpha HF Exchange    Energy =  -7.28116191431888
 Beta HF Exchange     Energy =  -7.28116191431888
 DFT Correlation      Energy =  -2.76540023463300
 DFT Exchange         Energy = -57.34594962657030
 One-Electron (alpha) Energy = -982.12627033835804
 One-Electron (beta)  Energy = -982.12627033835804
 Total Coulomb        Energy = 729.20205114465534
 ---------------------------------------
  Cycle       Energy         DIIS error
 ---------------------------------------
    1   -1038.7165145149      2.70e-02  
 Alpha HF Exchange    Energy =  -7.29110227281105
 Beta HF Exchange     Energy =  -7.29110227281105
 DFT Correlation      Energy =  -2.78749931188301
 DFT Exchange         Energy = -57.85859273629737
 One-Electron (alpha) Energy = -985.48963061109873
 One-Electron (beta)  Energy = -985.48963061109907
 Total Coulomb        Energy = 736.93490963296153
    2   -1038.2649994761      2.76e-03  
 Alpha HF Exchange    Energy =  -7.24120198904757
 Beta HF Exchange     Energy =  -7.24120198904756
 DFT Correlation      Energy =  -2.77010983096597
 DFT Exchange         Energy = -57.45903861760249
 One-Electron (alpha) Energy = -982.35384212342456
 One-Electron (beta)  Energy = -982.35384212342467
 Total Coulomb        Energy = 730.15852561421309
    3   -1038.2530623523      3.11e-03  
 Alpha HF Exchange    Energy =  -7.26354645775250
 Beta HF Exchange     Energy =  -7.26354645775250
 DFT Correlation      Energy =  -2.77695572524065
 DFT Exchange         Energy = -57.62981144672746
 One-Electron (alpha) Energy = -983.74702631267894
 One-Electron (beta)  Energy = -983.74702631267917
 Total Coulomb        Energy = 733.10392893150583
    4   -1038.3163350743      7.48e-04  
 Alpha HF Exchange    Energy =  -7.26439557045480
 Beta HF Exchange     Energy =  -7.26439557045479
 DFT Correlation      Energy =  -2.77835050165979
 DFT Exchange         Energy = -57.64269761261354
 One-Electron (alpha) Energy = -983.88844112364461
 One-Electron (beta)  Energy = -983.88844112364416
 Total Coulomb        Energy = 733.39902562745806
    5   -1038.3200471680      2.40e-04  
 Alpha HF Exchange    Energy =  -7.26475529747910
 Beta HF Exchange     Energy =  -7.26475529747910
 DFT Correlation      Energy =  -2.77811793590437
 DFT Exchange         Energy = -57.64403945141333
 One-Electron (alpha) Energy = -983.88136088721012
 One-Electron (beta)  Energy = -983.88136088720955
 Total Coulomb        Energy = 733.38627799602637
    6   -1038.3204630537      4.20e-05  
 Alpha HF Exchange    Energy =  -7.26451090771324
 Beta HF Exchange     Energy =  -7.26451090771324
 DFT Correlation      Energy =  -2.77807431121576
 DFT Exchange         Energy = -57.64211824171602
 One-Electron (alpha) Energy = -983.86536424942574
 One-Electron (beta)  Energy = -983.86536424942540
 Total Coulomb        Energy = 733.35181984772782
    7   -1038.3204743125      1.08e-05  
 Alpha HF Exchange    Energy =  -7.26455964633193
 Beta HF Exchange     Energy =  -7.26455964633193
 DFT Correlation      Energy =  -2.77808515901645
 DFT Exchange         Energy = -57.64248483220827
 One-Electron (alpha) Energy = -983.86977497673172
 One-Electron (beta)  Energy = -983.86977497673161
 Total Coulomb        Energy = 733.36111550813769
    8   -1038.3204750222      3.18e-06  
 Alpha HF Exchange    Energy =  -7.26456364567200
 Beta HF Exchange     Energy =  -7.26456364567200
 DFT Correlation      Energy =  -2.77808770678899
 DFT Exchange         Energy = -57.64252016479752
 One-Electron (alpha) Energy = -983.87017961996071
 One-Electron (beta)  Energy = -983.87017961996060
 Total Coulomb        Energy = 733.36197061292830
    9   -1038.3204750829      7.61e-07  Convergence criterion met
 ---------------------------------------
 SCF time:   CPU 23.74s  wall 2.00s 
<S^2> =         -0.000000000
 Alpha HF Exchange    Energy =  -7.26456364567200
 Beta HF Exchange     Energy =  -7.26456364567200
 DFT Correlation      Energy =  -2.77808770678899
 DFT Exchange         Energy = -57.64252016479752
 One-Electron (alpha) Energy = -983.87017961996071
 One-Electron (beta)  Energy = -983.87017961996060
 Total Coulomb        Energy = 733.36197061292830
 Nuclear repulsion Energy = 271.00764870698328
 SCF   energy in the final basis set =    -1038.3204750829
 Total energy in the final basis set =    -1038.3204750829
 
 --------------------------------------------------------------
 
                    Orbital Energies (a.u.)
 --------------------------------------------------------------
 
 Alpha MOs
 -- Occupied --
*******-101.515 -10.296 -10.275 -10.212  -9.465  -9.428  -7.229
 -7.219  -7.218  -7.192  -7.183  -7.183  -0.883  -0.812  -0.755
 -0.715  -0.601  -0.504  -0.492  -0.454  -0.431  -0.407  -0.391
 -0.335  -0.313  -0.308  -0.285  -0.283
 -- Virtual --
 -0.074   0.014   0.069   0.117   0.127   0.133   0.151   0.165
  0.189   0.224   0.376   0.390   0.417   0.428   0.443   0.454
  0.478   0.496   0.516   0.530   0.565   0.585   0.597   0.655
  0.661   0.690   0.742   0.783   0.804   0.841   0.847   0.861
  0.881   0.888   0.889   0.911   0.920   0.925   0.945   0.979
  1.021   1.033   1.060   1.167   1.302   1.365   1.387   1.497
  1.549   1.676   1.779   1.835   1.843   1.863   2.007   2.020
  2.040   2.062   2.075   2.095   2.206   2.254   2.312   2.375
  2.473   2.538   2.587   2.627   2.680   2.718   2.803   2.848
  2.882   3.177   3.223   3.317   3.386   3.421   3.444   4.155
  4.264   4.289   4.428   4.563
 
 Beta MOs
 -- Occupied --
*******-101.515 -10.296 -10.275 -10.212  -9.465  -9.428  -7.229
 -7.219  -7.218  -7.192  -7.183  -7.183  -0.883  -0.812  -0.755
 -0.715  -0.601  -0.504  -0.492  -0.454  -0.431  -0.407  -0.391
 -0.335  -0.313  -0.308  -0.285  -0.283
 -- Virtual --
 -0.074   0.014   0.069   0.117   0.127   0.133   0.151   0.165
  0.189   0.224   0.376   0.390   0.417   0.428   0.443   0.454
  0.478   0.496   0.516   0.530   0.565   0.585   0.597   0.655
  0.661   0.690   0.742   0.783   0.804   0.841   0.847   0.861
  0.881   0.888   0.889   0.911   0.920   0.925   0.945   0.979
  1.021   1.033   1.060   1.167   1.302   1.365   1.387   1.497
  1.549   1.676   1.779   1.835   1.843   1.863   2.007   2.020
  2.040   2.062   2.075   2.095   2.206   2.254   2.312   2.375
  2.473   2.538   2.587   2.627   2.680   2.718   2.803   2.848
  2.882   3.177   3.223   3.317   3.386   3.421   3.444   4.155
  4.264   4.289   4.428   4.563
 --------------------------------------------------------------
 
          Ground-State Mulliken Net Atomic Charges

     Atom                 Charge (a.u.)    Spin (a.u.)
  --------------------------------------------------------
      1 Cl                   -0.255260       0.000000
      2 Cl                   -0.051853      -0.000000
      3 C                    -0.077855      -0.000000
      4 C                    -0.276615       0.000000
      5 C                    -0.313222      -0.000000
      6 H                     0.172082      -0.000000
      7 H                     0.169451       0.000000
      8 H                     0.190959      -0.000000
      9 H                     0.167225       0.000000
     10 H                     0.147642       0.000000
     11 H                     0.127448       0.000000
  --------------------------------------------------------
  Sum of atomic charges =    -0.000000
  Sum of spin   charges =    -0.000000

 -----------------------------------------------------------------
                    Cartesian Multipole Moments
 -----------------------------------------------------------------
    Charge (ESU x 10^10)
                 0.0000
    Dipole Moment (Debye)
         X       0.2207      Y      -3.3503      Z      -2.4561
       Tot       4.1600
    Quadrupole Moments (Debye-Ang)
        XX     -48.7284     XY       3.8377     YY     -46.4448
        XZ      -1.0332     YZ      -0.4528     ZZ     -42.2007
    Octopole Moments (Debye-Ang^2)
       XXX      -9.2083    XXY     -14.2837    XYY       0.1766
       YYY     -32.9387    XXZ      -6.9243    XYZ       0.3101
       YYZ      -6.1274    XZZ       0.0232    YZZ     -10.1537
       ZZZ     -17.8797
    Hexadecapole Moments (Debye-Ang^3)
      XXXX    -596.6435   XXXY      59.2142   XXYY    -158.2823
      XYYY      50.8913   YYYY    -346.4619   XXXZ      -6.8865
      XXYZ      -1.2210   XYYZ      -8.2773   YYYZ      -3.9026
      XXZZ    -114.8756   XYZZ      17.5244   YYZZ     -82.4571
      XZZZ      -6.2123   YZZZ      -8.2949   ZZZZ    -144.5533
 -----------------------------------------------------------------
 Calculating analytic gradient of the SCF energy
 Gradient of SCF Energy
            1           2           3           4           5           6
    1  -0.0171765   0.0000507   0.0123754   0.0018014   0.0013325   0.0014929
    2   0.0400123   0.0001978  -0.0301866  -0.0033981  -0.0043654  -0.0028907
    3   0.0173861   0.0002980  -0.0139554  -0.0025841  -0.0012376  -0.0009978
            7           8           9          10          11
    1   0.0005953  -0.0000370  -0.0000741   0.0000058  -0.0003663
    2   0.0004136  -0.0000007   0.0002128   0.0001531  -0.0001480
    3   0.0002500   0.0001534  -0.0000309   0.0000494   0.0006689
 Max gradient component =       4.001E-02
 RMS gradient           =       1.032E-02
 Gradient time:  CPU 9.42 s  wall 0.79 s
 Geometry Optimization Parameters
   NAtoms,    NIC,     NZ,  NCons,   NDum,   NFix, NCnnct, MaxDiis
       11      68       0       1       0       0       0       0

 Cartesian Hessian Update
 Hessian Updated using BFGS Update


** CONSTRAINED OPTIMIZATION IN DELOCALIZED INTERNAL COORDINATES **
   Searching for a Minimum

   Optimization Cycle:   2

                       Coordinates (Angstroms)
     ATOM                X               Y               Z
      1  Cl       -1.3786867713    1.5960326534    0.2818255423
      2  Cl        1.9593414810    0.0564540696    0.6080637676
      3  C        -0.5745274907   -0.2836414450   -0.5248205155
      4  C         0.8805401564   -0.0428681492   -0.8355153311
      5  C        -0.9402659313   -1.3702185090    0.4469685574
      6  H        -1.1443942850   -0.3124397532   -1.4538603199
      7  H         1.2417629082   -0.8871322350   -1.4334707091
      8  H         1.0122581272    0.8773041875   -1.4024615835
      9  H        -0.4695926692   -1.2091797616    1.4175926573
     10  H        -2.0219445306   -1.4292099534    0.5739765305
     11  H        -0.5841909947   -2.3296991043    0.0464994040
   Point Group: c1    Number of degrees of freedom:    27


   Energy is  -1038.320475083

              Constraints and their Current Values
                                        Value     Constraint
   Distance(Angs):        1   3             2.197845     2.200000
 Hessian Updated using BFGS Update

   Using Lagrange Multiplier Algorithm


 25 Hessian modes will be used to form the next step
  Hessian Eigenvalues:
    -0.981662    0.045000    0.045028    0.075784    0.080063    0.081182
     0.083487    0.085242    0.086873    0.125533    0.160000    0.162348
     0.188785    0.223952    0.234144    0.257438    0.317745    0.327930
     0.338054    0.341603    0.347310    0.347338    0.347868    0.349508
     1.019840

 Minimum Search - Taking P-RFO Step
 Searching for Lamda that Maximizes Along the Constraint modes Only
 Value Taken    Lamda =   0.00003439
 Searching for Lamda that Minimizes Along All other modes
 Value Taken    Lamda =  -0.00039745
 Step Taken.  Stepsize is  0.050346

                             Maximum     Tolerance    Cnvgd?
         Gradient            0.012274       0.000300      NO
         Displacement        0.032070       0.001200      NO
         Energy change      0.008090       0.000001      NO


 New Cartesian Coordinates Obtained by Inverse Iteration

 Displacement from previous Coordinates is:  0.031417
 ----------------------------------------------------------------
             Standard Nuclear Orientation (Angstroms)
    I     Atom           X                Y                Z
 ----------------------------------------------------------------
    1      Cl     -1.3736847305     1.5894379535     0.2792451429
    2      Cl      1.9597786768     0.0568109493     0.6082162799
    3      C      -0.5701413220    -0.2928698393    -0.5277412908
    4      C       0.8806396708    -0.0412842280    -0.8346019593
    5      C      -0.9413002603    -1.3693300520     0.4481432577
    6      H      -1.1451537127    -0.3114528831    -1.4536556246
    7      H       1.2421425715    -0.8838217467    -1.4354253142
    8      H       1.0081852399     0.8807040999    -1.3997559304
    9      H      -0.4701412478    -1.2081502977     1.4185474031
   10      H      -2.0232474698    -1.4250058385     0.5744080687
   11      H      -0.5867774159    -2.3296361174     0.0474179670
 ----------------------------------------------------------------
 Nuclear Repulsion Energy =   271.2761973353 hartrees
 There are       29 alpha and       29 beta electrons

                       Distance Matrix (Angstroms)
             Cl(  1)   Cl(  2)   C (  3)   C (  4)   C (  5)   H (  6)
   Cl(  2)  3.683632
   C (  3)  2.199998  2.795205
   C (  4)  2.996980  1.804408  1.504069
   C (  5)  2.994961  3.236628  1.499625  2.593956
   H (  6)  2.582355  3.745336  1.090093  2.135429  2.185749
   H (  7)  3.987438  2.361411  2.111276  1.096149  2.924204  2.455020
   H (  8)  2.999109  2.369870  2.151465  1.088912  3.503980  2.461912
   H (  9)  3.152919  2.856794  2.153086  2.874520  1.090713  3.083709
   H ( 10)  3.097729  4.249873  2.146621  3.511774  1.090712  2.474690
   H ( 11)  4.004012  3.534766  2.116483  2.857941  1.099297  2.576445
             H (  7)   H (  8)   H (  9)   H ( 10)
   H (  8)  1.780326
   H (  9)  3.343989  3.806783
   H ( 10)  3.872348  4.289896  1.780937
   H ( 11)  2.762997  3.865812  1.775199  1.777504
 
 Applying Cartesian multipole field
    Component          Value
    ---------          -----
     (2,0,0)        1.00000E-11
     (0,2,0)        2.00000E-11
     (0,0,2)       -3.00000E-10
 Nucleus-field energy     =    -0.0000000159 hartrees
 Requested basis set is 6-31G(d,p)
 There are 40 shells and 113 basis functions
 A cutoff of  1.0D-14 yielded    784 shell pairs
 There are      6443 function pairs
 Smallest overlap matrix eigenvalue = 5.88E-03
 Guess from superposition of atomic densities
 Warning:  Energy on first SCF cycle will be non-variational
 SAD guess density has 58.000000 electrons

 -----------------------------------------------------------------------
  General SCF calculation program by
  Eric Jon Sundstrom, Paul Horn, Yuezhi Mao, Dmitri Zuev, Alec White,
  David Stuck, Shaama M.S., Shane Yost, Joonho Lee, David Small,
  Daniel Levine, Susi Lehtola, Hugh Burton, Evgeny Epifanovsky
 -----------------------------------------------------------------------
 Exchange:     0.2000 Hartree-Fock + 0.0800 Slater + 0.7200 B88
 Correlation:  0.1900 VWN1RPA + 0.8100 LYP
 Using SG-1 standard quadrature grid
 using 12 threads for integral computing
 -------------------------------------------------------
 OpenMP Integral computing Module                
 Release: version 1.0, May 2013, Q-Chem Inc. Pittsburgh 
 -------------------------------------------------------
 -------------------------------------------------------
 OpenMP BLAS3 based DFT computing Module                
 Release: version 1.0, May 2013, Q-Chem Inc. Pittsburgh 
 -------------------------------------------------------
 A unrestricted SCF calculation will be
 performed using DIIS
 SCF converges when DIIS error is below 1.0e-06
 Alpha HF Exchange    Energy =  -7.28185339311975
 Beta HF Exchange     Energy =  -7.28185339311975
 DFT Correlation      Energy =  -2.76558622521710
 DFT Exchange         Energy = -57.34729378853753
 One-Electron (alpha) Energy = -982.39226469128039
 One-Electron (beta)  Energy = -982.39226469128039
 Total Coulomb        Energy = 729.46184935124563
 ---------------------------------------
  Cycle       Energy         DIIS error
 ---------------------------------------
    1   -1038.7230695119      2.71e-02  
 Alpha HF Exchange    Energy =  -7.29149651609401
 Beta HF Exchange     Energy =  -7.29149651609401
 DFT Correlation      Energy =  -2.78772568791882
 DFT Exchange         Energy = -57.86140228896397
 One-Electron (alpha) Energy = -985.77143787084958
 One-Electron (beta)  Energy = -985.77143787084924
 Total Coulomb        Energy = 737.23411978268257
    2   -1038.2646796487      2.77e-03  
 Alpha HF Exchange    Energy =  -7.24127761378960
 Beta HF Exchange     Energy =  -7.24127761378960
 DFT Correlation      Energy =  -2.77027270679591
 DFT Exchange         Energy = -57.45966531629573
 One-Electron (alpha) Energy = -982.60628819726071
 One-Electron (beta)  Energy = -982.60628819726048
 Total Coulomb        Energy = 730.39676097840754
    3   -1038.2521113474      3.13e-03  
 Alpha HF Exchange    Energy =  -7.26380918643335
 Beta HF Exchange     Energy =  -7.26380918643337
 DFT Correlation      Energy =  -2.77713072233252
 DFT Exchange         Energy = -57.63160302780868
 One-Electron (alpha) Energy = -984.01644558081762
 One-Electron (beta)  Energy = -984.01644558081830
 Total Coulomb        Energy = 733.37684171798514
    4   -1038.3162042473      7.61e-04  
 Alpha HF Exchange    Energy =  -7.26465027806348
 Beta HF Exchange     Energy =  -7.26465027806348
 DFT Correlation      Energy =  -2.77854452641281
 DFT Exchange         Energy = -57.64455342809418
 One-Electron (alpha) Energy = -984.15786039766192
 One-Electron (beta)  Energy = -984.15786039766203
 Total Coulomb        Energy = 733.67186061241273
    5   -1038.3200613742      2.39e-04  
 Alpha HF Exchange    Energy =  -7.26501308739868
 Beta HF Exchange     Energy =  -7.26501308739869
 DFT Correlation      Energy =  -2.77831260704420
 DFT Exchange         Energy = -57.64591524701662
 One-Electron (alpha) Energy = -984.15079702967796
 One-Electron (beta)  Energy = -984.15079702967853
 Total Coulomb        Energy = 733.65917488851665
    6   -1038.3204758803      4.19e-05  
 Alpha HF Exchange    Energy =  -7.26477420305450
 Beta HF Exchange     Energy =  -7.26477420305451
 DFT Correlation      Energy =  -2.77827036770957
 DFT Exchange         Energy = -57.64403558088462
 One-Electron (alpha) Energy = -984.13532633285149
 One-Electron (beta)  Energy = -984.13532633285149
 Total Coulomb        Energy = 733.62582266635263
    7   -1038.3204870347      1.08e-05  
 Alpha HF Exchange    Energy =  -7.26482157646319
 Beta HF Exchange     Energy =  -7.26482157646319
 DFT Correlation      Energy =  -2.77828075454358
 DFT Exchange         Energy = -57.64439115977096
 One-Electron (alpha) Energy = -984.13959581922666
 One-Electron (beta)  Energy = -984.13959581922620
 Total Coulomb        Energy = 733.63482163840740
    8   -1038.3204877479      3.19e-06  
 Alpha HF Exchange    Energy =  -7.26482583663898
 Beta HF Exchange     Energy =  -7.26482583663897
 DFT Correlation      Energy =  -2.77828336753047
 DFT Exchange         Energy = -57.64442846013833
 One-Electron (alpha) Energy = -984.14002511369586
 One-Electron (beta)  Energy = -984.14002511369551
 Total Coulomb        Energy = 733.63572859993928
    9   -1038.3204878090      7.49e-07  Convergence criterion met
 ---------------------------------------
 SCF time:   CPU 23.34s  wall 2.00s 
<S^2> =          0.000000000
 Alpha HF Exchange    Energy =  -7.26482583663898
 Beta HF Exchange     Energy =  -7.26482583663897
 DFT Correlation      Energy =  -2.77828336753047
 DFT Exchange         Energy = -57.64442846013833
 One-Electron (alpha) Energy = -984.14002511369586
 One-Electron (beta)  Energy = -984.14002511369551
 Total Coulomb        Energy = 733.63572859993928
 Nuclear repulsion Energy = 271.27619731936915
 SCF   energy in the final basis set =    -1038.3204878090
 Total energy in the final basis set =    -1038.3204878090
 
 --------------------------------------------------------------
 
                    Orbital Energies (a.u.)
 --------------------------------------------------------------
 
 Alpha MOs
 -- Occupied --
*******-101.514 -10.295 -10.276 -10.212  -9.465  -9.427  -7.229
 -7.219  -7.219  -7.191  -7.182  -7.182  -0.883  -0.812  -0.754
 -0.715  -0.601  -0.505  -0.492  -0.454  -0.431  -0.408  -0.392
 -0.334  -0.313  -0.308  -0.284  -0.282
 -- Virtual --
 -0.074   0.014   0.068   0.116   0.127   0.133   0.150   0.165
  0.191   0.225   0.376   0.390   0.416   0.429   0.443   0.455
  0.479   0.496   0.516   0.530   0.566   0.586   0.597   0.657
  0.662   0.689   0.741   0.783   0.804   0.840   0.846   0.861
  0.881   0.888   0.889   0.912   0.921   0.926   0.945   0.979
  1.020   1.034   1.061   1.169   1.301   1.365   1.387   1.496
  1.549   1.677   1.780   1.836   1.850   1.864   2.007   2.019
  2.040   2.061   2.075   2.097   2.206   2.253   2.310   2.377
  2.473   2.535   2.588   2.627   2.684   2.719   2.803   2.848
  2.884   3.177   3.223   3.318   3.386   3.422   3.442   4.155
  4.265   4.289   4.428   4.564
 
 Beta MOs
 -- Occupied --
*******-101.514 -10.295 -10.276 -10.212  -9.465  -9.427  -7.229
 -7.219  -7.219  -7.191  -7.182  -7.182  -0.883  -0.812  -0.754
 -0.715  -0.601  -0.505  -0.492  -0.454  -0.431  -0.408  -0.392
 -0.334  -0.313  -0.308  -0.284  -0.282
 -- Virtual --
 -0.074   0.014   0.068   0.116   0.127   0.133   0.150   0.165
  0.191   0.225   0.376   0.390   0.416   0.429   0.443   0.455
  0.479   0.496   0.516   0.530   0.566   0.586   0.597   0.657
  0.662   0.689   0.741   0.783   0.804   0.840   0.846   0.861
  0.881   0.888   0.889   0.912   0.921   0.926   0.945   0.979
  1.020   1.034   1.061   1.169   1.301   1.365   1.387   1.496
  1.549   1.677   1.780   1.836   1.850   1.864   2.007   2.019
  2.040   2.061   2.075   2.097   2.206   2.253   2.310   2.377
  2.473   2.535   2.588   2.627   2.684   2.719   2.803   2.848
  2.884   3.177   3.223   3.318   3.386   3.422   3.442   4.155
  4.265   4.289   4.428   4.564
 --------------------------------------------------------------
 
          Ground-State Mulliken Net Atomic Charges

     Atom                 Charge (a.u.)    Spin (a.u.)
  --------------------------------------------------------
      1 Cl                   -0.259880      -0.000000
      2 Cl                   -0.050796       0.000000
      3 C                    -0.077390      -0.000000
      4 C                    -0.276354       0.000000
      5 C                    -0.312546      -0.000000
      6 H                     0.173114      -0.000000
      7 H                     0.169049       0.000000
      8 H                     0.191657       0.000000
      9 H                     0.167591       0.000000
     10 H                     0.148373      -0.000000
     11 H                     0.127181       0.000000
  --------------------------------------------------------
  Sum of atomic charges =     0.000000
  Sum of spin   charges =    -0.000000

 -----------------------------------------------------------------
                    Cartesian Multipole Moments
 -----------------------------------------------------------------
    Charge (ESU x 10^10)
                 0.0000
    Dipole Moment (Debye)
         X       0.2347      Y      -3.3778      Z      -2.4603
       Tot       4.1854
    Quadrupole Moments (Debye-Ang)
        XX     -48.7148     XY       3.8885     YY     -46.4790
        XZ      -1.0149     YZ      -0.4716     ZZ     -42.1784
    Octopole Moments (Debye-Ang^2)
       XXX      -9.4198    XXY     -14.2431    XYY       0.1625
       YYY     -32.6879    XXZ      -6.8694    XYZ       0.3229
       YYZ      -6.1224    XZZ      -0.0712    YZZ     -10.0680
       ZZZ     -17.7788
    Hexadecapole Moments (Debye-Ang^3)
      XXXX    -595.4608   XXXY      58.6459   XXYY    -157.9746
      XYYY      50.3347   YYYY    -345.3200   XXXZ      -6.9778
      XXYZ      -1.2280   XYYZ      -8.2892   YYYZ      -3.7991
      XXZZ    -114.6745   XYZZ      17.3171   YYZZ     -82.2083
      XZZZ      -6.3595   YZZZ      -8.1785   ZZZZ    -144.4707
 -----------------------------------------------------------------
 Calculating analytic gradient of the SCF energy
 Gradient of SCF Energy
            1           2           3           4           5           6
    1  -0.0166133   0.0001313   0.0143240   0.0007463   0.0007687   0.0009794
    2   0.0390375   0.0002172  -0.0336017  -0.0019828  -0.0025091  -0.0019970
    3   0.0169885   0.0003043  -0.0146561  -0.0016464  -0.0009658  -0.0007569
            7           8           9          10          11
    1  -0.0000591   0.0000463  -0.0001260  -0.0000899  -0.0001075
    2   0.0001624   0.0001495   0.0001427   0.0001304   0.0002511
    3   0.0002911   0.0000594   0.0001065   0.0001738   0.0001015
 Max gradient component =       3.904E-02
 RMS gradient           =       1.053E-02
 Gradient time:  CPU 9.25 s  wall 0.77 s
 Geometry Optimization Parameters
   NAtoms,    NIC,     NZ,  NCons,   NDum,   NFix, NCnnct, MaxDiis
       11      68       0       1       0       0       0       0

 Cartesian Hessian Update
 Hessian Updated using BFGS Update


** CONSTRAINED OPTIMIZATION IN DELOCALIZED INTERNAL COORDINATES **
   Searching for a Minimum

   Optimization Cycle:   3

                       Coordinates (Angstroms)
     ATOM                X               Y               Z
      1  Cl       -1.3736847305    1.5894379535    0.2792451429
      2  Cl        1.9597786768    0.0568109493    0.6082162799
      3  C        -0.5701413220   -0.2928698393   -0.5277412908
      4  C         0.8806396708   -0.0412842280   -0.8346019593
      5  C        -0.9413002603   -1.3693300520    0.4481432577
      6  H        -1.1451537127   -0.3114528831   -1.4536556246
      7  H         1.2421425715   -0.8838217467   -1.4354253142
      8  H         1.0081852399    0.8807040999   -1.3997559304
      9  H        -0.4701412478   -1.2081502977    1.4185474031
     10  H        -2.0232474698   -1.4250058385    0.5744080687
     11  H        -0.5867774159   -2.3296361174    0.0474179670
   Point Group: c1    Number of degrees of freedom:    27


   Energy is  -1038.320487809

              Constraints and their Current Values
                                        Value     Constraint
   Distance(Angs):        1   3             2.199998     2.200000
 Hessian Updated using BFGS Update

   Using Lagrange Multiplier Algorithm


 26 Hessian modes will be used to form the next step
  Hessian Eigenvalues:
    -0.978560    0.033310    0.045001    0.045644    0.079407    0.080511
     0.082694    0.085242    0.086702    0.125479    0.159979    0.160001
     0.175879    0.188808    0.224104    0.227949    0.257339    0.318075
     0.323550    0.338672    0.342194    0.347327    0.347616    0.348043
     0.350507    1.023640

 Minimum Search - Taking P-RFO Step
 Searching for Lamda that Maximizes Along the Constraint modes Only
 Value Taken    Lamda =   0.00000000
 Searching for Lamda that Minimizes Along All other modes
 Value Taken    Lamda =  -0.00022807
 Step Taken.  Stepsize is  0.080753

                             Maximum     Tolerance    Cnvgd?
         Gradient            0.001721       0.000300      NO
         Displacement        0.052019       0.001200      NO
         Energy change     -0.000013       0.000001      NO


 New Cartesian Coordinates Obtained by Inverse Iteration

 Displacement from previous Coordinates is:  0.063411
 ----------------------------------------------------------------
             Standard Nuclear Orientation (Angstroms)
    I     Atom           X                Y                Z
 ----------------------------------------------------------------
    1      Cl     -1.3675089729     1.5772273961     0.2725020764
    2      Cl      1.9590944648     0.0531027163     0.6082949302
    3      C      -0.5649400020    -0.3059888625    -0.5333383048
    4      C       0.8815750184    -0.0391336760    -0.8342496425
    5      C      -0.9428427317    -1.3688250780     0.4501030251
    6      H      -1.1491478835    -0.3056100358    -1.4530452315
    7      H       1.2509605612    -0.8742515489    -1.4424497693
    8      H       1.0015202601     0.8870036706    -1.3935875067
    9      H      -0.4689509550    -1.2049967654     1.4184884933
   10      H      -2.0248260948    -1.4176554706     0.5757302029
   11      H      -0.5946336646    -2.3354703460     0.0563497270
 ----------------------------------------------------------------
 Nuclear Repulsion Energy =   271.7065055027 hartrees
 There are       29 alpha and       29 beta electrons

                       Distance Matrix (Angstroms)
             Cl(  1)   Cl(  2)   C (  3)   C (  4)   C (  5)   H (  6)
   Cl(  2)  3.674507
   C (  3)  2.200000  2.793389
   C (  4)  2.982600  1.802912  1.501388
   C (  5)  2.981796  3.235451  1.496525  2.597333
   H (  6)  2.563254  3.746861  1.089569  2.139568  2.189740
   H (  7)  3.975826  2.359448  2.108768  1.097167  2.939240  2.466574
   H (  8)  2.977342  2.370627  2.148734  1.088566  3.502643  2.459926
   H (  9)  3.140297  2.852128  2.151059  2.873671  1.090497  3.085007
   H ( 10)  3.081126  4.246859  2.144086  3.512198  1.090346  2.473740
   H ( 11)  3.994153  3.539979  2.113625  2.871502  1.100316  2.589612
             H (  7)   H (  8)   H (  9)   H ( 10)
   H (  8)  1.779502
   H (  9)  3.354468  3.800858
   H ( 10)  3.885758  4.283508  1.782193
   H ( 11)  2.790659  3.877417  1.774595  1.776961
 
 Applying Cartesian multipole field
    Component          Value
    ---------          -----
     (2,0,0)        1.00000E-11
     (0,2,0)        2.00000E-11
     (0,0,2)       -3.00000E-10
 Nucleus-field energy     =    -0.0000000160 hartrees
 Requested basis set is 6-31G(d,p)
 There are 40 shells and 113 basis functions
 A cutoff of  1.0D-14 yielded    785 shell pairs
 There are      6444 function pairs
 Smallest overlap matrix eigenvalue = 5.85E-03
 Guess from superposition of atomic densities
 Warning:  Energy on first SCF cycle will be non-variational
 SAD guess density has 58.000000 electrons

 -----------------------------------------------------------------------
  General SCF calculation program by
  Eric Jon Sundstrom, Paul Horn, Yuezhi Mao, Dmitri Zuev, Alec White,
  David Stuck, Shaama M.S., Shane Yost, Joonho Lee, David Small,
  Daniel Levine, Susi Lehtola, Hugh Burton, Evgeny Epifanovsky
 -----------------------------------------------------------------------
 Exchange:     0.2000 Hartree-Fock + 0.0800 Slater + 0.7200 B88
 Correlation:  0.1900 VWN1RPA + 0.8100 LYP
 Using SG-1 standard quadrature grid
 using 12 threads for integral computing
 -------------------------------------------------------
 OpenMP Integral computing Module                
 Release: version 1.0, May 2013, Q-Chem Inc. Pittsburgh 
 -------------------------------------------------------
 -------------------------------------------------------
 OpenMP BLAS3 based DFT computing Module                
 Release: version 1.0, May 2013, Q-Chem Inc. Pittsburgh 
 -------------------------------------------------------
 A unrestricted SCF calculation will be
 performed using DIIS
 SCF converges when DIIS error is below 1.0e-06
 Alpha HF Exchange    Energy =  -7.28266022055295
 Beta HF Exchange     Energy =  -7.28266022055295
 DFT Correlation      Energy =  -2.76584596243735
 DFT Exchange         Energy = -57.34888805142857
 One-Electron (alpha) Energy = -982.81985738081733
 One-Electron (beta)  Energy = -982.81985738081733
 Total Coulomb        Energy = 729.88253880116133
 ---------------------------------------
  Cycle       Energy         DIIS error
 ---------------------------------------
    1   -1038.7307249287      2.72e-02  
 Alpha HF Exchange    Energy =  -7.29196403362944
 Beta HF Exchange     Energy =  -7.29196403362945
 DFT Correlation      Energy =  -2.78802777684098
 DFT Exchange         Energy = -57.86466432920518
 One-Electron (alpha) Energy = -986.21583217971045
 One-Electron (beta)  Energy = -986.21583217971101
 Total Coulomb        Energy = 737.69728383110782
    2   -1038.2644952149      2.77e-03  
 Alpha HF Exchange    Energy =  -7.24144299579079
 Beta HF Exchange     Energy =  -7.24144299579078
 DFT Correlation      Energy =  -2.77052174625091
 DFT Exchange         Energy = -57.46089749421272
 One-Electron (alpha) Energy = -983.02114652884995
 One-Electron (beta)  Energy = -983.02114652884939
 Total Coulomb        Energy = 730.79881330674868
    3   -1038.2512794963      3.14e-03  
 Alpha HF Exchange    Energy =  -7.26414976260166
 Beta HF Exchange     Energy =  -7.26414976260166
 DFT Correlation      Energy =  -2.77739113235757
 DFT Exchange         Energy = -57.63390103223723
 One-Electron (alpha) Energy = -984.44945074367445
 One-Electron (beta)  Energy = -984.44945074367479
 Total Coulomb        Energy = 733.81577835254757
    4   -1038.3162093379      7.70e-04  
 Alpha HF Exchange    Energy =  -7.26498304225810
 Beta HF Exchange     Energy =  -7.26498304225811
 DFT Correlation      Energy =  -2.77882088394953
 DFT Exchange         Energy = -57.64690508313647
 One-Electron (alpha) Energy = -984.59027943081855
 One-Electron (beta)  Energy = -984.59027943081844
 Total Coulomb        Energy = 734.10955793949427
    5   -1038.3201874870      2.39e-04  
 Alpha HF Exchange    Energy =  -7.26534588652424
 Beta HF Exchange     Energy =  -7.26534588652423
 DFT Correlation      Energy =  -2.77858821736852
 DFT Exchange         Energy = -57.64826142890660
 One-Electron (alpha) Energy = -984.58289495950771
 One-Electron (beta)  Energy = -984.58289495950726
 Total Coulomb        Energy = 734.09622542885484
    6   -1038.3206004228      4.17e-05  
 Alpha HF Exchange    Energy =  -7.26511417997336
 Beta HF Exchange     Energy =  -7.26511417997337
 DFT Correlation      Energy =  -2.77854796355309
 DFT Exchange         Energy = -57.64643711217212
 One-Electron (alpha) Energy = -984.56814634708735
 One-Electron (beta)  Energy = -984.56814634708792
 Total Coulomb        Energy = 734.06438922431971
    7   -1038.3206114188      1.08e-05  
 Alpha HF Exchange    Energy =  -7.26515974196412
 Beta HF Exchange     Energy =  -7.26515974196412
 DFT Correlation      Energy =  -2.77855773248350
 DFT Exchange         Energy = -57.64677801203613
 One-Electron (alpha) Energy = -984.57222331076866
 One-Electron (beta)  Energy = -984.57222331076878
 Total Coulomb        Energy = 734.07298422696317
    8   -1038.3206121363      3.19e-06  
 Alpha HF Exchange    Energy =  -7.26516432525151
 Beta HF Exchange     Energy =  -7.26516432525150
 DFT Correlation      Energy =  -2.77856042392792
 DFT Exchange         Energy = -57.64681773955840
 One-Electron (alpha) Energy = -984.57268367970528
 One-Electron (beta)  Energy = -984.57268367970482
 Total Coulomb        Energy = 734.07395648897705
    9   -1038.3206121977      7.32e-07  Convergence criterion met
 ---------------------------------------
 SCF time:   CPU 23.62s  wall 1.00s 
<S^2> =          0.000000000
 Alpha HF Exchange    Energy =  -7.26516432525151
 Beta HF Exchange     Energy =  -7.26516432525150
 DFT Correlation      Energy =  -2.77856042392792
 DFT Exchange         Energy = -57.64681773955840
 One-Electron (alpha) Energy = -984.57268367970528
 One-Electron (beta)  Energy = -984.57268367970482
 Total Coulomb        Energy = 734.07395648897705
 Nuclear repulsion Energy = 271.70650548671301
 SCF   energy in the final basis set =    -1038.3206121977
 Total energy in the final basis set =    -1038.3206121977
 
 --------------------------------------------------------------
 
                    Orbital Energies (a.u.)
 --------------------------------------------------------------
 
 Alpha MOs
 -- Occupied --
*******-101.512 -10.295 -10.276 -10.213  -9.465  -9.426  -7.229
 -7.219  -7.219  -7.189  -7.180  -7.180  -0.884  -0.813  -0.753
 -0.716  -0.601  -0.506  -0.492  -0.454  -0.432  -0.408  -0.393
 -0.332  -0.314  -0.308  -0.283  -0.281
 -- Virtual --
 -0.073   0.014   0.069   0.115   0.126   0.133   0.150   0.165
  0.192   0.227   0.377   0.390   0.416   0.430   0.443   0.456
  0.479   0.495   0.516   0.530   0.567   0.587   0.599   0.659
  0.663   0.688   0.740   0.784   0.803   0.839   0.846   0.861
  0.880   0.888   0.889   0.913   0.922   0.927   0.945   0.978
  1.020   1.035   1.063   1.173   1.300   1.362   1.390   1.495
  1.550   1.677   1.781   1.838   1.854   1.864   2.007   2.019
  2.040   2.062   2.075   2.102   2.205   2.252   2.310   2.379
  2.473   2.533   2.588   2.628   2.688   2.720   2.804   2.848
  2.886   3.177   3.222   3.320   3.386   3.425   3.440   4.156
  4.267   4.290   4.428   4.565
 
 Beta MOs
 -- Occupied --
*******-101.512 -10.295 -10.276 -10.213  -9.465  -9.426  -7.229
 -7.219  -7.219  -7.189  -7.180  -7.180  -0.884  -0.813  -0.753
 -0.716  -0.601  -0.506  -0.492  -0.454  -0.432  -0.408  -0.393
 -0.332  -0.314  -0.308  -0.283  -0.281
 -- Virtual --
 -0.073   0.014   0.069   0.115   0.126   0.133   0.150   0.165
  0.192   0.227   0.377   0.390   0.416   0.430   0.443   0.456
  0.479   0.495   0.516   0.530   0.567   0.587   0.599   0.659
  0.663   0.688   0.740   0.784   0.803   0.839   0.846   0.861
  0.880   0.888   0.889   0.913   0.922   0.927   0.945   0.978
  1.020   1.035   1.063   1.173   1.300   1.362   1.390   1.495
  1.550   1.677   1.781   1.838   1.854   1.864   2.007   2.019
  2.040   2.062   2.075   2.102   2.205   2.252   2.310   2.379
  2.473   2.533   2.588   2.628   2.688   2.720   2.804   2.848
  2.886   3.177   3.222   3.320   3.386   3.425   3.440   4.156
  4.267   4.290   4.428   4.565
 --------------------------------------------------------------
 
          Ground-State Mulliken Net Atomic Charges

     Atom                 Charge (a.u.)    Spin (a.u.)
  --------------------------------------------------------
      1 Cl                   -0.264670       0.000000
      2 Cl                   -0.049446       0.000000
      3 C                    -0.077944      -0.000000
      4 C                    -0.276370       0.000000
      5 C                    -0.311984      -0.000000
      6 H                     0.175062       0.000000
      7 H                     0.168733       0.000000
      8 H                     0.192393       0.000000
      9 H                     0.168066       0.000000
     10 H                     0.149176      -0.000000
     11 H                     0.126984      -0.000000
  --------------------------------------------------------
  Sum of atomic charges =    -0.000000
  Sum of spin   charges =     0.000000

 -----------------------------------------------------------------
                    Cartesian Multipole Moments
 -----------------------------------------------------------------
    Charge (ESU x 10^10)
                 0.0000
    Dipole Moment (Debye)
         X       0.2501      Y      -3.3934      Z      -2.4607
       Tot       4.1991
    Quadrupole Moments (Debye-Ang)
        XX     -48.6748     XY       3.9326     YY     -46.4987
        XZ      -0.9977     YZ      -0.5007     ZZ     -42.1534
    Octopole Moments (Debye-Ang^2)
       XXX      -9.6374    XXY     -14.0597    XYY       0.1110
       YYY     -32.0296    XXZ      -6.7861    XYZ       0.3372
       YYZ      -6.0209    XZZ      -0.1619    YZZ      -9.8394
       ZZZ     -17.5011
    Hexadecapole Moments (Debye-Ang^3)
      XXXX    -593.7457   XXXY      57.8705   XXYY    -157.3712
      XYYY      49.7073   YYYY    -342.7468   XXXZ      -7.2556
      XXYZ      -1.0803   XYYZ      -8.3500   YYYZ      -3.3479
      XXZZ    -114.3477   XYZZ      17.0049   YYZZ     -81.7911
      XZZZ      -6.6524   YZZZ      -7.6222   ZZZZ    -144.3496
 -----------------------------------------------------------------
 Calculating analytic gradient of the SCF energy
 Gradient of SCF Energy
            1           2           3           4           5           6
    1  -0.0158993   0.0000125   0.0161859  -0.0004028  -0.0000384   0.0001259
    2   0.0375113   0.0000572  -0.0374260   0.0002923   0.0001705  -0.0003024
    3   0.0162054  -0.0000540  -0.0157577   0.0000102  -0.0001622  -0.0001947
            7           8           9          10          11
    1  -0.0000845   0.0000461  -0.0000436   0.0000369   0.0000614
    2  -0.0002147  -0.0000712  -0.0000585   0.0000054   0.0000360
    3   0.0000946  -0.0000225   0.0000301   0.0000638  -0.0002131
 Max gradient component =       3.751E-02
 RMS gradient           =       1.078E-02
 Gradient time:  CPU 9.30 s  wall 0.78 s
 Geometry Optimization Parameters
   NAtoms,    NIC,     NZ,  NCons,   NDum,   NFix, NCnnct, MaxDiis
       11      68       0       1       0       0       0       0

 Cartesian Hessian Update
 Hessian Updated using BFGS Update


** CONSTRAINED OPTIMIZATION IN DELOCALIZED INTERNAL COORDINATES **
   Searching for a Minimum

   Optimization Cycle:   4

                       Coordinates (Angstroms)
     ATOM                X               Y               Z
      1  Cl       -1.3675089729    1.5772273961    0.2725020764
      2  Cl        1.9590944648    0.0531027163    0.6082949302
      3  C        -0.5649400020   -0.3059888625   -0.5333383048
      4  C         0.8815750184   -0.0391336760   -0.8342496425
      5  C        -0.9428427317   -1.3688250780    0.4501030251
      6  H        -1.1491478835   -0.3056100358   -1.4530452315
      7  H         1.2509605612   -0.8742515489   -1.4424497693
      8  H         1.0015202601    0.8870036706   -1.3935875067
      9  H        -0.4689509550   -1.2049967654    1.4184884933
     10  H        -2.0248260948   -1.4176554706    0.5757302029
     11  H        -0.5946336646   -2.3354703460    0.0563497270
   Point Group: c1    Number of degrees of freedom:    27


   Energy is  -1038.320612198

              Constraints and their Current Values
                                        Value     Constraint
   Distance(Angs):        1   3             2.200000     2.200000
 Hessian Updated using BFGS Update

 25 Hessian modes will be used to form the next step
  Hessian Eigenvalues:
     0.028381    0.045005    0.046340    0.079330    0.080681    0.082844
     0.085254    0.086692    0.125473    0.159973    0.160000    0.160065
     0.175883    0.188908    0.224081    0.232128    0.257437    0.318309
     0.332172    0.338843    0.342214    0.347329    0.347616    0.348173
     0.350603

 Minimum Search - Taking Simple RFO Step
 Searching for Lamda that Minimizes Along All modes
 Value Taken    Lamda =  -0.00000803
 Step Taken.  Stepsize is  0.013914

                             Maximum     Tolerance    Cnvgd?
         Gradient           0.000459      0.000300      NO
         Displacement       0.007099      0.001200      NO
         Energy change     -0.000124      0.000001      NO


 New Cartesian Coordinates Obtained by Inverse Iteration

 Displacement from previous Coordinates is:  0.016139
 ----------------------------------------------------------------
             Standard Nuclear Orientation (Angstroms)
    I     Atom           X                Y                Z
 ----------------------------------------------------------------
    1      Cl     -1.3679908636     1.5756613930     0.2704840707
    2      Cl      1.9588563706     0.0502453189     0.6087340717
    3      C      -0.5646300891    -0.3075762188    -0.5345169934
    4      C       0.8822299590    -0.0392671473    -0.8346142173
    5      C      -0.9429258764    -1.3691081676     0.4505022936
    6      H      -1.1503689022    -0.3038709647    -1.4530065286
    7      H       1.2534824105    -0.8716019984    -1.4453367261
    8      H       1.0008112794     0.8885382640    -1.3916185490
    9      H      -0.4682784265    -1.2034657213     1.4182028787
   10      H      -2.0249654650    -1.4168284996     0.5763074534
   11      H      -0.5959203967    -2.3373242582     0.0596602464
 ----------------------------------------------------------------
 Nuclear Repulsion Energy =   271.7120871159 hartrees
 There are       29 alpha and       29 beta electrons

                       Distance Matrix (Angstroms)
             Cl(  1)   Cl(  2)   C (  3)   C (  4)   C (  5)   H (  6)
   Cl(  2)  3.675489
   C (  3)  2.200000  2.793393
   C (  4)  2.982068  1.802884  1.501816
   C (  5)  2.980731  3.234183  1.496737  2.598306
   H (  6)  2.559379  3.747460  1.089370  2.141000  2.191143
   H (  7)  3.975583  2.359356  2.110273  1.097083  2.943795  2.469996
   H (  8)  2.974214  2.371075  2.148469  1.088641  3.502641  2.460322
   H (  9)  3.138517  2.849213  2.150585  2.873050  1.090492  3.085184
   H ( 10)  3.078983  4.245491  2.144050  3.512856  1.090373  2.474209
   H ( 11)  3.993995  3.539612  2.115160  2.875017  1.100278  2.594322
             H (  7)   H (  8)   H (  9)   H ( 10)
   H (  8)  1.778995
   H (  9)  3.357745  3.798658
   H ( 10)  3.890056  4.282846  1.782579
   H ( 11)  2.798866  3.880973  1.774138  1.776628
 
 Applying Cartesian multipole field
    Component          Value
    ---------          -----
     (2,0,0)        1.00000E-11
     (0,2,0)        2.00000E-11
     (0,0,2)       -3.00000E-10
 Nucleus-field energy     =    -0.0000000160 hartrees
 Requested basis set is 6-31G(d,p)
 There are 40 shells and 113 basis functions
 A cutoff of  1.0D-14 yielded    785 shell pairs
 There are      6444 function pairs
 Smallest overlap matrix eigenvalue = 5.86E-03
 Guess from superposition of atomic densities
 Warning:  Energy on first SCF cycle will be non-variational
 SAD guess density has 58.000000 electrons

 -----------------------------------------------------------------------
  General SCF calculation program by
  Eric Jon Sundstrom, Paul Horn, Yuezhi Mao, Dmitri Zuev, Alec White,
  David Stuck, Shaama M.S., Shane Yost, Joonho Lee, David Small,
  Daniel Levine, Susi Lehtola, Hugh Burton, Evgeny Epifanovsky
 -----------------------------------------------------------------------
 Exchange:     0.2000 Hartree-Fock + 0.0800 Slater + 0.7200 B88
 Correlation:  0.1900 VWN1RPA + 0.8100 LYP
 Using SG-1 standard quadrature grid
 using 12 threads for integral computing
 -------------------------------------------------------
 OpenMP Integral computing Module                
 Release: version 1.0, May 2013, Q-Chem Inc. Pittsburgh 
 -------------------------------------------------------
 -------------------------------------------------------
 OpenMP BLAS3 based DFT computing Module                
 Release: version 1.0, May 2013, Q-Chem Inc. Pittsburgh 
 -------------------------------------------------------
 A unrestricted SCF calculation will be
 performed using DIIS
 SCF converges when DIIS error is below 1.0e-06
 Alpha HF Exchange    Energy =  -7.28260069559966
 Beta HF Exchange     Energy =  -7.28260069559966
 DFT Correlation      Energy =  -2.76584150284118
 DFT Exchange         Energy = -57.34878292563452
 One-Electron (alpha) Energy = -982.82560929762508
 One-Electron (beta)  Energy = -982.82560929762508
 Total Coulomb        Energy = 729.88880714080994
 ---------------------------------------
  Cycle       Energy         DIIS error
 ---------------------------------------
    1   -1038.7301501742      2.72e-02  
 Alpha HF Exchange    Energy =  -7.29195641303942
 Beta HF Exchange     Energy =  -7.29195641303940
 DFT Correlation      Energy =  -2.78802090348098
 DFT Exchange         Energy = -57.86458029421451
 One-Electron (alpha) Energy = -986.22129990931512
 One-Electron (beta)  Energy = -986.22129990931398
 Total Coulomb        Energy = 737.70254048957236
    2   -1038.2644862529      2.77e-03  
 Alpha HF Exchange    Energy =  -7.24143138358133
 Beta HF Exchange     Energy =  -7.24143138358133
 DFT Correlation      Energy =  -2.77052819691303
 DFT Exchange         Energy = -57.46085781446626
 One-Electron (alpha) Energy = -983.02752295258608
 One-Electron (beta)  Energy = -983.02752295258654
 Total Coulomb        Energy = 730.80610677407662
    3   -1038.2511008097      3.15e-03  
 Alpha HF Exchange    Energy =  -7.26413372058136
 Beta HF Exchange     Energy =  -7.26413372058137
 DFT Correlation      Energy =  -2.77738405489127
 DFT Exchange         Energy = -57.63375549585749
 One-Electron (alpha) Energy = -984.45496110900933
 One-Electron (beta)  Energy = -984.45496110900922
 Total Coulomb        Energy = 733.82105604662559
    4   -1038.3161860633      7.73e-04  
 Alpha HF Exchange    Energy =  -7.26497139460360
 Beta HF Exchange     Energy =  -7.26497139460360
 DFT Correlation      Energy =  -2.77881911601003
 DFT Exchange         Energy = -57.64681835540132
 One-Electron (alpha) Energy = -984.59623434813102
 One-Electron (beta)  Energy = -984.59623434813091
 Total Coulomb        Energy = 734.11576893610288
    5   -1038.3201929208      2.39e-04  
 Alpha HF Exchange    Energy =  -7.26533526280696
 Beta HF Exchange     Energy =  -7.26533526280697
 DFT Correlation      Energy =  -2.77858665346255
 DFT Exchange         Energy = -57.64818272160527
 One-Electron (alpha) Energy = -984.58891071024050
 One-Electron (beta)  Energy = -984.58891071024084
 Total Coulomb        Energy = 734.10256854165846
    6   -1038.3206056795      4.17e-05  
 Alpha HF Exchange    Energy =  -7.26510350538311
 Beta HF Exchange     Energy =  -7.26510350538312
 DFT Correlation      Energy =  -2.77854633178349
 DFT Exchange         Energy = -57.64635759347673
 One-Electron (alpha) Energy = -984.57416007804147
 One-Electron (beta)  Energy = -984.57416007804193
 Total Coulomb        Energy = 734.07072732254255
    7   -1038.3206166696      1.09e-05  
 Alpha HF Exchange    Energy =  -7.26514901622008
 Beta HF Exchange     Energy =  -7.26514901622007
 DFT Correlation      Energy =  -2.77855606818248
 DFT Exchange         Energy = -57.64669798323543
 One-Electron (alpha) Energy = -984.57823008907508
 One-Electron (beta)  Energy = -984.57823008907508
 Total Coulomb        Energy = 734.07930777125762
    8   -1038.3206173908      3.19e-06  
 Alpha HF Exchange    Energy =  -7.26515366532819
 Beta HF Exchange     Energy =  -7.26515366532818
 DFT Correlation      Energy =  -2.77855877980130
 DFT Exchange         Energy = -57.64673822893695
 One-Electron (alpha) Energy = -984.57869647160817
 One-Electron (beta)  Energy = -984.57869647160783
 Total Coulomb        Energy = 734.08029273039119
    9   -1038.3206174523      7.32e-07  Convergence criterion met
 ---------------------------------------
 SCF time:   CPU 23.62s  wall 2.00s 
<S^2> =          0.000000000
 Alpha HF Exchange    Energy =  -7.26515366532819
 Beta HF Exchange     Energy =  -7.26515366532818
 DFT Correlation      Energy =  -2.77855877980130
 DFT Exchange         Energy = -57.64673822893695
 One-Electron (alpha) Energy = -984.57869647160817
 One-Electron (beta)  Energy = -984.57869647160783
 Total Coulomb        Energy = 734.08029273039119
 Nuclear repulsion Energy = 271.71208709995517
 SCF   energy in the final basis set =    -1038.3206174523
 Total energy in the final basis set =    -1038.3206174523
 
 --------------------------------------------------------------
 
                    Orbital Energies (a.u.)
 --------------------------------------------------------------
 
 Alpha MOs
 -- Occupied --
*******-101.512 -10.295 -10.276 -10.213  -9.465  -9.426  -7.230
 -7.219  -7.219  -7.189  -7.180  -7.180  -0.884  -0.813  -0.753
 -0.716  -0.601  -0.506  -0.492  -0.454  -0.432  -0.408  -0.393
 -0.332  -0.314  -0.308  -0.283  -0.281
 -- Virtual --
 -0.073   0.014   0.069   0.115   0.126   0.133   0.150   0.165
  0.192   0.227   0.377   0.390   0.416   0.430   0.443   0.456
  0.479   0.495   0.516   0.530   0.567   0.586   0.599   0.659
  0.663   0.688   0.740   0.784   0.803   0.838   0.847   0.861
  0.879   0.888   0.889   0.913   0.922   0.927   0.946   0.978
  1.020   1.035   1.063   1.174   1.300   1.361   1.390   1.495
  1.551   1.676   1.781   1.838   1.853   1.863   2.007   2.019
  2.040   2.063   2.075   2.103   2.205   2.252   2.310   2.379
  2.473   2.533   2.587   2.628   2.689   2.719   2.805   2.847
  2.886   3.177   3.222   3.321   3.386   3.425   3.439   4.155
  4.267   4.290   4.428   4.565
 
 Beta MOs
 -- Occupied --
*******-101.512 -10.295 -10.276 -10.213  -9.465  -9.426  -7.230
 -7.219  -7.219  -7.189  -7.180  -7.180  -0.884  -0.813  -0.753
 -0.716  -0.601  -0.506  -0.492  -0.454  -0.432  -0.408  -0.393
 -0.332  -0.314  -0.308  -0.283  -0.281
 -- Virtual --
 -0.073   0.014   0.069   0.115   0.126   0.133   0.150   0.165
  0.192   0.227   0.377   0.390   0.416   0.430   0.443   0.456
  0.479   0.495   0.516   0.530   0.567   0.586   0.599   0.659
  0.663   0.688   0.740   0.784   0.803   0.838   0.847   0.861
  0.879   0.888   0.889   0.913   0.922   0.927   0.946   0.978
  1.020   1.035   1.063   1.174   1.300   1.361   1.390   1.495
  1.551   1.676   1.781   1.838   1.853   1.863   2.007   2.019
  2.040   2.063   2.075   2.103   2.205   2.252   2.310   2.379
  2.473   2.533   2.587   2.628   2.689   2.719   2.805   2.847
[...]
     11  H        -0.5914754545   -2.3375858658    0.0671930095
   Point Group: c1    Number of degrees of freedom:    27


   Energy is  -1038.320621975

              Constraints and their Current Values
                                        Value     Constraint
   Distance(Angs):        1   3             2.200000     2.200000
 Hessian Updated using BFGS Update

 26 Hessian modes will be used to form the next step
  Hessian Eigenvalues:
     0.003648    0.033349    0.045381    0.079545    0.081626    0.084953
     0.086737    0.089016    0.125544    0.159981    0.159994    0.160072
     0.160787    0.179591    0.189596    0.224329    0.242822    0.257478
     0.318605    0.338553    0.342309    0.345009    0.347347    0.347654
     0.350082    0.361032

 Minimum Search - Taking Simple RFO Step
 Searching for Lamda that Minimizes Along All modes
 Value Taken    Lamda =  -0.00000144
 Step Taken.  Stepsize is  0.015433

                             Maximum     Tolerance    Cnvgd?
         Gradient           0.000163      0.000300     YES
         Displacement       0.010069      0.001200      NO
         Energy change     -0.000002      0.000001      NO


 New Cartesian Coordinates Obtained by Inverse Iteration

 Displacement from previous Coordinates is:  0.018467
 ----------------------------------------------------------------
             Standard Nuclear Orientation (Angstroms)
    I     Atom           X                Y                Z
 ----------------------------------------------------------------
    1      Cl     -1.3720220969     1.5756181568     0.2631039791
    2      Cl      1.9620402336     0.0314265412     0.6067103891
    3      C      -0.5646578334    -0.3087436322    -0.5352335082
    4      C       0.8825744835    -0.0396221669    -0.8356782049
    5      C      -0.9425971365    -1.3681530576     0.4527055515
    6      H      -1.1503416096    -0.3066098621    -1.4536209979
    7      H       1.2519351824    -0.8634992753    -1.4585088625
    8      H       1.0005850746     0.8957629431    -1.3800139031
    9      H      -0.4734368180    -1.1945347876     1.4216898623
   10      H      -2.0249877272    -1.4194753017     0.5740345892
   11      H      -0.5887917525    -2.3367675576     0.0696091055
 ----------------------------------------------------------------
 Nuclear Repulsion Energy =   271.5806472335 hartrees
 There are       29 alpha and       29 beta electrons

                       Distance Matrix (Angstroms)
             Cl(  1)   Cl(  2)   C (  3)   C (  4)   C (  5)   H (  6)
   Cl(  2)  3.690334
   C (  3)  2.200000  2.793556
   C (  4)  2.983208  1.802992  1.502390
   C (  5)  2.980964  3.227919  1.497067  2.599265
   H (  6)  2.557160  3.747820  1.089250  2.141468  2.191829
   H (  7)  3.974720  2.360142  2.111919  1.096868  2.953538  2.465985
   H (  8)  2.965013  2.370347  2.148133  1.088657  3.501447  2.465280
   H (  9)  3.134250  2.845825  2.149999  2.875465  1.090498  3.084481
   H ( 10)  3.081173  4.242944  2.144007  3.513574  1.090378  2.472825
   H ( 11)  3.994703  3.521870  2.116435  2.874255  1.100071  2.599444
             H (  7)   H (  8)   H (  9)   H ( 10)
   H (  8)  1.778860
   H (  9)  3.373728  3.793630
   H ( 10)  3.895968  4.281673  1.782254
   H ( 11)  2.809616  3.882883  1.773732  1.777225
 
 Applying Cartesian multipole field
    Component          Value
    ---------          -----
     (2,0,0)        1.00000E-11
     (0,2,0)        2.00000E-11
     (0,0,2)       -3.00000E-10
 Nucleus-field energy     =    -0.0000000159 hartrees
 Requested basis set is 6-31G(d,p)
 There are 40 shells and 113 basis functions
 A cutoff of  1.0D-14 yielded    786 shell pairs
 There are      6456 function pairs
 Smallest overlap matrix eigenvalue = 5.86E-03
 Guess from superposition of atomic densities
 Warning:  Energy on first SCF cycle will be non-variational
 SAD guess density has 58.000000 electrons

 -----------------------------------------------------------------------
  General SCF calculation program by
  Eric Jon Sundstrom, Paul Horn, Yuezhi Mao, Dmitri Zuev, Alec White,
  David Stuck, Shaama M.S., Shane Yost, Joonho Lee, David Small,
  Daniel Levine, Susi Lehtola, Hugh Burton, Evgeny Epifanovsky
 -----------------------------------------------------------------------
 Exchange:     0.2000 Hartree-Fock + 0.0800 Slater + 0.7200 B88
 Correlation:  0.1900 VWN1RPA + 0.8100 LYP
 Using SG-1 standard quadrature grid
 using 12 threads for integral computing
 -------------------------------------------------------
 OpenMP Integral computing Module                
 Release: version 1.0, May 2013, Q-Chem Inc. Pittsburgh 
 -------------------------------------------------------
 -------------------------------------------------------
 OpenMP BLAS3 based DFT computing Module                
 Release: version 1.0, May 2013, Q-Chem Inc. Pittsburgh 
 -------------------------------------------------------
 A unrestricted SCF calculation will be
 performed using DIIS
 SCF converges when DIIS error is below 1.0e-06
 Alpha HF Exchange    Energy =  -7.28252168761499
 Beta HF Exchange     Energy =  -7.28252168761499
 DFT Correlation      Energy =  -2.76582555828196
 DFT Exchange         Energy = -57.34864228859254
 One-Electron (alpha) Energy = -982.69434385287445
 One-Electron (beta)  Energy = -982.69434385287445
 Total Coulomb        Energy = 729.75822627297384
 ---------------------------------------
  Cycle       Energy         DIIS error
 ---------------------------------------
    1   -1038.7293254373      2.72e-02  
 Alpha HF Exchange    Energy =  -7.29193751573616
 Beta HF Exchange     Energy =  -7.29193751573616
 DFT Correlation      Energy =  -2.78799735593632
 DFT Exchange         Energy = -57.86443292261135
 One-Electron (alpha) Energy = -986.08618256300304
 One-Electron (beta)  Energy = -986.08618256300304
 Total Coulomb        Energy = 737.56350002523516
    2   -1038.2645231932      2.77e-03  
 Alpha HF Exchange    Energy =  -7.24143168818538
 Beta HF Exchange     Energy =  -7.24143168818539
 DFT Correlation      Energy =  -2.77052235223378
 DFT Exchange         Energy = -57.46090230084050
 One-Electron (alpha) Energy = -982.89804375264123
 One-Electron (beta)  Energy = -982.89804375264168
 Total Coulomb        Energy = 730.67864685539996
    3   -1038.2510814617      3.15e-03  
 Alpha HF Exchange    Energy =  -7.26411402335503
 Beta HF Exchange     Energy =  -7.26411402335504
 DFT Correlation      Energy =  -2.77736444950172
 DFT Exchange         Energy = -57.63360143598530
 One-Electron (alpha) Energy = -984.32140265955866
 One-Electron (beta)  Energy = -984.32140265955923
 Total Coulomb        Energy = 733.68516988272688
    4   -1038.3161821510      7.74e-04  
 Alpha HF Exchange    Energy =  -7.26495657065463
 Beta HF Exchange     Energy =  -7.26495657065463
 DFT Correlation      Energy =  -2.77880200412085
 DFT Exchange         Energy = -57.64671186524075
 One-Electron (alpha) Energy = -984.46342405233975
 One-Electron (beta)  Energy = -984.46342405234020
 Total Coulomb        Energy = 733.98142917680400
    5   -1038.3201987210      2.39e-04  
 Alpha HF Exchange    Energy =  -7.26532114222599
 Beta HF Exchange     Energy =  -7.26532114222598
 DFT Correlation      Energy =  -2.77856993776941
 DFT Exchange         Energy = -57.64808266843239
 One-Electron (alpha) Energy = -984.45610462637933
 One-Electron (beta)  Energy = -984.45610462637933
 Total Coulomb        Energy = 733.96824575314861
    6   -1038.3206111727      4.17e-05  
 Alpha HF Exchange    Energy =  -7.26508856424097
 Beta HF Exchange     Energy =  -7.26508856424097
 DFT Correlation      Energy =  -2.77852925783068
 DFT Exchange         Energy = -57.64625055333681
 One-Electron (alpha) Energy = -984.44127555109742
 One-Electron (beta)  Energy = -984.44127555109753
 Total Coulomb        Energy = 733.93623867333542
    7   -1038.3206221509      1.09e-05  
 Alpha HF Exchange    Energy =  -7.26513439293314
 Beta HF Exchange     Energy =  -7.26513439293314
 DFT Correlation      Energy =  -2.77853909801341
 DFT Exchange         Energy = -57.64659348253298
 One-Electron (alpha) Energy = -984.44537079476754
 One-Electron (beta)  Energy = -984.44537079476788
 Total Coulomb        Energy = 733.94487286593392
    8   -1038.3206228724      3.19e-06  
 Alpha HF Exchange    Energy =  -7.26513902590077
 Beta HF Exchange     Energy =  -7.26513902590077
 DFT Correlation      Energy =  -2.77854180405449
 DFT Exchange         Energy = -57.64663359752377
 One-Electron (alpha) Energy = -984.44583538957238
 One-Electron (beta)  Energy = -984.44583538957227
 Total Coulomb        Energy = 733.94585408127034
    9   -1038.3206229337      7.34e-07  Convergence criterion met
 ---------------------------------------
 SCF time:   CPU 23.69s  wall 2.00s 
<S^2> =         -0.000000000
 Alpha HF Exchange    Energy =  -7.26513902590077
 Beta HF Exchange     Energy =  -7.26513902590077
 DFT Correlation      Energy =  -2.77854180405449
 DFT Exchange         Energy = -57.64663359752377
 One-Electron (alpha) Energy = -984.44583538957238
 One-Electron (beta)  Energy = -984.44583538957227
 Total Coulomb        Energy = 733.94585408127034
 Nuclear repulsion Energy = 271.58064721759320
 SCF   energy in the final basis set =    -1038.3206229337
 Total energy in the final basis set =    -1038.3206229337
 
 --------------------------------------------------------------
 
                    Orbital Energies (a.u.)
 --------------------------------------------------------------
 
 Alpha MOs
 -- Occupied --
*******-101.512 -10.295 -10.276 -10.212  -9.465  -9.426  -7.230
 -7.219  -7.219  -7.189  -7.180  -7.180  -0.884  -0.813  -0.753
 -0.716  -0.601  -0.506  -0.492  -0.454  -0.432  -0.408  -0.393
 -0.332  -0.314  -0.308  -0.283  -0.281
 -- Virtual --
 -0.073   0.014   0.069   0.116   0.126   0.133   0.150   0.165
  0.193   0.227   0.378   0.389   0.416   0.430   0.443   0.457
  0.479   0.495   0.516   0.529   0.568   0.586   0.599   0.658
  0.662   0.688   0.740   0.785   0.803   0.838   0.847   0.861
  0.879   0.887   0.890   0.913   0.923   0.927   0.946   0.977
  1.020   1.035   1.062   1.175   1.300   1.359   1.390   1.496
  1.552   1.676   1.780   1.838   1.852   1.865   2.006   2.020
  2.040   2.063   2.075   2.103   2.205   2.252   2.311   2.379
  2.474   2.532   2.587   2.627   2.690   2.718   2.804   2.848
  2.886   3.178   3.222   3.321   3.386   3.425   3.439   4.155
  4.267   4.289   4.428   4.565
 
 Beta MOs
 -- Occupied --
*******-101.512 -10.295 -10.276 -10.212  -9.465  -9.426  -7.230
 -7.219  -7.219  -7.189  -7.180  -7.180  -0.884  -0.813  -0.753
 -0.716  -0.601  -0.506  -0.492  -0.454  -0.432  -0.408  -0.393
 -0.332  -0.314  -0.308  -0.283  -0.281
 -- Virtual --
 -0.073   0.014   0.069   0.116   0.126   0.133   0.150   0.165
  0.193   0.227   0.378   0.389   0.416   0.430   0.443   0.457
  0.479   0.495   0.516   0.529   0.568   0.586   0.599   0.658
  0.662   0.688   0.740   0.785   0.803   0.838   0.847   0.861
  0.879   0.887   0.890   0.913   0.923   0.927   0.946   0.977
  1.020   1.035   1.062   1.175   1.300   1.359   1.390   1.496
  1.552   1.676   1.780   1.838   1.852   1.865   2.006   2.020
  2.040   2.063   2.075   2.103   2.205   2.252   2.311   2.379
  2.474   2.532   2.587   2.627   2.690   2.718   2.804   2.848
  2.886   3.178   3.222   3.321   3.386   3.425   3.439   4.155
  4.267   4.289   4.428   4.565
 --------------------------------------------------------------
 
          Ground-State Mulliken Net Atomic Charges

     Atom                 Charge (a.u.)    Spin (a.u.)
  --------------------------------------------------------
      1 Cl                   -0.265498       0.000000
      2 Cl                   -0.049915      -0.000000
      3 C                    -0.078130      -0.000000
      4 C                    -0.276782       0.000000
      5 C                    -0.312138      -0.000000
      6 H                     0.175662       0.000000
      7 H                     0.168996      -0.000000
      8 H                     0.193037      -0.000000
      9 H                     0.168438      -0.000000
     10 H                     0.148896       0.000000
     11 H                     0.127434      -0.000000
  --------------------------------------------------------
  Sum of atomic charges =    -0.000000
  Sum of spin   charges =     0.000000

 -----------------------------------------------------------------
                    Cartesian Multipole Moments
 -----------------------------------------------------------------
    Charge (ESU x 10^10)
                -0.0000
    Dipole Moment (Debye)
         X       0.2576      Y      -3.3744      Z      -2.4506
       Tot       4.1783
    Quadrupole Moments (Debye-Ang)
        XX     -48.7026     XY       3.9762     YY     -46.4982
        XZ      -1.0156     YZ      -0.4884     ZZ     -42.1399
    Octopole Moments (Debye-Ang^2)
       XXX      -9.5659    XXY     -13.7544    XYY       0.1297
       YYY     -31.1439    XXZ      -6.6536    XYZ       0.3096
       YYZ      -5.8672    XZZ      -0.1345    YZZ      -9.6093
       ZZZ     -17.1045
    Hexadecapole Moments (Debye-Ang^3)
      XXXX    -595.7259   XXXY      59.6786   XXYY    -157.6235
      XYYY      51.5672   YYYY    -342.0263   XXXZ      -7.5590
      XXYZ      -0.7622   XYYZ      -8.4786   YYYZ      -2.3034
      XXZZ    -114.5891   XYZZ      17.4837   YYZZ     -81.7333
      XZZZ      -7.0107   YZZZ      -6.4110   ZZZZ    -144.0411
 -----------------------------------------------------------------
 Calculating analytic gradient of the SCF energy
 Gradient of SCF Energy
            1           2           3           4           5           6
    1  -0.0160483  -0.0000046   0.0159451   0.0000948   0.0000308  -0.0000125
    2   0.0373239   0.0000231  -0.0372673  -0.0001106  -0.0001752   0.0000693
    3   0.0157879   0.0000036  -0.0157927  -0.0000622  -0.0000486   0.0000311
            7           8           9          10          11
    1   0.0000009  -0.0000180   0.0000162   0.0000092  -0.0000136
    2   0.0000450   0.0000286   0.0000093   0.0000403   0.0000136
    3  -0.0000010   0.0000208  -0.0000032   0.0000468   0.0000175
 Max gradient component =       3.732E-02
 RMS gradient           =       1.072E-02
 Gradient time:  CPU 9.24 s  wall 0.77 s
 Geometry Optimization Parameters
   NAtoms,    NIC,     NZ,  NCons,   NDum,   NFix, NCnnct, MaxDiis
       11      68       0       1       0       0       0       0

 Cartesian Hessian Update
 Hessian Updated using BFGS Update


** CONSTRAINED OPTIMIZATION IN DELOCALIZED INTERNAL COORDINATES **
   Searching for a Minimum

   Optimization Cycle:   9

                       Coordinates (Angstroms)
     ATOM                X               Y               Z
      1  Cl       -1.3720220969    1.5756181568    0.2631039791
      2  Cl        1.9620402336    0.0314265412    0.6067103891
      3  C        -0.5646578334   -0.3087436322   -0.5352335082
      4  C         0.8825744835   -0.0396221669   -0.8356782049
      5  C        -0.9425971365   -1.3681530576    0.4527055515
      6  H        -1.1503416096   -0.3066098621   -1.4536209979
      7  H         1.2519351824   -0.8634992753   -1.4585088625
      8  H         1.0005850746    0.8957629431   -1.3800139031
      9  H        -0.4734368180   -1.1945347876    1.4216898623
     10  H        -2.0249877272   -1.4194753017    0.5740345892
     11  H        -0.5887917525   -2.3367675576    0.0696091055
   Point Group: c1    Number of degrees of freedom:    27


   Energy is  -1038.320622934

              Constraints and their Current Values
                                        Value     Constraint
   Distance(Angs):        1   3             2.200000     2.200000
 Hessian Updated using BFGS Update

 26 Hessian modes will be used to form the next step
  Hessian Eigenvalues:
     0.003487    0.031005    0.045508    0.076990    0.080029    0.082250
     0.085146    0.086874    0.125443    0.159861    0.159987    0.159995
     0.160113    0.178941    0.188671    0.224418    0.228439    0.257493
     0.318341    0.327586    0.339106    0.342371    0.347325    0.347573
     0.348077    0.350535

 Minimum Search - Taking Simple RFO Step
 Searching for Lamda that Minimizes Along All modes
 Value Taken    Lamda =   0.00000000
 Step Taken.  Stepsize is  0.006463

                             Maximum     Tolerance    Cnvgd?
         Gradient           0.000097      0.000300     YES
         Displacement       0.004193      0.001200      NO
         Energy change     -0.000001      0.000001     YES


                       Distance Matrix (Angstroms)
             Cl(  1)   Cl(  2)   C (  3)   C (  4)   C (  5)   H (  6)
   Cl(  2)  3.690334
   C (  3)  2.200000  2.793556
   C (  4)  2.983208  1.802992  1.502390
   C (  5)  2.980964  3.227919  1.497067  2.599265
   H (  6)  2.557160  3.747820  1.089250  2.141468  2.191829
   H (  7)  3.974720  2.360142  2.111919  1.096868  2.953538  2.465985
   H (  8)  2.965013  2.370347  2.148133  1.088657  3.501447  2.465280
   H (  9)  3.134250  2.845825  2.149999  2.875465  1.090498  3.084481
   H ( 10)  3.081173  4.242944  2.144007  3.513574  1.090378  2.472825
   H ( 11)  3.994703  3.521870  2.116435  2.874255  1.100071  2.599444
             H (  7)   H (  8)   H (  9)   H ( 10)
   H (  8)  1.778860
   H (  9)  3.373728  3.793630
   H ( 10)  3.895968  4.281673  1.782254
   H ( 11)  2.809616  3.882883  1.773732  1.777225
 
 Final energy is   -1038.32062293366     


 ******************************
 **  OPTIMIZATION CONVERGED  **
 ******************************

                       Coordinates (Angstroms)
     ATOM                X               Y               Z
      1  Cl       -1.3720220969    1.5756181568    0.2631039791
      2  Cl        1.9620402336    0.0314265412    0.6067103891
      3  C        -0.5646578334   -0.3087436322   -0.5352335082
      4  C         0.8825744835   -0.0396221669   -0.8356782049
      5  C        -0.9425971365   -1.3681530576    0.4527055515
      6  H        -1.1503416096   -0.3066098621   -1.4536209979
      7  H         1.2519351824   -0.8634992753   -1.4585088625
      8  H         1.0005850746    0.8957629431   -1.3800139031
      9  H        -0.4734368180   -1.1945347876    1.4216898623
     10  H        -2.0249877272   -1.4194753017    0.5740345892
     11  H        -0.5887917525   -2.3367675576    0.0696091055

Z-matrix Print:
$molecule
0 1
Cl
C  1 1.802992
H  2 1.088657 1 107.532455
H  2 1.096868 1 106.394452 3 116.626285 0
C  2 1.502390 1 115.075026 3 -124.242567 0
H  5 1.089250 2 110.425818 1 178.338127 0
C  5 1.497067 2 120.126793 1 -44.201593 0
H  7 1.090378 5 110.937082 2 178.571340 0
H  7 1.090498 5 111.414005 2 56.150922 0
H  7 1.100071 5 108.184929 2 -62.582946 0
Cl 5 2.200000 2 105.822007 1 75.384554 0
$end

PES scan, value:    2.2000 energy: -1038.3206229337
------- Summary of potential scan: ------ 
    2.2000     -1038.3206229337
----------------------------------------- 
Archival summary:
1\1\hpc0332\JobtypUnspecified\ProcedureUnspecified\6-31G**\l236\knomura\TueMar1201:57:262019TueMar1201:57:262019\0\\#,JobtypUnspecified,ProcedureUnspecified,6-31G**,\\0,1\Cl\C,1,1.80299\H,2,1.08866,1,107.532\H,2,1.09687,1,106.394,3,116.626,0\C,2,1.50239,1,115.075,3,-124.243,0\H,5,1.08925,2,110.426,1,178.338,0\C,5,1.49707,2,120.127,1,-44.2016,0\H,7,1.09038,5,110.937,2,178.571,0\H,7,1.0905,5,111.414,2,56.1509,0\H,7,1.10007,5,108.185,2,-62.5829,0\Cl,5,2.2,2,105.822,1,75.3846,0\\\@

 Total job time:  29.09s(wall), 337.01s(cpu) 
 Tue Mar 12 01:57:26 2019

        *************************************************************
        *                                                           *
        *  Thank you very much for using Q-Chem.  Have a nice day.  *
        *                                                           *
        *************************************************************


