
Running Job 1 of 1 ruruma/CH3CHClCH2Cl_afterGeo_middle_singlet.xyz.data/inputs/bond_singlet_2.0.in
qchem ruruma/CH3CHClCH2Cl_afterGeo_middle_singlet.xyz.data/inputs/bond_singlet_2.0.in_25681.0 /staging/scratch/2858534/qchem25681/ 1
/usr/usc/qchem/5.1.1/exe/qcprog.exe_s ruruma/CH3CHClCH2Cl_afterGeo_middle_singlet.xyz.data/inputs/bond_singlet_2.0.in_25681.0 /staging/scratch/2858534/qchem25681/
Check license passed

                  Welcome to Q-Chem
     A Quantum Leap Into The Future Of Chemistry


 Q-Chem 5.1, Q-Chem, Inc., Pleasanton, CA (2018)

 Yihan Shao,  Zhengting Gan,  E. Epifanovsky,  A. T. B. Gilbert,  M. Wormit,  
 J. Kussmann,  A. W. Lange,  A. Behn,  Jia Deng,  Xintian Feng,  D. Ghosh,  
 M. Goldey,  P. R. Horn,  L. D. Jacobson,  I. Kaliman,  T. Kus,  A. Landau,  
 Jie Liu,  E. I. Proynov,  R. M. Richard,  R. P. Steele,  E. J. Sundstrom,  
 H. L. Woodcock III,  P. M. Zimmerman,  D. Zuev,  B. Albrecht,  E. Alguire,  
 S. A. Baeppler,  D. Barton,  Z. Benda,  Y. A. Bernard,  E. J. Berquist,  
 K. B. Bravaya,  H. Burton,  D. Casanova,  Chun-Min Chang,  Yunqing Chen,  
 A. Chien,  K. D. Closser,  M. P. Coons,  S. Coriani,  S. Dasgupta,  
 A. L. Dempwolff,  M. Diedenhofen,  Hainam Do,  R. G. Edgar,  Po-Tung Fang,  
 S. Faraji,  S. Fatehi,  Qingguo Feng,  K. D. Fenk,  J. Fosso-Tande,  
 Qinghui Ge,  A. Ghysels,  G. Gidofalvi,  J. Gomes,  J. Gonthier,  A. Gunina,  
 D. Hait,  M. W. D. Hanson-Heine,  P. H. P. Harbach,  A. W. Hauser,  
 J. E. Herr,  E. G. Hohenstein,  Z. C. Holden,  Kerwin Hui,  B. C. Huynh,  
 T.-C. Jagau,  Hyunjun Ji,  B. Kaduk,  K. Khistyaev,  Jaehoon Kim,  
 P. Klunzinger,  K. Koh,  D. Kosenkov,  L. Koulias,  T. Kowalczyk,  
 C. M. Krauter,  A. Kunitsa,  Ka Un Lao,  A. Laurent,  K. V. Lawler,  
 Joonho Lee,  D. Lefrancois,  S. Lehtola,  D. S. Levine,  Yi-Pei Li,  
 You-Sheng Lin,  Fenglai Liu,  E. Livshits,  A. Luenser,  P. Manohar,  
 E. Mansoor,  S. F. Manzer,  Shan-Ping Mao,  Yuezhi Mao,  N. Mardirossian,  
 A. V. Marenich,  T. Markovich,  L. A. Martinez-Martinez,  S. A. Maurer,  
 N. J. Mayhall,  S. C. McKenzie,  J.-M. Mewes,  A. F. Morrison,  
 J. W. Mullinax,  K. Nanda,  T. S. Nguyen-Beck,  R. Olivares-Amaya,  
 J. A. Parkhill,  T. M. Perrine,  F. Plasser,  P. Pokhilko,  S. Prager,  
 A. Prociuk,  E. Ramos,  D. R. Rehn,  F. Rob,  M. Schneider,  N. Sergueev,  
 S. M. Sharada,  S. Sharma,  D. W. Small,  T. Stauch,  T. Stein,  
 Yu-Chuan Su,  A. J. W. Thom,  A. Tkatchenko,  T. Tsuchimochi,  N. M. Tubman,  
 L. Vogt,  M. L. Vidal,  O. Vydrov,  M. A. Watson,  J. Wenzel,  
 M. de Wergifosse,  T. A. Wesolowski,  A. White,  J. Witte,  A. Yamada,  
 Jun Yang,  K. Yao,  S. Yeganeh,  S. R. Yost,  Zhi-Qiang You,  A. Zech,  
 Igor Ying Zhang,  Xing Zhang,  Yan Zhao,  Ying Zhu,  B. R. Brooks,  
 G. K. L. Chan,  C. J. Cramer,  M. S. Gordon,  W. J. Hehre,  A. Klamt,  
 M. W. Schmidt,  C. D. Sherrill,  D. G. Truhlar,  A. Aspuru-Guzik,  R. Baer,  
 A. T. Bell,  N. A. Besley,  Jeng-Da Chai,  A. E. DePrince, III,  
 R. A. DiStasio Jr.,  A. Dreuw,  B. D. Dunietz,  T. R. Furlani,  
 Chao-Ping Hsu,  Yousung Jung,  Jing Kong,  D. S. Lambrecht,  WanZhen Liang,  
 C. Ochsenfeld,  V. A. Rassolov,  L. V. Slipchenko,  J. E. Subotnik,  
 T. Van Voorhis,  J. M. Herbert,  A. I. Krylov,  P. M. W. Gill,  M. Head-Gordon

 Contributors to earlier versions of Q-Chem not listed above: 
 R. D. Adamson,  B. Austin,  J. Baker,  G. J. O. Beran,  K. Brandhorst,  
 S. T. Brown,  E. F. C. Byrd,  A. K. Chakraborty,  C.-L. Cheng,  
 Siu Hung Chien,  D. M. Chipman,  D. L. Crittenden,  H. Dachsel,  
 R. J. Doerksen,  A. D. Dutoi,  L. Fusti-Molnar,  W. A. Goddard III,  
 A. Golubeva-Zadorozhnaya,  S. R. Gwaltney,  G. Hawkins,  A. Heyden,  
 S. Hirata,  G. Kedziora,  F. J. Keil,  C. Kelley,  Jihan Kim,  R. A. King,  
 R. Z. Khaliullin,  P. P. Korambath,  W. Kurlancheek,  A. M. Lee,  M. S. Lee,  
 S. V. Levchenko,  Ching Yeh Lin,  D. Liotard,  R. C. Lochan,  I. Lotan,  
 P. E. Maslen,  N. Nair,  D. P. O'Neill,  D. Neuhauser,  E. Neuscamman,  
 C. M. Oana,  R. Olson,  B. Peters,  R. Peverati,  P. A. Pieniazek,  
 Y. M. Rhee,  J. Ritchie,  M. A. Rohrdanz,  E. Rosta,  N. J. Russ,  
 H. F. Schaefer III,  N. E. Schultz,  N. Shenvi,  A. C. Simmonett,  A. Sodt,  
 D. Stuck,  K. S. Thanthiriwatte,  V. Vanovschi,  Tao Wang,  A. Warshel,  
 C. F. Williams,  Q. Wu,  X. Xu,  W. Zhang

 Please cite Q-Chem as follows:
 Y. Shao et al., Mol. Phys. 113, 184-215 (2015)
 DOI: 10.1080/00268976.2014.952696

 Q-Chem 5.1.1 for Intel X86 EM64T Linux

 Parts of Q-Chem use Armadillo 8.300.2 (Tropical Shenanigans).
 http://arma.sourceforge.net/

 Q-Chem begins on Tue Mar 12 01:55:54 2019  

Host: 
0

     Scratch files written to /staging/scratch/2858534/qchem25681//
 Aug318 |scratch|qcdevops|jenkins|workspace|build_RNUM 6013   
Processing $rem in /usr/usc/qchem/5.1.1/config/preferences.
 MEM_TOTAL  2000 
Input Ideriv = 2
Curr. Ideriv = -1
Max.  Ideriv = 2

Checking the input file for inconsistencies... 	...done.

--------------------------------------------------------------
User input:
--------------------------------------------------------------

$comment
potential surface scanner
$end

$rem
JOBTYPE  PES_SCAN
UNRESTRICTED TRUE
SYM_IGNORE  TRUE
GEOM_OPT_MAX_CYCLES 400
SCF_MAX_CYCLES 400
METHOD   B3LYP
BASIS   6-31G**
PDB_PRINT 2
SCF_CONVERGENCE 6
THRESH 14
SCF_PRINT 1
$end
$molecule
0 1
Cl -1.288247 1.413937 0.235886
Cl 1.953110 0.113740 0.612237
C -0.605295 -0.204327 -0.488543
C 0.865075 -0.029466 -0.825913
C -0.945305 -1.352388 0.441729
H -1.144535 -0.287511 -1.435921
H 1.202269 -0.909753 -1.380526
H 1.023955 0.861350 -1.432591
H -0.467481 -1.223295 1.414308
H -2.025154 -1.425666 0.583025
H -0.588092 -2.291219 0.001106
$end
$scan
stre 1 3 2.000000 2.001000 0.100000
$end
--------------------------------------------------------------
 ----------------------------------------------------------------
             Standard Nuclear Orientation (Angstroms)
    I     Atom           X                Y                Z
 ----------------------------------------------------------------
    1      Cl     -1.2882470000     1.4139370000     0.2358860000
    2      Cl      1.9531100000     0.1137400000     0.6122370000
    3      C      -0.6052950000    -0.2043270000    -0.4885430000
    4      C       0.8650750000    -0.0294660000    -0.8259130000
    5      C      -0.9453050000    -1.3523880000     0.4417290000
    6      H      -1.1445350000    -0.2875110000    -1.4359210000
    7      H       1.2022690000    -0.9097530000    -1.3805260000
    8      H       1.0239550000     0.8613500000    -1.4325910000
    9      H      -0.4674810000    -1.2232950000     1.4143080000
   10      H      -2.0251540000    -1.4256660000     0.5830250000
   11      H      -0.5880920000    -2.2912190000     0.0011060000
 ----------------------------------------------------------------
 Nuclear Repulsion Energy =   280.2231490476 hartrees
 There are       29 alpha and       29 beta electrons
 Requested basis set is 6-31G(d,p)
 There are 40 shells and 113 basis functions

 Total QAlloc Memory Limit   2000 MB
 Mega-Array Size       188 MB
 MEM_STATIC part       192 MB
A total of 1 constraints
  
            1
    1   1.0100000
    2   1.0100000
    3   3.0100000
    4   2.0000000
    5   2.0010000
    6   0.1000000
    7   0.0000000
    8   0.0000000
    9   0.0000000
   10   0.0000000

                       Distance Matrix (Angstroms)
             Cl(  1)   Cl(  2)   C (  3)   C (  4)   C (  5)   H (  6)
   Cl(  2)  3.512627
   C (  3)  1.900000  2.803269
   C (  4)  2.801361  1.809034  1.518678
   C (  5)  2.795091  3.252601  1.516264  2.575755
   H (  6)  2.389669  3.735152  1.093263  2.115946  2.167770
   H (  7)  3.770278  2.362711  2.135544  1.093710  2.851072  2.428527
   H (  8)  2.904384  2.367186  2.163643  1.089428  3.505952  2.454026
   H (  9)  3.002887  2.879278  2.162899  2.866971  1.091279  3.075370
   H ( 10)  2.954130  4.265819  2.157760  3.505411  1.091516  2.479320
   H ( 11)  3.778031  3.551762  2.143635  2.812682  1.096883  2.527750
             H (  7)   H (  8)   H (  9)   H ( 10)
   H (  8)  1.780818
   H (  9)  3.270699  3.830791
   H ( 10)  3.812867  4.311637  1.777169
   H ( 11)  2.650047  3.820062  1.775429  1.775657
 
 A cutoff of  1.0D-14 yielded    789 shell pairs
 There are      6460 function pairs
 
 -------------------------------------------------------
 OpenMP Integral Computing Module                       
 Release: version 1.0, May 2013, Q-Chem Inc. Pittsburgh 
 -------------------------------------------------------
 Integral Job Info:
 Integral job number is                      11
 Integral operator is                         1
 short-range coefficients                     0
 long-range coefficients              100000000
 Omega coefficients                           0
 if combine SR and LR in K                    0
 Integral screening is                        0
 Integral computing path is                   2
 max size of driver memory is            800000
 size of driver memory is                593474
 size of scratch memory is             15267112
 max col of scratch BK array               1296
 max len of scratch array in speh3          155
 max len of scratch index in speh4           18
 max int batch size is                      520
 min int batch size is                       52
 fixed nKL is                                52
 max L of basis functions is                  2
 order of int derivative is                   0
 number of shells is                         40
 number of basis is                         113
 number of cartesian basis is               113
 number of contracted shell pairs           789
 number of primitive shell pairs           3273
 maxK2 (contraction) of shell pair           36
 max number of K2 of shell pair               1
 max number of CS2 of shell pair             60
 max number of PS2 of shell pair            336
 mem total for path MDJ                  520332
 -------------------------------------------------------
 Smallest overlap matrix eigenvalue = 5.64E-03

 Scale SEOQF with 1.000000e-01/1.000000e-01/1.000000e+00

 Standard Electronic Orientation quadrupole field applied
 Nucleus-field energy     =    -0.0000000159 hartrees
 Guess from superposition of atomic densities
 Warning:  Energy on first SCF cycle will be non-variational
 SAD guess density has 58.000000 electrons

 -----------------------------------------------------------------------
  General SCF calculation program by
  Eric Jon Sundstrom, Paul Horn, Yuezhi Mao, Dmitri Zuev, Alec White,
  David Stuck, Shaama M.S., Shane Yost, Joonho Lee, David Small,
  Daniel Levine, Susi Lehtola, Hugh Burton, Evgeny Epifanovsky
 -----------------------------------------------------------------------
 Exchange:     0.2000 Hartree-Fock + 0.0800 Slater + 0.7200 B88
 Correlation:  0.1900 VWN1RPA + 0.8100 LYP
 Using SG-1 standard quadrature grid
 using 12 threads for integral computing
 -------------------------------------------------------
 OpenMP Integral computing Module                
 Release: version 1.0, May 2013, Q-Chem Inc. Pittsburgh 
 -------------------------------------------------------
 -------------------------------------------------------
 OpenMP BLAS3 based DFT computing Module                
 Release: version 1.0, May 2013, Q-Chem Inc. Pittsburgh 
 -------------------------------------------------------
 A unrestricted SCF calculation will be
 performed using DIIS
 SCF converges when DIIS error is below 1.0e-06
 Alpha HF Exchange    Energy =  -7.29630606877925
 Beta HF Exchange     Energy =  -7.29630606877925
 DFT Correlation      Energy =  -2.77118477121548
 DFT Exchange         Energy = -57.37490528736350
 One-Electron (alpha) Energy = -991.32341720575357
 One-Electron (beta)  Energy = -991.32341720575357
 Total Coulomb        Energy = 738.30970724372662
 ---------------------------------------
  Cycle       Energy         DIIS error
 ---------------------------------------
    1   -1038.8526803322      2.80e-02  
 Alpha HF Exchange    Energy =  -7.29571087377545
 Beta HF Exchange     Energy =  -7.29571087377545
 DFT Correlation      Energy =  -2.79312587186663
 DFT Exchange         Energy = -57.88695437781617
 One-Electron (alpha) Energy = -994.58407484443455
 One-Electron (beta)  Energy = -994.58407484443489
 Total Coulomb        Energy = 745.92541149834904
    2   -1038.2910911560      2.67e-03  
 Alpha HF Exchange    Energy =  -7.25157352309922
 Beta HF Exchange     Energy =  -7.25157352309921
 DFT Correlation      Energy =  -2.77525955271996
 DFT Exchange         Energy = -57.51921921493167
 One-Electron (alpha) Energy = -991.68905394453418
 One-Electron (beta)  Energy = -991.68905394453429
 Total Coulomb        Energy = 739.65819758130306
    3   -1038.2943870899      2.63e-03  
 Alpha HF Exchange    Energy =  -7.27040871177677
 Beta HF Exchange     Energy =  -7.27040871177676
 DFT Correlation      Energy =  -2.78362750884028
 DFT Exchange         Energy = -57.67581364642693
 One-Electron (alpha) Energy = -993.01933120198225
 One-Electron (beta)  Energy = -993.01933120198169
 Total Coulomb        Energy = 742.47588979157877
    4   -1038.3398821595      2.57e-04  
 Alpha HF Exchange    Energy =  -7.27182478127109
 Beta HF Exchange     Energy =  -7.27182478127110
 DFT Correlation      Energy =  -2.78373218894504
 DFT Exchange         Energy = -57.68626916987218
 One-Electron (alpha) Energy = -993.08408751573540
 One-Electron (beta)  Energy = -993.08408751573575
 Total Coulomb        Energy = 742.61841635081566
    5   -1038.3402605703      9.46e-05  
 Alpha HF Exchange    Energy =  -7.27134421439915
 Beta HF Exchange     Energy =  -7.27134421439915
 DFT Correlation      Energy =  -2.78372269196382
 DFT Exchange         Energy = -57.68291774729911
 One-Electron (alpha) Energy = -993.05970637697203
 One-Electron (beta)  Energy = -993.05970637697203
 Total Coulomb        Energy = 742.56528347729204
    6   -1038.3403091130      4.84e-05  
 Alpha HF Exchange    Energy =  -7.27132770223803
 Beta HF Exchange     Energy =  -7.27132770223803
 DFT Correlation      Energy =  -2.78366761445859
 DFT Exchange         Energy = -57.68254412000753
 One-Electron (alpha) Energy = -993.05395447647743
 One-Electron (beta)  Energy = -993.05395447647697
 Total Coulomb        Energy = 742.55330242444529
    7   -1038.3403246357      6.26e-06  
 Alpha HF Exchange    Energy =  -7.27137336612468
 Beta HF Exchange     Energy =  -7.27137336612468
 DFT Correlation      Energy =  -2.78368637702391
 DFT Exchange         Energy = -57.68292433557619
 One-Electron (alpha) Energy = -993.05891018931561
 One-Electron (beta)  Energy = -993.05891018931550
 Total Coulomb        Energy = 742.56370391698761
    8   -1038.3403248748      1.51e-06  
 Alpha HF Exchange    Energy =  -7.27136275891761
 Beta HF Exchange     Energy =  -7.27136275891761
 DFT Correlation      Energy =  -2.78368285253916
 DFT Exchange         Energy = -57.68283773113914
 One-Electron (alpha) Energy = -993.05779915196763
 One-Electron (beta)  Energy = -993.05779915196786
 Total Coulomb        Energy = 742.56137048354753
    9   -1038.3403248902      2.43e-07  Convergence criterion met
 ---------------------------------------
 SCF time:   CPU 24.49s  wall 2.00s 
<S^2> =         -0.000000000
 Alpha HF Exchange    Energy =  -7.27136275891761
 Beta HF Exchange     Energy =  -7.27136275891761
 DFT Correlation      Energy =  -2.78368285253916
 DFT Exchange         Energy = -57.68283773113914
 One-Electron (alpha) Energy = -993.05779915196763
 One-Electron (beta)  Energy = -993.05779915196786
 Total Coulomb        Energy = 742.56137048354753
 Nuclear repulsion Energy = 280.22314903171986
 SCF   energy in the final basis set =    -1038.3403248902
 Total energy in the final basis set =    -1038.3403248902
 
 --------------------------------------------------------------
 
                    Orbital Energies (a.u.)
 --------------------------------------------------------------
 
 Alpha MOs
 -- Occupied --
*******-101.531 -10.277 -10.266 -10.202  -9.458  -9.447  -7.222
 -7.212  -7.212  -7.211  -7.201  -7.201  -0.883  -0.830  -0.759
 -0.704  -0.594  -0.496  -0.487  -0.451  -0.421  -0.397  -0.386
 -0.367  -0.308  -0.305  -0.298  -0.295
 -- Virtual --
 -0.009   0.024   0.072   0.124   0.133   0.140   0.157   0.170
  0.190   0.217   0.367   0.393   0.420   0.430   0.448   0.457
  0.462   0.497   0.520   0.532   0.549   0.573   0.596   0.660
  0.678   0.682   0.744   0.805   0.819   0.844   0.853   0.867
  0.875   0.894   0.898   0.911   0.918   0.949   0.958   0.993
  1.044   1.067   1.094   1.178   1.323   1.389   1.412   1.550
  1.576   1.718   1.796   1.826   1.857   1.876   2.026   2.035
  2.050   2.072   2.085   2.105   2.222   2.273   2.330   2.373
  2.486   2.561   2.595   2.636   2.669   2.727   2.808   2.856
  2.885   3.185   3.233   3.321   3.398   3.429   3.461   4.153
  4.269   4.317   4.440   4.564
 
 Beta MOs
 -- Occupied --
*******-101.531 -10.277 -10.266 -10.202  -9.458  -9.447  -7.222
 -7.212  -7.212  -7.211  -7.201  -7.201  -0.883  -0.830  -0.759
 -0.704  -0.594  -0.496  -0.487  -0.451  -0.421  -0.397  -0.386
 -0.367  -0.308  -0.305  -0.298  -0.295
 -- Virtual --
 -0.009   0.024   0.072   0.124   0.133   0.140   0.157   0.170
  0.190   0.217   0.367   0.393   0.420   0.430   0.448   0.457
  0.462   0.497   0.520   0.532   0.549   0.573   0.596   0.660
  0.678   0.682   0.744   0.805   0.819   0.844   0.853   0.867
  0.875   0.894   0.898   0.911   0.918   0.949   0.958   0.993
  1.044   1.067   1.094   1.178   1.323   1.389   1.412   1.550
  1.576   1.718   1.796   1.826   1.857   1.876   2.026   2.035
  2.050   2.072   2.085   2.105   2.222   2.273   2.330   2.373
  2.486   2.561   2.595   2.636   2.669   2.727   2.808   2.856
  2.885   3.185   3.233   3.321   3.398   3.429   3.461   4.153
  4.269   4.317   4.440   4.564
 --------------------------------------------------------------
 
          Ground-State Mulliken Net Atomic Charges

     Atom                 Charge (a.u.)    Spin (a.u.)
  --------------------------------------------------------
      1 Cl                   -0.113193      -0.000000
      2 Cl                   -0.066564       0.000000
      3 C                    -0.159580      -0.000000
      4 C                    -0.266854       0.000000
      5 C                    -0.303676       0.000000
      6 H                     0.163498       0.000000
      7 H                     0.161899      -0.000000
      8 H                     0.176827      -0.000000
      9 H                     0.155637      -0.000000
     10 H                     0.134896      -0.000000
     11 H                     0.117108      -0.000000
  --------------------------------------------------------
  Sum of atomic charges =    -0.000000
  Sum of spin   charges =    -0.000000

 -----------------------------------------------------------------
                    Cartesian Multipole Moments
 -----------------------------------------------------------------
    Charge (ESU x 10^10)
                -0.0000
    Dipole Moment (Debye)
         X      -0.4056      Y      -2.2981      Z      -2.1756
       Tot       3.1905
    Quadrupole Moments (Debye-Ang)
        XX     -48.2165     XY       2.2478     YY     -45.4279
        XZ      -1.2276     YZ      -0.2053     ZZ     -42.5206
    Octopole Moments (Debye-Ang^2)
       XXX     -14.7141    XXY     -10.7416    XYY      -2.6459
       YYY     -25.0026    XXZ      -6.2490    XYZ      -0.0738
       YYZ      -5.4055    XZZ      -1.4559    YZZ      -8.0629
       ZZZ     -16.2402
    Hexadecapole Moments (Debye-Ang^3)
      XXXX    -574.1381   XXXY      35.3748   XXYY    -144.6452
      XYYY      26.9467   YYYY    -297.6704   XXXZ     -11.5199
      XXYZ       0.5551   XYYZ      -9.5834   YYYZ       0.8958
      XXZZ    -111.4767   XYZZ      10.6163   YYZZ     -73.9095
      XZZZ     -10.4671   YZZZ      -4.1240   ZZZZ    -142.6655
 -----------------------------------------------------------------
 Calculating analytic gradient of the SCF energy
 Gradient of SCF Energy
            1           2           3           4           5           6
    1  -0.0063861  -0.0000036   0.0063973  -0.0000135   0.0000070  -0.0000095
    2   0.0150913   0.0000254  -0.0151468   0.0000248   0.0000073   0.0000632
    3   0.0067621   0.0000138  -0.0067687   0.0000055  -0.0000074   0.0000019
            7           8           9          10          11
    1   0.0000231  -0.0000111   0.0000205  -0.0000027  -0.0000214
    2  -0.0000193  -0.0000295  -0.0000043   0.0000002  -0.0000121
    3   0.0000462  -0.0000528  -0.0000046   0.0000011   0.0000030
 Max gradient component =       1.515E-02
 RMS gradient           =       4.371E-03
 Gradient time:  CPU 11.62 s  wall 1.26 s
 Geometry Optimization Parameters
   NAtoms,    NIC,     NZ,  NCons,   NDum,   NFix, NCnnct, MaxDiis
       11      68       0       1       0       0       0       0


** CONSTRAINED OPTIMIZATION IN DELOCALIZED INTERNAL COORDINATES **
   Searching for a Minimum

   Optimization Cycle:   1

                       Coordinates (Angstroms)
     ATOM                X               Y               Z
      1  Cl       -1.2882470000    1.4139370000    0.2358860000
      2  Cl        1.9531100000    0.1137400000    0.6122370000
      3  C        -0.6052950000   -0.2043270000   -0.4885430000
      4  C         0.8650750000   -0.0294660000   -0.8259130000
      5  C        -0.9453050000   -1.3523880000    0.4417290000
      6  H        -1.1445350000   -0.2875110000   -1.4359210000
      7  H         1.2022690000   -0.9097530000   -1.3805260000
      8  H         1.0239550000    0.8613500000   -1.4325910000
      9  H        -0.4674810000   -1.2232950000    1.4143080000
     10  H        -2.0251540000   -1.4256660000    0.5830250000
     11  H        -0.5880920000   -2.2912190000    0.0011060000
   Point Group: c1    Number of degrees of freedom:    27


   Energy is  -1038.340324890

              Constraints and their Current Values
                                        Value     Constraint
   Distance(Angs):        1   3             1.900000     2.000000

 Attempting to Generate Delocalized Internal Coordinates

   Using Lagrange Multiplier Algorithm


 28 Hessian modes will be used to form the next step
  Hessian Eigenvalues:
    -0.906823    0.045000    0.045000    0.071296    0.078647    0.080715
     0.083093    0.084691    0.086246    0.117345    0.160000    0.160000
     0.160000    0.160000    0.160000    0.188189    0.223761    0.232613
     0.254177    0.304943    0.307293    0.340291    0.343874    0.344382
     0.346380    0.346652    0.348788    1.102751

 Minimum Search - Taking P-RFO Step
 Searching for Lamda that Maximizes Along the Constraint modes Only
 Value Taken    Lamda =   0.02476676
 Searching for Lamda that Minimizes Along All other modes
 Value Taken    Lamda =  -0.01162344
 Step Taken.  Stepsize is  0.185192

                             Maximum     Tolerance    Cnvgd?
         Gradient            0.188973       0.000300      NO
         Displacement        0.185184       0.001200      NO
         Energy change     *********       0.000001      NO


 New Cartesian Coordinates Obtained by Inverse Iteration

 Displacement from previous Coordinates is:  0.175104
 ----------------------------------------------------------------
             Standard Nuclear Orientation (Angstroms)
    I     Atom           X                Y                Z
 ----------------------------------------------------------------
    1      Cl     -1.3237806340     1.4892679766     0.2638571172
    2      Cl      1.9544247096     0.1103047352     0.6107062522
    3      C      -0.6020583586    -0.2131013882    -0.4931366875
    4      C       0.8685825416    -0.0368808990    -0.8286715590
    5      C      -0.9418808113    -1.3596279450     0.4390937340
    6      H      -1.1396433200    -0.2992627562    -1.4411945517
    7      H       1.2076628906    -0.9176913085    -1.3813044663
    8      H       1.0271859052     0.8531092633    -1.4366218069
    9      H      -0.4659424432    -1.2276435422     1.4122053889
   10      H      -2.0218457634    -1.4342506677     0.5787568026
   11      H      -0.5824047164    -2.2988214682     0.0011067766
 ----------------------------------------------------------------
 Nuclear Repulsion Energy =   276.5078257750 hartrees
 There are       29 alpha and       29 beta electrons

                       Distance Matrix (Angstroms)
             Cl(  1)   Cl(  2)   C (  3)   C (  4)   C (  5)   H (  6)
   Cl(  2)  3.573300
   C (  3)  1.997995  2.803331
   C (  4)  2.886036  1.809012  1.518691
   C (  5)  2.879716  3.252497  1.516264  2.575785
   H (  6)  2.477892  3.735144  1.093268  2.115892  2.167710
   H (  7)  3.861116  2.362739  2.135505  1.093712  2.851262  2.428145
   H (  8)  2.970416  2.367083  2.163656  1.089422  3.505958  2.454207
   H (  9)  3.071840  2.879355  2.162904  2.867124  1.091276  3.075330
   H ( 10)  3.022155  4.265841  2.157767  3.505435  1.091512  2.479250
   H ( 11)  3.868888  3.551198  2.143570  2.812520  1.096877  2.527644
             H (  7)   H (  8)   H (  9)   H ( 10)
   H (  8)  1.780833
   H (  9)  3.271196  3.830768
   H ( 10)  3.812925  4.311654  1.777121
   H ( 11)  2.650080  3.820015  1.775439  1.775712
 
 Applying Cartesian multipole field
    Component          Value
    ---------          -----
     (2,0,0)        1.00000E-11
     (0,2,0)        2.00000E-11
     (0,0,2)       -3.00000E-10
 Nucleus-field energy     =    -0.0000000159 hartrees
 Requested basis set is 6-31G(d,p)
 There are 40 shells and 113 basis functions
 A cutoff of  1.0D-14 yielded    786 shell pairs
 There are      6455 function pairs
 Smallest overlap matrix eigenvalue = 5.74E-03
 Guess from superposition of atomic densities
 Warning:  Energy on first SCF cycle will be non-variational
 SAD guess density has 58.000000 electrons

 -----------------------------------------------------------------------
  General SCF calculation program by
  Eric Jon Sundstrom, Paul Horn, Yuezhi Mao, Dmitri Zuev, Alec White,
  David Stuck, Shaama M.S., Shane Yost, Joonho Lee, David Small,
  Daniel Levine, Susi Lehtola, Hugh Burton, Evgeny Epifanovsky
 -----------------------------------------------------------------------
 Exchange:     0.2000 Hartree-Fock + 0.0800 Slater + 0.7200 B88
 Correlation:  0.1900 VWN1RPA + 0.8100 LYP
 Using SG-1 standard quadrature grid
 using 12 threads for integral computing
 -------------------------------------------------------
 OpenMP Integral computing Module                
 Release: version 1.0, May 2013, Q-Chem Inc. Pittsburgh 
 -------------------------------------------------------
 -------------------------------------------------------
 OpenMP BLAS3 based DFT computing Module                
 Release: version 1.0, May 2013, Q-Chem Inc. Pittsburgh 
 -------------------------------------------------------
 A unrestricted SCF calculation will be
 performed using DIIS
 SCF converges when DIIS error is below 1.0e-06
 Alpha HF Exchange    Energy =  -7.28885306282514
 Beta HF Exchange     Energy =  -7.28885306282514
 DFT Correlation      Energy =  -2.76872550219902
 DFT Exchange         Energy = -57.36042111230437
 One-Electron (alpha) Energy = -987.62291981537260
 One-Electron (beta)  Energy = -987.62291981537260
 Total Coulomb        Energy = 734.66150191725899
 ---------------------------------------
  Cycle       Energy         DIIS error
 ---------------------------------------
    1   -1038.7833646945      2.75e-02  
 Alpha HF Exchange    Energy =  -7.29288311526777
 Beta HF Exchange     Energy =  -7.29288311526776
 DFT Correlation      Energy =  -2.79059809949987
 DFT Exchange         Energy = -57.86844839085641
 One-Electron (alpha) Energy = -990.88468697748510
 One-Electron (beta)  Energy = -990.88468697748453
 Total Coulomb        Energy = 742.22093879192585
    2   -1038.2854221248      2.68e-03  
 Alpha HF Exchange    Energy =  -7.24784747165667
 Beta HF Exchange     Energy =  -7.24784747165667
 DFT Correlation      Energy =  -2.77304498300208
 DFT Exchange         Energy = -57.49660554555009
 One-Electron (alpha) Energy = -987.98951804664557
 One-Electron (beta)  Energy = -987.98951804664557
 Total Coulomb        Energy = 735.94773241884013
    3   -1038.2888233872      2.65e-03  
 Alpha HF Exchange    Energy =  -7.26732783435847
 Beta HF Exchange     Energy =  -7.26732783435847
 DFT Correlation      Energy =  -2.78100807908431
 DFT Exchange         Energy = -57.65560349140992
 One-Electron (alpha) Energy = -989.30125562263743
 One-Electron (beta)  Energy = -989.30125562263697
 Total Coulomb        Energy = 738.73120513569415
    4   -1038.3347475896      2.50e-04  
 Alpha HF Exchange    Energy =  -7.26861286697782
 Beta HF Exchange     Energy =  -7.26861286697781
 DFT Correlation      Energy =  -2.78142877227583
 DFT Exchange         Energy = -57.66652113800687
 One-Electron (alpha) Energy = -989.39429064365152
 One-Electron (beta)  Energy = -989.39429064365117
 Total Coulomb        Energy = 738.93084014563340
    5   -1038.3350910267      8.82e-05  
 Alpha HF Exchange    Energy =  -7.26821530465301
 Beta HF Exchange     Energy =  -7.26821530465301
 DFT Correlation      Energy =  -2.78119313893754
 DFT Exchange         Energy = -57.66275005067131
 One-Electron (alpha) Energy = -989.34874747089714
 One-Electron (beta)  Energy = -989.34874747089702
 Total Coulomb        Energy = 738.83491532706660
    6   -1038.3351276545      4.58e-05  
 Alpha HF Exchange    Energy =  -7.26817062165019
 Beta HF Exchange     Energy =  -7.26817062165019
 DFT Correlation      Energy =  -2.78123636786327
 DFT Exchange         Energy = -57.66260661979474
 One-Electron (alpha) Energy = -989.35248516657350
 One-Electron (beta)  Energy = -989.35248516657350
 Total Coulomb        Energy = 738.84218717769659
    7   -1038.3351416272      7.53e-06  
 Alpha HF Exchange    Energy =  -7.26822037204402
 Beta HF Exchange     Energy =  -7.26822037204402
 DFT Correlation      Energy =  -2.78124428305742
 DFT Exchange         Energy = -57.66296859930478
 One-Electron (alpha) Energy = -989.35645622173354
 One-Electron (beta)  Energy = -989.35645622173354
 Total Coulomb        Energy = 738.85059829590023
    8   -1038.3351420149      2.22e-06  
 Alpha HF Exchange    Energy =  -7.26821239624584
 Beta HF Exchange     Energy =  -7.26821239624583
 DFT Correlation      Energy =  -2.78124332507639
 DFT Exchange         Energy = -57.66291016125406
 One-Electron (alpha) Energy = -989.35578461073737
 One-Electron (beta)  Energy = -989.35578461073715
 Total Coulomb        Energy = 738.84917969388164
    9   -1038.3351420473      5.60e-07  Convergence criterion met
 ---------------------------------------
 SCF time:   CPU 23.96s  wall 2.00s 
<S^2> =         -0.000000000
 Alpha HF Exchange    Energy =  -7.26821239624584
 Beta HF Exchange     Energy =  -7.26821239624583
 DFT Correlation      Energy =  -2.78124332507639
 DFT Exchange         Energy = -57.66291016125406
 One-Electron (alpha) Energy = -989.35578461073737
 One-Electron (beta)  Energy = -989.35578461073715
 Total Coulomb        Energy = 738.84917969388164
 Nuclear repulsion Energy = 276.50782575916276
 SCF   energy in the final basis set =    -1038.3351420473
 Total energy in the final basis set =    -1038.3351420473
 
 --------------------------------------------------------------
 
                    Orbital Energies (a.u.)
 --------------------------------------------------------------
 
 Alpha MOs
 -- Occupied --
*******-101.528 -10.284 -10.269 -10.205  -9.459  -9.443  -7.224
 -7.213  -7.213  -7.207  -7.197  -7.197  -0.879  -0.821  -0.761
 -0.706  -0.596  -0.497  -0.488  -0.450  -0.423  -0.398  -0.386
 -0.360  -0.309  -0.305  -0.296  -0.293
 -- Virtual --
 -0.034   0.020   0.071   0.122   0.132   0.138   0.156   0.169
  0.188   0.218   0.369   0.393   0.420   0.428   0.448   0.455
  0.464   0.498   0.520   0.532   0.551   0.578   0.593   0.656
  0.672   0.689   0.744   0.800   0.812   0.848   0.852   0.865
  0.877   0.894   0.897   0.909   0.916   0.935   0.949   0.992
  1.037   1.052   1.081   1.168   1.316   1.382   1.402   1.543
  1.567   1.703   1.789   1.825   1.844   1.870   2.015   2.026
  2.046   2.067   2.082   2.097   2.219   2.269   2.326   2.369
  2.482   2.557   2.591   2.633   2.666   2.723   2.805   2.853
  2.881   3.181   3.230   3.316   3.394   3.425   3.458   4.155
  4.266   4.300   4.437   4.563
 
 Beta MOs
 -- Occupied --
*******-101.528 -10.284 -10.269 -10.205  -9.459  -9.443  -7.224
 -7.213  -7.213  -7.207  -7.197  -7.197  -0.879  -0.821  -0.761
 -0.706  -0.596  -0.497  -0.488  -0.450  -0.423  -0.398  -0.386
 -0.360  -0.309  -0.305  -0.296  -0.293
 -- Virtual --
 -0.034   0.020   0.071   0.122   0.132   0.138   0.156   0.169
  0.188   0.218   0.369   0.393   0.420   0.428   0.448   0.455
  0.464   0.498   0.520   0.532   0.551   0.578   0.593   0.656
  0.672   0.689   0.744   0.800   0.812   0.848   0.852   0.865
  0.877   0.894   0.897   0.909   0.916   0.935   0.949   0.992
  1.037   1.052   1.081   1.168   1.316   1.382   1.402   1.543
  1.567   1.703   1.789   1.825   1.844   1.870   2.015   2.026
  2.046   2.067   2.082   2.097   2.219   2.269   2.326   2.369
  2.482   2.557   2.591   2.633   2.666   2.723   2.805   2.853
  2.881   3.181   3.230   3.316   3.394   3.425   3.458   4.155
  4.266   4.300   4.437   4.563
 --------------------------------------------------------------
 
          Ground-State Mulliken Net Atomic Charges

     Atom                 Charge (a.u.)    Spin (a.u.)
  --------------------------------------------------------
      1 Cl                   -0.154434       0.000000
      2 Cl                   -0.063264       0.000000
      3 C                    -0.134255       0.000000
      4 C                    -0.268698      -0.000000
      5 C                    -0.306281       0.000000
      6 H                     0.164707      -0.000000
      7 H                     0.164725       0.000000
      8 H                     0.180141       0.000000
      9 H                     0.158645      -0.000000
     10 H                     0.138147      -0.000000
     11 H                     0.120566      -0.000000
  --------------------------------------------------------
  Sum of atomic charges =    -0.000000
  Sum of spin   charges =     0.000000

 -----------------------------------------------------------------
                    Cartesian Multipole Moments
 -----------------------------------------------------------------
    Charge (ESU x 10^10)
                -0.0000
    Dipole Moment (Debye)
         X      -0.2336      Y      -2.6119      Z      -2.2645
       Tot       3.4647
    Quadrupole Moments (Debye-Ang)
        XX     -48.4109     XY       2.6353     YY     -45.6688
        XZ      -1.1934     YZ      -0.2310     ZZ     -42.4657
    Octopole Moments (Debye-Ang^2)
       XXX     -12.6978    XXY     -12.1752    XYY      -1.8007
       YYY     -28.6319    XXZ      -6.6032    XYZ       0.0112
       YYZ      -5.7517    XZZ      -0.8630    YZZ      -9.1055
       ZZZ     -17.2577
    Hexadecapole Moments (Debye-Ang^3)
      XXXX    -582.5166   XXXY      42.7966   XXYY    -149.3569
      XYYY      34.1303   YYYY    -315.7984   XXXZ      -9.6295
      XXYZ      -0.2211   XYYZ      -9.0872   YYYZ      -1.5161
      XXZZ    -112.8259   XYZZ      12.9033   YYZZ     -77.0800
      XZZZ      -8.5947   YZZZ      -6.5813   ZZZZ    -143.4410
 -----------------------------------------------------------------
 Calculating analytic gradient of the SCF energy
 Gradient of SCF Energy
            1           2           3           4           5           6
    1  -0.0131726   0.0000440   0.0074413   0.0019521   0.0016523   0.0018494
    2   0.0309420   0.0002401  -0.0189582  -0.0043223  -0.0048765  -0.0035924
    3   0.0140554   0.0003052  -0.0094758  -0.0027706  -0.0018050  -0.0013328
            7           8           9          10          11
    1   0.0007738  -0.0000913  -0.0000196  -0.0000486  -0.0003807
    2   0.0004028   0.0000588   0.0002830   0.0001706  -0.0003479
    3   0.0001957   0.0000625  -0.0000051  -0.0000111   0.0007816
 Max gradient component =       3.094E-02
 RMS gradient           =       7.614E-03
 Gradient time:  CPU 9.38 s  wall 0.79 s
 Geometry Optimization Parameters
   NAtoms,    NIC,     NZ,  NCons,   NDum,   NFix, NCnnct, MaxDiis
       11      68       0       1       0       0       0       0

 Cartesian Hessian Update
 Hessian Updated using BFGS Update


** CONSTRAINED OPTIMIZATION IN DELOCALIZED INTERNAL COORDINATES **
   Searching for a Minimum

   Optimization Cycle:   2

                       Coordinates (Angstroms)
     ATOM                X               Y               Z
      1  Cl       -1.3237806340    1.4892679766    0.2638571172
      2  Cl        1.9544247096    0.1103047352    0.6107062522
      3  C        -0.6020583586   -0.2131013882   -0.4931366875
      4  C         0.8685825416   -0.0368808990   -0.8286715590
      5  C        -0.9418808113   -1.3596279450    0.4390937340
      6  H        -1.1396433200   -0.2992627562   -1.4411945517
      7  H         1.2076628906   -0.9176913085   -1.3813044663
      8  H         1.0271859052    0.8531092633   -1.4366218069
      9  H        -0.4659424432   -1.2276435422    1.4122053889
     10  H        -2.0218457634   -1.4342506677    0.5787568026
     11  H        -0.5824047164   -2.2988214682    0.0011067766
   Point Group: c1    Number of degrees of freedom:    27


   Energy is  -1038.335142047

              Constraints and their Current Values
                                        Value     Constraint
   Distance(Angs):        1   3             1.997995     2.000000
 Hessian Updated using BFGS Update

   Using Lagrange Multiplier Algorithm


 25 Hessian modes will be used to form the next step
  Hessian Eigenvalues:
    -0.951449    0.045000    0.045009    0.075848    0.079904    0.081252
     0.083438    0.084695    0.086281    0.117353    0.160000    0.161411
     0.188218    0.223824    0.236231    0.254202    0.305812    0.310799
     0.340298    0.343884    0.344478    0.346380    0.346652    0.348788
     1.052856

 Minimum Search - Taking P-RFO Step
 Searching for Lamda that Maximizes Along the Constraint modes Only
 Value Taken    Lamda =   0.00007212
 Searching for Lamda that Minimizes Along All other modes
 Value Taken    Lamda =  -0.00062604
 Step Taken.  Stepsize is  0.065245

                             Maximum     Tolerance    Cnvgd?
         Gradient            0.015728       0.000300      NO
         Displacement        0.040370       0.001200      NO
         Energy change      0.005183       0.000001      NO


 New Cartesian Coordinates Obtained by Inverse Iteration

 Displacement from previous Coordinates is:  0.044829
 ----------------------------------------------------------------
             Standard Nuclear Orientation (Angstroms)
    I     Atom           X                Y                Z
 ----------------------------------------------------------------
    1      Cl     -1.3168851356     1.4794390121     0.2597950253
    2      Cl      1.9546860949     0.1108431125     0.6111198152
    3      C      -0.5962304188    -0.2255799602    -0.4975378043
    4      C       0.8693581017    -0.0342202728    -0.8281843051
    5      C      -0.9436731001    -1.3589256613     0.4412226493
    6      H      -1.1415313768    -0.2976630884    -1.4415197980
    7      H       1.2092654265    -0.9125681929    -1.3847184877
    8      H       1.0231471043     0.8587120798    -1.4330448336
    9      H      -0.4670143071    -1.2268186779     1.4139355552
   10      H      -2.0239402455    -1.4285715463     0.5807463433
   11      H      -0.5868821434    -2.2992448046     0.0029828403
 ----------------------------------------------------------------
 Nuclear Repulsion Energy =   276.8914411215 hartrees
 There are       29 alpha and       29 beta electrons

                       Distance Matrix (Angstroms)
             Cl(  1)   Cl(  2)   C (  3)   C (  4)   C (  5)   H (  6)
   Cl(  2)  3.563659
   C (  3)  1.999996  2.801692
   C (  4)  2.873069  1.808474  1.514561
   C (  5)  2.868539  3.254162  1.512105  2.579403
   H (  6)  2.466437  3.737214  1.092543  2.118787  2.170287
   H (  7)  3.848059  2.363555  2.125760  1.093966  2.858048  2.430551
   H (  8)  2.954109  2.367632  2.161769  1.089420  3.507018  2.454202
   H (  9)  3.062377  2.880709  2.161691  2.869718  1.091250  3.077650
   H ( 10)  3.009894  4.266168  2.155978  3.507203  1.091464  2.479347
   H ( 11)  3.857111  3.554986  2.133236  2.818122  1.097066  2.529931
             H (  7)   H (  8)   H (  9)   H ( 10)
   H (  8)  1.781687
   H (  9)  3.277367  3.830838
   H ( 10)  3.818760  4.309497  1.777337
   H ( 11)  2.659837  3.824534  1.776303  1.776800
 
 Applying Cartesian multipole field
    Component          Value
    ---------          -----
     (2,0,0)        1.00000E-11
     (0,2,0)        2.00000E-11
     (0,0,2)       -3.00000E-10
 Nucleus-field energy     =    -0.0000000159 hartrees
 Requested basis set is 6-31G(d,p)
 There are 40 shells and 113 basis functions
 A cutoff of  1.0D-14 yielded    786 shell pairs
 There are      6455 function pairs
 Smallest overlap matrix eigenvalue = 5.72E-03
 Guess from superposition of atomic densities
 Warning:  Energy on first SCF cycle will be non-variational
 SAD guess density has 58.000000 electrons

 -----------------------------------------------------------------------
  General SCF calculation program by
  Eric Jon Sundstrom, Paul Horn, Yuezhi Mao, Dmitri Zuev, Alec White,
  David Stuck, Shaama M.S., Shane Yost, Joonho Lee, David Small,
  Daniel Levine, Susi Lehtola, Hugh Burton, Evgeny Epifanovsky
 -----------------------------------------------------------------------
 Exchange:     0.2000 Hartree-Fock + 0.0800 Slater + 0.7200 B88
 Correlation:  0.1900 VWN1RPA + 0.8100 LYP
 Using SG-1 standard quadrature grid
 using 12 threads for integral computing
 -------------------------------------------------------
 OpenMP Integral computing Module                
 Release: version 1.0, May 2013, Q-Chem Inc. Pittsburgh 
 -------------------------------------------------------
 -------------------------------------------------------
 OpenMP BLAS3 based DFT computing Module                
 Release: version 1.0, May 2013, Q-Chem Inc. Pittsburgh 
 -------------------------------------------------------
 A unrestricted SCF calculation will be
 performed using DIIS
 SCF converges when DIIS error is below 1.0e-06
 Alpha HF Exchange    Energy =  -7.28978984570808
 Beta HF Exchange     Energy =  -7.28978984570808
 DFT Correlation      Energy =  -2.76897750722987
 DFT Exchange         Energy = -57.36223706749351
 One-Electron (alpha) Energy = -988.00298566633558
 One-Electron (beta)  Energy = -988.00298566633558
 Total Coulomb        Energy = 735.03339298183050
 ---------------------------------------
  Cycle       Energy         DIIS error
 ---------------------------------------
    1   -1038.7919315114      2.75e-02  
 Alpha HF Exchange    Energy =  -7.29339327068056
 Beta HF Exchange     Energy =  -7.29339327068055
 DFT Correlation      Energy =  -2.79090537111607
 DFT Exchange         Energy = -57.87217190185116
 One-Electron (alpha) Energy = -991.28350664121740
 One-Electron (beta)  Energy = -991.28350664121729
 Total Coulomb        Energy = 742.63996085875033
    2   -1038.2854751325      2.68e-03  
 Alpha HF Exchange    Energy =  -7.24807319884301
 Beta HF Exchange     Energy =  -7.24807319884302
 DFT Correlation      Energy =  -2.77328012631871
 DFT Exchange         Energy = -57.49817631126205
 One-Electron (alpha) Energy = -988.35964666087671
 One-Electron (beta)  Energy = -988.35964666087716
 Total Coulomb        Energy = 736.30641812647002
    3   -1038.2890369250      2.64e-03  
 Alpha HF Exchange    Energy =  -7.26773822500657
 Beta HF Exchange     Energy =  -7.26773822500658
 DFT Correlation      Energy =  -2.78128165445775
 DFT Exchange         Energy = -57.65854962953828
 One-Electron (alpha) Energy = -989.68940113215092
 One-Electron (beta)  Energy = -989.68940113215137
 Total Coulomb        Energy = 739.12774118951563
    4   -1038.3349277033      2.49e-04  
 Alpha HF Exchange    Energy =  -7.26897640780981
 Beta HF Exchange     Energy =  -7.26897640780980
 DFT Correlation      Energy =  -2.78169909708877
 DFT Exchange         Energy = -57.66914297072409
 One-Electron (alpha) Energy = -989.77890250538042
 One-Electron (beta)  Energy = -989.77890250538030
 Total Coulomb        Energy = 739.31989249469348
    5   -1038.3352662940      9.03e-05  
 Alpha HF Exchange    Energy =  -7.26860597593605
 Beta HF Exchange     Energy =  -7.26860597593605
 DFT Correlation      Energy =  -2.78146433776146
 DFT Exchange         Energy = -57.66555661449827
 One-Electron (alpha) Energy = -989.73503630507491
 One-Electron (beta)  Energy = -989.73503630507525
 Total Coulomb        Energy = 739.22755990279347
    6   -1038.3353045060      4.72e-05  
 Alpha HF Exchange    Energy =  -7.26855231969775
 Beta HF Exchange     Energy =  -7.26855231969776
 DFT Correlation      Energy =  -2.78150690795030
 DFT Exchange         Energy = -57.66534938788568
 One-Electron (alpha) Energy = -989.73819420660095
 One-Electron (beta)  Energy = -989.73819420660129
 Total Coulomb        Energy = 739.23358874200005
    7   -1038.3353195009      7.28e-06  
 Alpha HF Exchange    Energy =  -7.26860204511513
 Beta HF Exchange     Energy =  -7.26860204511513
 DFT Correlation      Energy =  -2.78151527683970
 DFT Exchange         Energy = -57.66571319520030
 One-Electron (alpha) Energy = -989.74222142037570
 One-Electron (beta)  Energy = -989.74222142037570
 Total Coulomb        Energy = 739.24211443657066
    8   -1038.3353198609      2.18e-06  
 Alpha HF Exchange    Energy =  -7.26859389337539
 Beta HF Exchange     Energy =  -7.26859389337539
 DFT Correlation      Energy =  -2.78151416061642
 DFT Exchange         Energy = -57.66565289028242
 One-Electron (alpha) Energy = -989.74152134388100
 One-Electron (beta)  Energy = -989.74152134388078
 Total Coulomb        Energy = 739.24063652760015
    9   -1038.3353198923      5.44e-07  Convergence criterion met
 ---------------------------------------
 SCF time:   CPU 22.97s  wall 2.00s 
<S^2> =         -0.000000000
 Alpha HF Exchange    Energy =  -7.26859389337539
 Beta HF Exchange     Energy =  -7.26859389337539
 DFT Correlation      Energy =  -2.78151416061642
 DFT Exchange         Energy = -57.66565289028242
 One-Electron (alpha) Energy = -989.74152134388100
 One-Electron (beta)  Energy = -989.74152134388078
 Total Coulomb        Energy = 739.24063652760015
 Nuclear repulsion Energy = 276.89144110553093
 SCF   energy in the final basis set =    -1038.3353198923
 Total energy in the final basis set =    -1038.3353198923
 
 --------------------------------------------------------------
 
                    Orbital Energies (a.u.)
 --------------------------------------------------------------
 
 Alpha MOs
 -- Occupied --
*******-101.527 -10.283 -10.269 -10.205  -9.460  -9.441  -7.224
 -7.214  -7.214  -7.205  -7.196  -7.196  -0.880  -0.821  -0.761
 -0.707  -0.596  -0.498  -0.489  -0.451  -0.424  -0.399  -0.386
 -0.358  -0.309  -0.306  -0.295  -0.292
 -- Virtual --
 -0.033   0.020   0.071   0.121   0.132   0.138   0.156   0.168
  0.189   0.220   0.370   0.393   0.420   0.428   0.449   0.456
  0.465   0.498   0.519   0.532   0.552   0.578   0.593   0.658
  0.674   0.687   0.743   0.800   0.812   0.848   0.851   0.865
  0.877   0.893   0.898   0.909   0.916   0.936   0.949   0.991
  1.037   1.053   1.082   1.171   1.314   1.383   1.402   1.542
  1.567   1.704   1.790   1.833   1.844   1.870   2.017   2.026
  2.046   2.067   2.081   2.099   2.218   2.268   2.323   2.374
  2.482   2.553   2.593   2.634   2.671   2.725   2.805   2.854
  2.883   3.182   3.230   3.319   3.394   3.426   3.456   4.156
  4.268   4.300   4.437   4.564
 
 Beta MOs
 -- Occupied --
*******-101.527 -10.283 -10.269 -10.205  -9.460  -9.441  -7.224
 -7.214  -7.214  -7.205  -7.196  -7.196  -0.880  -0.821  -0.761
 -0.707  -0.596  -0.498  -0.489  -0.451  -0.424  -0.399  -0.386
 -0.358  -0.309  -0.306  -0.295  -0.292
 -- Virtual --
 -0.033   0.020   0.071   0.121   0.132   0.138   0.156   0.168
  0.189   0.220   0.370   0.393   0.420   0.428   0.449   0.456
  0.465   0.498   0.519   0.532   0.552   0.578   0.593   0.658
  0.674   0.687   0.743   0.800   0.812   0.848   0.851   0.865
  0.877   0.893   0.898   0.909   0.916   0.936   0.949   0.991
  1.037   1.053   1.082   1.171   1.314   1.383   1.402   1.542
  1.567   1.704   1.790   1.833   1.844   1.870   2.017   2.026
  2.046   2.067   2.081   2.099   2.218   2.268   2.323   2.374
  2.482   2.553   2.593   2.634   2.671   2.725   2.805   2.854
  2.883   3.182   3.230   3.319   3.394   3.426   3.456   4.156
  4.268   4.300   4.437   4.564
 --------------------------------------------------------------
 
          Ground-State Mulliken Net Atomic Charges

     Atom                 Charge (a.u.)    Spin (a.u.)
  --------------------------------------------------------
      1 Cl                   -0.159760       0.000000
      2 Cl                   -0.061963       0.000000
      3 C                    -0.134239      -0.000000
      4 C                    -0.268194       0.000000
      5 C                    -0.305294       0.000000
      6 H                     0.166029       0.000000
      7 H                     0.164175      -0.000000
      8 H                     0.180971      -0.000000
      9 H                     0.159047       0.000000
     10 H                     0.139054       0.000000
     11 H                     0.120175       0.000000
  --------------------------------------------------------
  Sum of atomic charges =     0.000000
  Sum of spin   charges =     0.000000

 -----------------------------------------------------------------
                    Cartesian Multipole Moments
 -----------------------------------------------------------------
    Charge (ESU x 10^10)
                -0.0000
    Dipole Moment (Debye)
         X      -0.2180      Y      -2.6384      Z      -2.2686
       Tot       3.4864
    Quadrupole Moments (Debye-Ang)
        XX     -48.3850     XY       2.6986     YY     -45.7119
        XZ      -1.1719     YZ      -0.2615     ZZ     -42.4335
    Octopole Moments (Debye-Ang^2)
       XXX     -12.9865    XXY     -12.0965    XYY      -1.8320
       YYY     -28.2256    XXZ      -6.5310    XYZ       0.0277
       YYZ      -5.7265    XZZ      -0.9909    YZZ      -8.9754
       ZZZ     -17.1005
    Hexadecapole Moments (Debye-Ang^3)
      XXXX    -580.9509   XXXY      41.9543   XXYY    -148.9081
      XYYY      33.2907   YYYY    -314.1595   XXXZ      -9.7688
      XXYZ      -0.2169   XYYZ      -9.1175   YYYZ      -1.3249
      XXZZ    -112.5527   XYZZ      12.6072   YYZZ     -76.7425
      XZZZ      -8.7822   YZZZ      -6.3722   ZZZZ    -143.4042
 -----------------------------------------------------------------
 Calculating analytic gradient of the SCF energy
 Gradient of SCF Energy
            1           2           3           4           5           6
    1  -0.0123168   0.0001671   0.0100713   0.0006925   0.0006897   0.0011139
    2   0.0294049   0.0002794  -0.0239613  -0.0020253  -0.0024552  -0.0021347
    3   0.0133829   0.0003291  -0.0109724  -0.0016301  -0.0010510  -0.0007896
            7           8           9          10          11
    1  -0.0001549   0.0000904  -0.0001401  -0.0001358  -0.0000774
    2   0.0001536   0.0001816   0.0001391   0.0000978   0.0003201
    3   0.0003119  -0.0000103   0.0001595   0.0002112   0.0000586
 Max gradient component =       2.940E-02
 RMS gradient           =       7.811E-03
 Gradient time:  CPU 9.33 s  wall 0.78 s
 Geometry Optimization Parameters
   NAtoms,    NIC,     NZ,  NCons,   NDum,   NFix, NCnnct, MaxDiis
       11      68       0       1       0       0       0       0

 Cartesian Hessian Update
 Hessian Updated using BFGS Update


** CONSTRAINED OPTIMIZATION IN DELOCALIZED INTERNAL COORDINATES **
   Searching for a Minimum

   Optimization Cycle:   3

                       Coordinates (Angstroms)
     ATOM                X               Y               Z
      1  Cl       -1.3168851356    1.4794390121    0.2597950253
      2  Cl        1.9546860949    0.1108431125    0.6111198152
      3  C        -0.5962304188   -0.2255799602   -0.4975378043
      4  C         0.8693581017   -0.0342202728   -0.8281843051
      5  C        -0.9436731001   -1.3589256613    0.4412226493
      6  H        -1.1415313768   -0.2976630884   -1.4415197980
      7  H         1.2092654265   -0.9125681929   -1.3847184877
      8  H         1.0231471043    0.8587120798   -1.4330448336
      9  H        -0.4670143071   -1.2268186779    1.4139355552
     10  H        -2.0239402455   -1.4285715463    0.5807463433
     11  H        -0.5868821434   -2.2992448046    0.0029828403
   Point Group: c1    Number of degrees of freedom:    27


   Energy is  -1038.335319892

              Constraints and their Current Values
                                        Value     Constraint
   Distance(Angs):        1   3             1.999996     2.000000
 Hessian Updated using BFGS Update

   Using Lagrange Multiplier Algorithm


 26 Hessian modes will be used to form the next step
  Hessian Eigenvalues:
    -0.948415    0.039225    0.045001    0.046747    0.077918    0.080802
     0.083156    0.084691    0.086226    0.117319    0.159975    0.160000
     0.174857    0.188304    0.224001    0.233495    0.254474    0.305867
     0.306178    0.340753    0.343995    0.344468    0.346512    0.346803
     0.349150    1.056791

 Minimum Search - Taking P-RFO Step
 Searching for Lamda that Maximizes Along the Constraint modes Only
 Value Taken    Lamda =   0.00000000
 Searching for Lamda that Minimizes Along All other modes
 Value Taken    Lamda =  -0.00022243
 Step Taken.  Stepsize is  0.072678

                             Maximum     Tolerance    Cnvgd?
         Gradient            0.001803       0.000300      NO
         Displacement        0.044276       0.001200      NO
         Energy change     -0.000178       0.000001      NO


 New Cartesian Coordinates Obtained by Inverse Iteration

 Displacement from previous Coordinates is:  0.062777
 ----------------------------------------------------------------
             Standard Nuclear Orientation (Angstroms)
    I     Atom           X                Y                Z
 ----------------------------------------------------------------
    1      Cl     -1.3121880638     1.4680880340     0.2529288848
    2      Cl      1.9528508384     0.1057800224     0.6121335596
    3      C      -0.5917108288    -0.2375546193    -0.5031761482
    4      C       0.8705216725    -0.0323025587    -0.8282517482
    5      C      -0.9446889465    -1.3586576730     0.4432112371
    6      H      -1.1468235716    -0.2915712841    -1.4417515456
    7      H       1.2189621331    -0.9036790535    -1.3922721063
    8      H       1.0177393576     0.8654407037    -1.4267416405
    9      H      -0.4650820622    -1.2232500528     1.4137142399
   10      H      -2.0249402912    -1.4211117357     0.5828318993
   11      H      -0.5943402376    -2.3057797829     0.0121703680
 ----------------------------------------------------------------
 Nuclear Repulsion Energy =   277.3128002771 hartrees
 There are       29 alpha and       29 beta electrons

                       Distance Matrix (Angstroms)
             Cl(  1)   Cl(  2)   C (  3)   C (  4)   C (  5)   H (  6)
   Cl(  2)  3.556036
   C (  3)  2.000000  2.799391
   C (  4)  2.860829  1.806990  1.511928
   C (  5)  2.856878  3.250977  1.509011  2.582794
   H (  6)  2.448609  3.739561  1.091784  2.124449  2.175458
   H (  7)  3.839100  2.361195  2.124323  1.094909  2.873568  2.444190
   H (  8)  2.934798  2.368234  2.158681  1.088947  3.506346  2.454432
   H (  9)  3.050953  2.873195  2.159189  2.868554  1.090978  3.080013
   H ( 10)  2.994049  4.260878  2.152758  3.507656  1.091026  2.479090
   H ( 11)  3.849071  3.558618  2.131465  2.832107  1.097989  2.544831
             H (  7)   H (  8)   H (  9)   H ( 10)
   H (  8)  1.780860
   H (  9)  3.288113  3.824863
   H ( 10)  3.832972  4.304022  1.778390
   H ( 11)  2.688198  3.837435  1.775642  1.776206
 
 Applying Cartesian multipole field
    Component          Value
    ---------          -----
     (2,0,0)        1.00000E-11
     (0,2,0)        2.00000E-11
     (0,0,2)       -3.00000E-10
 Nucleus-field energy     =    -0.0000000160 hartrees
 Requested basis set is 6-31G(d,p)
 There are 40 shells and 113 basis functions
 A cutoff of  1.0D-14 yielded    788 shell pairs
 There are      6459 function pairs
 Smallest overlap matrix eigenvalue = 5.71E-03
 Guess from superposition of atomic densities
 Warning:  Energy on first SCF cycle will be non-variational
 SAD guess density has 58.000000 electrons

 -----------------------------------------------------------------------
  General SCF calculation program by
  Eric Jon Sundstrom, Paul Horn, Yuezhi Mao, Dmitri Zuev, Alec White,
  David Stuck, Shaama M.S., Shane Yost, Joonho Lee, David Small,
  Daniel Levine, Susi Lehtola, Hugh Burton, Evgeny Epifanovsky
 -----------------------------------------------------------------------
 Exchange:     0.2000 Hartree-Fock + 0.0800 Slater + 0.7200 B88
 Correlation:  0.1900 VWN1RPA + 0.8100 LYP
 Using SG-1 standard quadrature grid
 using 12 threads for integral computing
 -------------------------------------------------------
 OpenMP Integral computing Module                
 Release: version 1.0, May 2013, Q-Chem Inc. Pittsburgh 
 -------------------------------------------------------
 -------------------------------------------------------
 OpenMP BLAS3 based DFT computing Module                
 Release: version 1.0, May 2013, Q-Chem Inc. Pittsburgh 
 -------------------------------------------------------
 A unrestricted SCF calculation will be
 performed using DIIS
 SCF converges when DIIS error is below 1.0e-06
 Alpha HF Exchange    Energy =  -7.29063771836683
 Beta HF Exchange     Energy =  -7.29063771836683
 DFT Correlation      Energy =  -2.76923466735132
 DFT Exchange         Energy = -57.36389967524919
 One-Electron (alpha) Energy = -988.42145308318413
 One-Electron (beta)  Energy = -988.42145308318413
 Total Coulomb        Energy = 735.44470171714340
 ---------------------------------------
  Cycle       Energy         DIIS error
 ---------------------------------------
    1   -1038.7998139675      2.76e-02  
 Alpha HF Exchange    Energy =  -7.29384308212126
 Beta HF Exchange     Energy =  -7.29384308212126
 DFT Correlation      Energy =  -2.79120695744348
 DFT Exchange         Energy = -57.87540222949499
 One-Electron (alpha) Energy = -991.71563766114707
 One-Electron (beta)  Energy = -991.71563766114718
 Total Coulomb        Energy = 743.08725058039681
    2   -1038.2855198320      2.68e-03  
 Alpha HF Exchange    Energy =  -7.24833874143341
 Beta HF Exchange     Energy =  -7.24833874143341
 DFT Correlation      Energy =  -2.77353626082105
 DFT Exchange         Energy = -57.50000178026774
 One-Electron (alpha) Energy = -988.77151963731569
 One-Electron (beta)  Energy = -988.77151963731546
 Total Coulomb        Energy = 736.71126974322476
    3   -1038.2891847943      2.64e-03  
 Alpha HF Exchange    Energy =  -7.26812264008784
 Beta HF Exchange     Energy =  -7.26812264008782
 DFT Correlation      Energy =  -2.78156631151855
 DFT Exchange         Energy = -57.66127277866103
 One-Electron (alpha) Energy = -990.11491411696568
 One-Electron (beta)  Energy = -990.11491411696488
 Total Coulomb        Energy = 739.56106129924592
    4   -1038.3350510439      2.49e-04  
 Alpha HF Exchange    Energy =  -7.26932465758825
 Beta HF Exchange     Energy =  -7.26932465758825
 DFT Correlation      Energy =  -2.78197589291761
 DFT Exchange         Energy = -57.67159506473555
 One-Electron (alpha) Energy = -990.20094198321647
 One-Electron (beta)  Energy = -990.20094198321692
 Total Coulomb        Energy = 739.74591766391245
    5   -1038.3353863142      9.08e-05  
 Alpha HF Exchange    Energy =  -7.26897109741976
 Beta HF Exchange     Energy =  -7.26897109741976
 DFT Correlation      Energy =  -2.78174363129165
 DFT Exchange         Energy = -57.66813158572232
 One-Electron (alpha) Energy = -990.15838302036525
 One-Electron (beta)  Energy = -990.15838302036536
 Total Coulomb        Energy = 739.65635841077176
    6   -1038.3354247807      4.78e-05  
 Alpha HF Exchange    Energy =  -7.26891455822826
 Beta HF Exchange     Energy =  -7.26891455822826
 DFT Correlation      Energy =  -2.78178612661909
 DFT Exchange         Energy = -57.66790460553715
 One-Electron (alpha) Energy = -990.16136027486357
 One-Electron (beta)  Energy = -990.16136027486345
 Total Coulomb        Energy = 739.66199996913974
    7   -1038.3354401681      7.10e-06  
 Alpha HF Exchange    Energy =  -7.26896371500730
 Beta HF Exchange     Energy =  -7.26896371500729
 DFT Correlation      Energy =  -2.78179453525958
 DFT Exchange         Energy = -57.66826485745705
 One-Electron (alpha) Energy = -990.16535729860175
 One-Electron (beta)  Energy = -990.16535729860152
 Total Coulomb        Energy = 739.67046064930400
    8   -1038.3354405095      2.17e-06  
 Alpha HF Exchange    Energy =  -7.26895550609075
 Beta HF Exchange     Energy =  -7.26895550609075
 DFT Correlation      Energy =  -2.78179336216391
 DFT Exchange         Energy = -57.66820391676306
 One-Electron (alpha) Energy = -990.16464839962237
 One-Electron (beta)  Energy = -990.16464839962305
 Total Coulomb        Energy = 739.66896428883388
    9   -1038.3354405404      5.34e-07  Convergence criterion met
 ---------------------------------------
 SCF time:   CPU 23.99s  wall 2.00s 
<S^2> =         -0.000000000
 Alpha HF Exchange    Energy =  -7.26895550609075
 Beta HF Exchange     Energy =  -7.26895550609075
 DFT Correlation      Energy =  -2.78179336216391
 DFT Exchange         Energy = -57.66820391676306
 One-Electron (alpha) Energy = -990.16464839962237
 One-Electron (beta)  Energy = -990.16464839962305
 Total Coulomb        Energy = 739.66896428883388
 Nuclear repulsion Energy = 277.31280026110721
 SCF   energy in the final basis set =    -1038.3354405404
 Total energy in the final basis set =    -1038.3354405404
 
 --------------------------------------------------------------
 
                    Orbital Energies (a.u.)
 --------------------------------------------------------------
 
 Alpha MOs
 -- Occupied --
*******-101.526 -10.283 -10.269 -10.205  -9.460  -9.440  -7.224
 -7.214  -7.214  -7.204  -7.195  -7.195  -0.881  -0.821  -0.760
 -0.707  -0.596  -0.499  -0.488  -0.451  -0.424  -0.400  -0.387
 -0.356  -0.309  -0.306  -0.295  -0.292
 -- Virtual --
 -0.033   0.020   0.071   0.121   0.132   0.138   0.156   0.169
  0.190   0.221   0.370   0.393   0.420   0.429   0.449   0.457
  0.466   0.497   0.518   0.532   0.554   0.579   0.592   0.659
  0.674   0.686   0.742   0.800   0.812   0.848   0.850   0.865
  0.876   0.893   0.898   0.910   0.917   0.937   0.950   0.990
  1.037   1.054   1.084   1.175   1.314   1.382   1.402   1.541
  1.570   1.703   1.791   1.837   1.846   1.870   2.018   2.027
  2.046   2.068   2.082   2.102   2.216   2.267   2.322   2.376
  2.481   2.552   2.593   2.635   2.676   2.725   2.807   2.854
  2.885   3.183   3.230   3.321   3.394   3.427   3.454   4.157
  4.269   4.300   4.437   4.566
 
 Beta MOs
 -- Occupied --
*******-101.526 -10.283 -10.269 -10.205  -9.460  -9.440  -7.224
 -7.214  -7.214  -7.204  -7.195  -7.195  -0.881  -0.821  -0.760
 -0.707  -0.596  -0.499  -0.488  -0.451  -0.424  -0.400  -0.387
 -0.356  -0.309  -0.306  -0.295  -0.292
 -- Virtual --
 -0.033   0.020   0.071   0.121   0.132   0.138   0.156   0.169
  0.190   0.221   0.370   0.393   0.420   0.429   0.449   0.457
  0.466   0.497   0.518   0.532   0.554   0.579   0.592   0.659
  0.674   0.686   0.742   0.800   0.812   0.848   0.850   0.865
  0.876   0.893   0.898   0.910   0.917   0.937   0.950   0.990
  1.037   1.054   1.084   1.175   1.314   1.382   1.402   1.541
  1.570   1.703   1.791   1.837   1.846   1.870   2.018   2.027
  2.046   2.068   2.082   2.102   2.216   2.267   2.322   2.376
  2.481   2.552   2.593   2.635   2.676   2.725   2.807   2.854
  2.885   3.183   3.230   3.321   3.394   3.427   3.454   4.157
  4.269   4.300   4.437   4.566
 --------------------------------------------------------------
 
          Ground-State Mulliken Net Atomic Charges

     Atom                 Charge (a.u.)    Spin (a.u.)
  --------------------------------------------------------
      1 Cl                   -0.163672       0.000000
      2 Cl                   -0.060705       0.000000
      3 C                    -0.134934       0.000000
      4 C                    -0.268207       0.000000
      5 C                    -0.304838      -0.000000
      6 H                     0.167693      -0.000000
      7 H                     0.163975      -0.000000
      8 H                     0.181505       0.000000
      9 H                     0.159460       0.000000
     10 H                     0.139695       0.000000
     11 H                     0.120028      -0.000000
  --------------------------------------------------------
  Sum of atomic charges =    -0.000000
  Sum of spin   charges =     0.000000

 -----------------------------------------------------------------
                    Cartesian Multipole Moments
 -----------------------------------------------------------------
    Charge (ESU x 10^10)
                 0.0000
    Dipole Moment (Debye)
         X      -0.2020      Y      -2.6465      Z      -2.2694
       Tot       3.4921
    Quadrupole Moments (Debye-Ang)
        XX     -48.3409     XY       2.7377     YY     -45.7343
        XZ      -1.1534     YZ      -0.2925     ZZ     -42.4123
    Octopole Moments (Debye-Ang^2)
       XXX     -13.0971    XXY     -11.9010    XYY      -1.8461
       YYY     -27.5583    XXZ      -6.4721    XYZ       0.0442
       YYZ      -5.6389    XZZ      -1.0473    YZZ      -8.7443
       ZZZ     -16.8483
    Hexadecapole Moments (Debye-Ang^3)
      XXXX    -579.2814   XXXY      41.4590   XXYY    -148.3519
      XYYY      32.9423   YYYY    -311.8708   XXXZ     -10.0745
      XXYZ      -0.0654   XYYZ      -9.1941   YYYZ      -0.8663
      XXZZ    -112.2437   XYZZ      12.3867   YYZZ     -76.4071
      XZZZ      -9.0692   YZZZ      -5.8112   ZZZZ    -143.4044
 -----------------------------------------------------------------
 Calculating analytic gradient of the SCF energy
 Gradient of SCF Energy
            1           2           3           4           5           6
    1  -0.0116221   0.0000108   0.0118322  -0.0003380  -0.0000040   0.0001177
    2   0.0276686   0.0000728  -0.0276025   0.0002560   0.0000783  -0.0002208
    3   0.0123807  -0.0000245  -0.0120628  -0.0000467  -0.0001453  -0.0001422
            7           8           9          10          11
    1  -0.0000632   0.0000221  -0.0000475   0.0000432   0.0000487
    2  -0.0002079  -0.0001075  -0.0000354   0.0000417   0.0000566
    3   0.0001427  -0.0000105   0.0000324   0.0000456  -0.0001695
 Max gradient component =       2.767E-02
 RMS gradient           =       7.981E-03
 Gradient time:  CPU 9.46 s  wall 0.79 s
 Geometry Optimization Parameters
   NAtoms,    NIC,     NZ,  NCons,   NDum,   NFix, NCnnct, MaxDiis
       11      68       0       1       0       0       0       0

 Cartesian Hessian Update
 Hessian Updated using BFGS Update


** CONSTRAINED OPTIMIZATION IN DELOCALIZED INTERNAL COORDINATES **
   Searching for a Minimum

   Optimization Cycle:   4

                       Coordinates (Angstroms)
     ATOM                X               Y               Z
      1  Cl       -1.3121880638    1.4680880340    0.2529288848
      2  Cl        1.9528508384    0.1057800224    0.6121335596
      3  C        -0.5917108288   -0.2375546193   -0.5031761482
      4  C         0.8705216725   -0.0323025587   -0.8282517482
      5  C        -0.9446889465   -1.3586576730    0.4432112371
      6  H        -1.1468235716   -0.2915712841   -1.4417515456
      7  H         1.2189621331   -0.9036790535   -1.3922721063
      8  H         1.0177393576    0.8654407037   -1.4267416405
      9  H        -0.4650820622   -1.2232500528    1.4137142399
     10  H        -2.0249402912   -1.4211117357    0.5828318993
     11  H        -0.5943402376   -2.3057797829    0.0121703680
   Point Group: c1    Number of degrees of freedom:    27


   Energy is  -1038.335440540

              Constraints and their Current Values
                                        Value     Constraint
   Distance(Angs):        1   3             2.000000     2.000000
 Hessian Updated using BFGS Update

 25 Hessian modes will be used to form the next step
  Hessian Eigenvalues:
     0.033765    0.045007    0.048017    0.077832    0.080924    0.083212
     0.084708    0.086231    0.117309    0.159984    0.160000    0.160071
     0.174163    0.188370    0.223999    0.235879    0.254519    0.306129
     0.313892    0.340732    0.343901    0.344527    0.346530    0.346805
     0.349272

 Minimum Search - Taking Simple RFO Step
 Searching for Lamda that Minimizes Along All modes
 Value Taken    Lamda =  -0.00000631
 Step Taken.  Stepsize is  0.011677

                             Maximum     Tolerance    Cnvgd?
         Gradient           0.000423      0.000300      NO
         Displacement       0.005240      0.001200      NO
         Energy change     -0.000121      0.000001      NO


 New Cartesian Coordinates Obtained by Inverse Iteration

 Displacement from previous Coordinates is:  0.014940
 ----------------------------------------------------------------
             Standard Nuclear Orientation (Angstroms)
    I     Atom           X                Y                Z
 ----------------------------------------------------------------
    1      Cl     -1.3125709781     1.4667983214     0.2512598839
    2      Cl      1.9528145015     0.1030835470     0.6124457594
    3      C      -0.5914559637    -0.2388784567    -0.5041598619
    4      C       0.8711983709    -0.0322744644    -0.8286663194
    5      C      -0.9449563745    -1.3589161502     0.4436950553
    6      H      -1.1477650467    -0.2904034717    -1.4419654254
    7      H       1.2213003939    -0.9011944769    -1.3952879085
    8      H       1.0173787286     0.8671933442    -1.4250282103
    9      H      -0.4648816084    -1.2217687963     1.4137072795
   10      H      -2.0252808449    -1.4206722406     0.5834356722
   11      H      -0.5954811788    -2.3075651559     0.0153610752
 ----------------------------------------------------------------
 Nuclear Repulsion Energy =   277.3069280953 hartrees
 There are       29 alpha and       29 beta electrons

                       Distance Matrix (Angstroms)
             Cl(  1)   Cl(  2)   C (  3)   C (  4)   C (  5)   H (  6)
   Cl(  2)  3.557094
   C (  3)  2.000000  2.799475
   C (  4)  2.860473  1.806936  1.512398
   C (  5)  2.856017  3.250076  1.509263  2.584047
   H (  6)  2.445799  3.740191  1.091611  2.125789  2.176825
   H (  7)  3.839142  2.361076  2.125760  1.094830  2.878200  2.446981
   H (  8)  2.932257  2.368587  2.158644  1.089063  3.506914  2.455232
   H (  9)  3.049304  2.870977  2.158775  2.868492  1.090965  3.080363
   H ( 10)  2.992621  4.260037  2.152987  3.508742  1.091074  2.479877
   H ( 11)  3.849115  3.558307  2.132928  2.835574  1.097970  2.549070
             H (  7)   H (  8)   H (  9)   H ( 10)
   H (  8)  1.780355
   H (  9)  3.291874  3.823516
   H ( 10)  3.837381  4.304188  1.778696
   H ( 11)  2.696016  3.841241  1.775213  1.775842
 
 Applying Cartesian multipole field
    Component          Value
    ---------          -----
     (2,0,0)        1.00000E-11
     (0,2,0)        2.00000E-11
     (0,0,2)       -3.00000E-10
 Nucleus-field energy     =    -0.0000000160 hartrees
 Requested basis set is 6-31G(d,p)
 There are 40 shells and 113 basis functions
 A cutoff of  1.0D-14 yielded    788 shell pairs
 There are      6459 function pairs
 Smallest overlap matrix eigenvalue = 5.72E-03
 Guess from superposition of atomic densities
 Warning:  Energy on first SCF cycle will be non-variational
 SAD guess density has 58.000000 electrons

 -----------------------------------------------------------------------
  General SCF calculation program by
  Eric Jon Sundstrom, Paul Horn, Yuezhi Mao, Dmitri Zuev, Alec White,
  David Stuck, Shaama M.S., Shane Yost, Joonho Lee, David Small,
  Daniel Levine, Susi Lehtola, Hugh Burton, Evgeny Epifanovsky
 -----------------------------------------------------------------------
 Exchange:     0.2000 Hartree-Fock + 0.0800 Slater + 0.7200 B88
 Correlation:  0.1900 VWN1RPA + 0.8100 LYP
 Using SG-1 standard quadrature grid
 using 12 threads for integral computing
 -------------------------------------------------------
 OpenMP Integral computing Module                
 Release: version 1.0, May 2013, Q-Chem Inc. Pittsburgh 
 -------------------------------------------------------
 -------------------------------------------------------
 OpenMP BLAS3 based DFT computing Module                
 Release: version 1.0, May 2013, Q-Chem Inc. Pittsburgh 
 -------------------------------------------------------
 A unrestricted SCF calculation will be
 performed using DIIS
 SCF converges when DIIS error is below 1.0e-06
 Alpha HF Exchange    Energy =  -7.29056142146265
 Beta HF Exchange     Energy =  -7.29056142146265
 DFT Correlation      Energy =  -2.76922109802293
 DFT Exchange         Energy = -57.36376185183697
 One-Electron (alpha) Energy = -988.41581587340795
 One-Electron (beta)  Energy = -988.41581587340795
 Total Coulomb        Energy = 735.43969242021194
 ---------------------------------------
  Cycle       Energy         DIIS error
 ---------------------------------------
    1   -1038.7991170401      2.76e-02  
 Alpha HF Exchange    Energy =  -7.29382032225295
 Beta HF Exchange     Energy =  -7.29382032225296
 DFT Correlation      Energy =  -2.79119108318531
 DFT Exchange         Energy = -57.87522297144454
 One-Electron (alpha) Energy = -991.70943214473994
 One-Electron (beta)  Energy = -991.70943214474016
 Total Coulomb        Energy = 743.08044570634900
    2   -1038.2855452030      2.68e-03  
 Alpha HF Exchange    Energy =  -7.24832607637642
 Beta HF Exchange     Energy =  -7.24832607637641
 DFT Correlation      Energy =  -2.77353360350370
 DFT Exchange         Energy = -57.49993720712538
 One-Electron (alpha) Energy = -988.76707858198733
 One-Electron (beta)  Energy = -988.76707858198699
 Total Coulomb        Energy = 736.70815949760629
    3   -1038.2891925505      2.64e-03  
 Alpha HF Exchange    Energy =  -7.26810274674347
 Beta HF Exchange     Energy =  -7.26810274674347
 DFT Correlation      Energy =  -2.78155346590506
 DFT Exchange         Energy = -57.66111748585033
 One-Electron (alpha) Energy = -990.10930108536024
 One-Electron (beta)  Energy = -990.10930108536036
 Total Coulomb        Energy = 739.55549754037054
    4   -1038.3350529963      2.49e-04  
 Alpha HF Exchange    Energy =  -7.26930334725938
 Beta HF Exchange     Energy =  -7.26930334725938
 DFT Correlation      Energy =  -2.78196670965806
 DFT Exchange         Energy = -57.67144703157971
 One-Electron (alpha) Energy = -990.19554757222545
 One-Electron (beta)  Energy = -990.19554757222556
 Total Coulomb        Energy = 739.74079851849240
    5   -1038.3353889824      9.19e-05  
 Alpha HF Exchange    Energy =  -7.26895462797210
 Beta HF Exchange     Energy =  -7.26895462797210
 DFT Correlation      Energy =  -2.78173334970361
 DFT Exchange         Energy = -57.66801208918191
 One-Electron (alpha) Energy = -990.15313736607686
 One-Electron (beta)  Energy = -990.15313736607675
 Total Coulomb        Energy = 739.65157280672634
    6   -1038.3354285410      4.82e-05  
 Alpha HF Exchange    Energy =  -7.26889481133261
 Beta HF Exchange     Energy =  -7.26889481133261
 DFT Correlation      Energy =  -2.78177538795176
 DFT Exchange         Energy = -57.66776053345046
 One-Electron (alpha) Energy = -990.15589218915932
 One-Electron (beta)  Energy = -990.15589218915909
 Total Coulomb        Energy = 739.65673761608195
    7   -1038.3354442270      7.08e-06  
 Alpha HF Exchange    Energy =  -7.26894412244495
 Beta HF Exchange     Energy =  -7.26894412244496
 DFT Correlation      Energy =  -2.78178393762300
 DFT Exchange         Energy = -57.66812241100415
 One-Electron (alpha) Energy = -990.15991545777376
 One-Electron (beta)  Energy = -990.15991545777433
 Total Coulomb        Energy = 739.66525286403805
    8   -1038.3354445658      2.17e-06  
 Alpha HF Exchange    Energy =  -7.26893595519579
 Beta HF Exchange     Energy =  -7.26893595519580
 DFT Correlation      Energy =  -2.78178276428824
 DFT Exchange         Energy = -57.66806174476739
 One-Electron (alpha) Energy = -990.15920896451291
 One-Electron (beta)  Energy = -990.15920896451325
 Total Coulomb        Energy = 739.66376167260159
    9   -1038.3354445966      5.35e-07  Convergence criterion met
 ---------------------------------------
 SCF time:   CPU 23.68s  wall 2.00s 
<S^2> =         -0.000000000
 Alpha HF Exchange    Energy =  -7.26893595519579
 Beta HF Exchange     Energy =  -7.26893595519580
 DFT Correlation      Energy =  -2.78178276428824
 DFT Exchange         Energy = -57.66806174476739
 One-Electron (alpha) Energy = -990.15920896451291
 One-Electron (beta)  Energy = -990.15920896451325
 Total Coulomb        Energy = 739.66376167260159
 Nuclear repulsion Energy = 277.30692807926602
 SCF   energy in the final basis set =    -1038.3354445966
 Total energy in the final basis set =    -1038.3354445966
 
 --------------------------------------------------------------
 
                    Orbital Energies (a.u.)
 --------------------------------------------------------------
 
 Alpha MOs
 -- Occupied --
*******-101.525 -10.283 -10.269 -10.205  -9.460  -9.440  -7.224
 -7.214  -7.214  -7.204  -7.195  -7.195  -0.881  -0.821  -0.760
 -0.707  -0.596  -0.499  -0.488  -0.451  -0.424  -0.400  -0.387
 -0.356  -0.309  -0.306  -0.295  -0.292
 -- Virtual --
 -0.033   0.020   0.071   0.121   0.132   0.137   0.155   0.169
  0.190   0.221   0.371   0.393   0.419   0.429   0.449   0.457
  0.466   0.497   0.518   0.532   0.554   0.579   0.592   0.659
  0.674   0.686   0.742   0.801   0.812   0.848   0.850   0.865
  0.876   0.893   0.898   0.910   0.917   0.937   0.950   0.990
  1.037   1.054   1.084   1.175   1.314   1.381   1.402   1.541
  1.570   1.703   1.791   1.837   1.846   1.870   2.018   2.027
  2.047   2.068   2.082   2.102   2.216   2.266   2.322   2.376
  2.481   2.552   2.593   2.635   2.677   2.725   2.807   2.854
  2.885   3.183   3.230   3.321   3.394   3.427   3.454   4.157
  4.269   4.300   4.437   4.565
 
 Beta MOs
 -- Occupied --
*******-101.525 -10.283 -10.269 -10.205  -9.460  -9.440  -7.224
 -7.214  -7.214  -7.204  -7.195  -7.195  -0.881  -0.821  -0.760
 -0.707  -0.596  -0.499  -0.488  -0.451  -0.424  -0.400  -0.387
 -0.356  -0.309  -0.306  -0.295  -0.292
 -- Virtual --
 -0.033   0.020   0.071   0.121   0.132   0.137   0.155   0.169
  0.190   0.221   0.371   0.393   0.419   0.429   0.449   0.457
  0.466   0.497   0.518   0.532   0.554   0.579   0.592   0.659
  0.674   0.686   0.742   0.801   0.812   0.848   0.850   0.865
  0.876   0.893   0.898   0.910   0.917   0.937   0.950   0.990
  1.037   1.054   1.084   1.175   1.314   1.381   1.402   1.541
  1.570   1.703   1.791   1.837   1.846   1.870   2.018   2.027
  2.047   2.068   2.082   2.102   2.216   2.266   2.322   2.376
  2.481   2.552   2.593   2.635   2.677   2.725   2.807   2.854
[...]
     11  H        -0.5905837973   -2.3077608269    0.0237931857
   Point Group: c1    Number of degrees of freedom:    27


   Energy is  -1038.335449564

              Constraints and their Current Values
                                        Value     Constraint
   Distance(Angs):        1   3             2.000000     2.000000
 Hessian Updated using BFGS Update

 26 Hessian modes will be used to form the next step
  Hessian Eigenvalues:
     0.004052    0.041566    0.045927    0.078125    0.081537    0.083846
     0.085072    0.086456    0.117437    0.159993    0.160047    0.160268
     0.161586    0.180119    0.189147    0.225073    0.246081    0.255210
     0.306292    0.326634    0.340849    0.344069    0.345249    0.346616
     0.346837    0.349758

 Minimum Search - Taking Simple RFO Step
 Searching for Lamda that Minimizes Along All modes
 Value Taken    Lamda =   0.00000000
 Step Taken.  Stepsize is  0.010003

                             Maximum     Tolerance    Cnvgd?
         Gradient           0.000132      0.000300     YES
         Displacement       0.006390      0.001200      NO
         Energy change     -0.000002      0.000001      NO


 New Cartesian Coordinates Obtained by Inverse Iteration

 Displacement from previous Coordinates is:  0.011635
 ----------------------------------------------------------------
             Standard Nuclear Orientation (Angstroms)
    I     Atom           X                Y                Z
 ----------------------------------------------------------------
    1      Cl     -1.3154117104     1.4667362900     0.2447574748
    2      Cl      1.9550831975     0.0846410040     0.6112264630
    3      C      -0.5916441862    -0.2401959686    -0.5052705001
    4      C       0.8712305937    -0.0321386020    -0.8297597059
    5      C      -0.9445877143    -1.3576207393     0.4461395621
    6      H      -1.1472763123    -0.2951247966    -1.4432260435
    7      H       1.2196737292    -0.8933278539    -1.4088345723
    8      H       1.0169860861     0.8752583118    -1.4141234401
    9      H      -0.4696784138    -1.2129520871     1.4175795154
   10      H      -2.0253108447    -1.4228410797     0.5812615606
   11      H      -0.5887644248    -2.3070324787     0.0250466860
 ----------------------------------------------------------------
 Nuclear Repulsion Energy =   277.2167524181 hartrees
 There are       29 alpha and       29 beta electrons

                       Distance Matrix (Angstroms)
             Cl(  1)   Cl(  2)   C (  3)   C (  4)   C (  5)   H (  6)
   Cl(  2)  3.569401
   C (  3)  2.000000  2.799626
   C (  4)  2.860528  1.806880  1.512807
   C (  5)  2.855706  3.242756  1.509433  2.584960
   H (  6)  2.445754  3.740272  1.091561  2.125999  2.177081
   H (  7)  3.838089  2.361757  2.126942  1.094709  2.887997  2.441615
   H (  8)  2.922638  2.367941  2.158227  1.089080  3.506294  2.460625
   H (  9)  3.044915  2.865907  2.158352  2.871044  1.090946  3.079895
   H ( 10)  2.994470  4.256400  2.152812  3.509272  1.091089  2.478152
   H ( 11)  3.849366  3.540462  2.133790  2.835035  1.097867  2.552554
             H (  7)   H (  8)   H (  9)   H ( 10)
   H (  8)  1.780171
   H (  9)  3.308276  3.819599
   H ( 10)  3.843279  4.303300  1.778616
   H ( 11)  2.706478  3.844037  1.774920  1.776186
 
 Applying Cartesian multipole field
    Component          Value
    ---------          -----
     (2,0,0)        1.00000E-11
     (0,2,0)        2.00000E-11
     (0,0,2)       -3.00000E-10
 Nucleus-field energy     =    -0.0000000160 hartrees
 Requested basis set is 6-31G(d,p)
 There are 40 shells and 113 basis functions
 A cutoff of  1.0D-14 yielded    788 shell pairs
 There are      6459 function pairs
 Smallest overlap matrix eigenvalue = 5.71E-03
 Guess from superposition of atomic densities
 Warning:  Energy on first SCF cycle will be non-variational
 SAD guess density has 58.000000 electrons

 -----------------------------------------------------------------------
  General SCF calculation program by
  Eric Jon Sundstrom, Paul Horn, Yuezhi Mao, Dmitri Zuev, Alec White,
  David Stuck, Shaama M.S., Shane Yost, Joonho Lee, David Small,
  Daniel Levine, Susi Lehtola, Hugh Burton, Evgeny Epifanovsky
 -----------------------------------------------------------------------
 Exchange:     0.2000 Hartree-Fock + 0.0800 Slater + 0.7200 B88
 Correlation:  0.1900 VWN1RPA + 0.8100 LYP
 Using SG-1 standard quadrature grid
 using 12 threads for integral computing
 -------------------------------------------------------
 OpenMP Integral computing Module                
 Release: version 1.0, May 2013, Q-Chem Inc. Pittsburgh 
 -------------------------------------------------------
 -------------------------------------------------------
 OpenMP BLAS3 based DFT computing Module                
 Release: version 1.0, May 2013, Q-Chem Inc. Pittsburgh 
 -------------------------------------------------------
 A unrestricted SCF calculation will be
 performed using DIIS
 SCF converges when DIIS error is below 1.0e-06
 Alpha HF Exchange    Energy =  -7.29052327590076
 Beta HF Exchange     Energy =  -7.29052327590076
 DFT Correlation      Energy =  -2.76921652057661
 DFT Exchange         Energy = -57.36369083878903
 One-Electron (alpha) Energy = -988.32573643682474
 One-Electron (beta)  Energy = -988.32573643682474
 Total Coulomb        Energy = 735.34996248116204
 ---------------------------------------
  Cycle       Energy         DIIS error
 ---------------------------------------
    1   -1038.7987119015      2.76e-02  
 Alpha HF Exchange    Energy =  -7.29380894690199
 Beta HF Exchange     Energy =  -7.29380894690199
 DFT Correlation      Energy =  -2.79118041214362
 DFT Exchange         Energy = -57.87513165272321
 One-Electron (alpha) Energy = -991.61690027646011
 One-Electron (beta)  Energy = -991.61690027646023
 Total Coulomb        Energy = 742.98540532653453
    2   -1038.2855727829      2.68e-03  
 Alpha HF Exchange    Energy =  -7.24833226789031
 Beta HF Exchange     Energy =  -7.24833226789030
 DFT Correlation      Energy =  -2.77353402621043
 DFT Exchange         Energy = -57.49999695430014
 One-Electron (alpha) Energy = -988.67742953034849
 One-Electron (beta)  Energy = -988.67742953034826
 Total Coulomb        Energy = 736.61909544326227
    3   -1038.2892067316      2.64e-03  
 Alpha HF Exchange    Energy =  -7.26809519000203
 Beta HF Exchange     Energy =  -7.26809519000203
 DFT Correlation      Energy =  -2.78154633923280
 DFT Exchange         Energy = -57.66105431622871
 One-Electron (alpha) Energy = -990.01791020195083
 One-Electron (beta)  Energy = -990.01791020195117
 Total Coulomb        Energy = 739.46280162408516
    4   -1038.3350574132      2.50e-04  
 Alpha HF Exchange    Energy =  -7.26929762076063
 Beta HF Exchange     Energy =  -7.26929762076064
 DFT Correlation      Energy =  -2.78196093641755
 DFT Exchange         Energy = -57.67140302113602
 One-Electron (alpha) Energy = -990.10435103374687
 One-Electron (beta)  Energy = -990.10435103374755
 Total Coulomb        Energy = 739.64851462853915
    5   -1038.3353942359      9.21e-05  
 Alpha HF Exchange    Energy =  -7.26894939998199
 Beta HF Exchange     Energy =  -7.26894939998199
 DFT Correlation      Energy =  -2.78172718133091
 DFT Exchange         Energy = -57.66796986551358
 One-Electron (alpha) Energy = -990.06191432607966
 One-Electron (beta)  Energy = -990.06191432608000
 Total Coulomb        Energy = 739.55923807993861
    6   -1038.3354340169      4.83e-05  
 Alpha HF Exchange    Energy =  -7.26888891284450
 Beta HF Exchange     Energy =  -7.26888891284451
 DFT Correlation      Energy =  -2.78176910261926
 DFT Exchange         Energy = -57.66771323472013
 One-Electron (alpha) Energy = -990.06463480929688
 One-Electron (beta)  Energy = -990.06463480929722
 Total Coulomb        Energy = 739.56432761570375
    7   -1038.3354497638      7.08e-06  
 Alpha HF Exchange    Energy =  -7.26893832561353
 Beta HF Exchange     Energy =  -7.26893832561352
 DFT Correlation      Energy =  -2.78177770384433
 DFT Exchange         Energy = -57.66807600369518
 One-Electron (alpha) Energy = -990.06866436203256
 One-Electron (beta)  Energy = -990.06866436203245
 Total Coulomb        Energy = 739.57285657782359
    8   -1038.3354501029      2.17e-06  
 Alpha HF Exchange    Energy =  -7.26893018528501
 Beta HF Exchange     Energy =  -7.26893018528501
 DFT Correlation      Energy =  -2.78177653660984
 DFT Exchange         Energy = -57.66801554306595
 One-Electron (alpha) Energy = -990.06796126255847
 One-Electron (beta)  Energy = -990.06796126255847
 Total Coulomb        Energy = 739.57137243957732
    9   -1038.3354501337      5.36e-07  Convergence criterion met
 ---------------------------------------
 SCF time:   CPU 23.89s  wall 2.00s 
<S^2> =         -0.000000000
 Alpha HF Exchange    Energy =  -7.26893018528501
 Beta HF Exchange     Energy =  -7.26893018528501
 DFT Correlation      Energy =  -2.78177653660984
 DFT Exchange         Energy = -57.66801554306595
 One-Electron (alpha) Energy = -990.06796126255847
 One-Electron (beta)  Energy = -990.06796126255847
 Total Coulomb        Energy = 739.57137243957732
 Nuclear repulsion Energy = 277.21675240212244
 SCF   energy in the final basis set =    -1038.3354501337
 Total energy in the final basis set =    -1038.3354501337
 
 --------------------------------------------------------------
 
                    Orbital Energies (a.u.)
 --------------------------------------------------------------
 
 Alpha MOs
 -- Occupied --
*******-101.526 -10.283 -10.269 -10.205  -9.460  -9.440  -7.224
 -7.214  -7.214  -7.204  -7.195  -7.195  -0.881  -0.822  -0.760
 -0.708  -0.596  -0.499  -0.488  -0.451  -0.424  -0.400  -0.387
 -0.356  -0.309  -0.306  -0.295  -0.292
 -- Virtual --
 -0.033   0.020   0.071   0.122   0.131   0.137   0.155   0.169
  0.190   0.221   0.371   0.392   0.419   0.429   0.449   0.458
  0.466   0.497   0.518   0.531   0.555   0.579   0.592   0.659
  0.673   0.687   0.742   0.801   0.813   0.847   0.850   0.865
  0.876   0.893   0.897   0.911   0.917   0.937   0.951   0.989
  1.038   1.054   1.084   1.176   1.314   1.380   1.401   1.541
  1.572   1.703   1.789   1.836   1.846   1.871   2.018   2.027
  2.046   2.069   2.082   2.102   2.217   2.266   2.323   2.376
  2.481   2.551   2.593   2.634   2.678   2.724   2.807   2.854
  2.885   3.183   3.230   3.322   3.394   3.427   3.454   4.157
  4.269   4.301   4.436   4.566
 
 Beta MOs
 -- Occupied --
*******-101.526 -10.283 -10.269 -10.205  -9.460  -9.440  -7.224
 -7.214  -7.214  -7.204  -7.195  -7.195  -0.881  -0.822  -0.760
 -0.708  -0.596  -0.499  -0.488  -0.451  -0.424  -0.400  -0.387
 -0.356  -0.309  -0.306  -0.295  -0.292
 -- Virtual --
 -0.033   0.020   0.071   0.122   0.131   0.137   0.155   0.169
  0.190   0.221   0.371   0.392   0.419   0.429   0.449   0.458
  0.466   0.497   0.518   0.531   0.555   0.579   0.592   0.659
  0.673   0.687   0.742   0.801   0.813   0.847   0.850   0.865
  0.876   0.893   0.897   0.911   0.917   0.937   0.951   0.989
  1.038   1.054   1.084   1.176   1.314   1.380   1.401   1.541
  1.572   1.703   1.789   1.836   1.846   1.871   2.018   2.027
  2.046   2.069   2.082   2.102   2.217   2.266   2.323   2.376
  2.481   2.551   2.593   2.634   2.678   2.724   2.807   2.854
  2.885   3.183   3.230   3.322   3.394   3.427   3.454   4.157
  4.269   4.301   4.436   4.566
 --------------------------------------------------------------
 
          Ground-State Mulliken Net Atomic Charges

     Atom                 Charge (a.u.)    Spin (a.u.)
  --------------------------------------------------------
      1 Cl                   -0.164338       0.000000
      2 Cl                   -0.060970       0.000000
      3 C                    -0.134939       0.000000
      4 C                    -0.268506      -0.000000
      5 C                    -0.304912       0.000000
      6 H                     0.167962       0.000000
      7 H                     0.164130      -0.000000
      8 H                     0.181973       0.000000
      9 H                     0.159756      -0.000000
     10 H                     0.139474      -0.000000
     11 H                     0.120369      -0.000000
  --------------------------------------------------------
  Sum of atomic charges =    -0.000000
  Sum of spin   charges =     0.000000

 -----------------------------------------------------------------
                    Cartesian Multipole Moments
 -----------------------------------------------------------------
    Charge (ESU x 10^10)
                -0.0000
    Dipole Moment (Debye)
         X      -0.1971      Y      -2.6274      Z      -2.2631
       Tot       3.4733
    Quadrupole Moments (Debye-Ang)
        XX     -48.3573     XY       2.7807     YY     -45.7314
        XZ      -1.1663     YZ      -0.2825     ZZ     -42.4005
    Octopole Moments (Debye-Ang^2)
       XXX     -13.0530    XXY     -11.6000    XYY      -1.8393
       YYY     -26.7075    XXZ      -6.3647    XYZ       0.0210
       YYZ      -5.5265    XZZ      -1.0230    YZZ      -8.5293
       ZZZ     -16.5192
    Hexadecapole Moments (Debye-Ang^3)
      XXXX    -580.6752   XXXY      43.1218   XXYY    -148.4765
      XYYY      34.6547   YYYY    -311.0456   XXXZ     -10.3286
      XXYZ       0.2105   XYYZ      -9.3119   YYYZ       0.0683
      XXZZ    -112.4294   XYZZ      12.8296   YYZZ     -76.3523
      XZZZ      -9.3611   YZZZ      -4.7239   ZZZZ    -143.2771
 -----------------------------------------------------------------
 Calculating analytic gradient of the SCF energy
 Gradient of SCF Energy
            1           2           3           4           5           6
    1  -0.0116892  -0.0000149   0.0116019   0.0000841   0.0000093   0.0000093
    2   0.0275049   0.0000146  -0.0274827  -0.0000620  -0.0000733   0.0000143
    3   0.0120622  -0.0000063  -0.0120987   0.0000211  -0.0000154   0.0000033
            7           8           9          10          11
    1   0.0000043  -0.0000107   0.0000169   0.0000021  -0.0000132
    2   0.0000282   0.0000130   0.0000127   0.0000274   0.0000028
    3  -0.0000119  -0.0000031  -0.0000029   0.0000296   0.0000220
 Max gradient component =       2.750E-02
 RMS gradient           =       7.930E-03
 Gradient time:  CPU 9.34 s  wall 0.78 s
 Geometry Optimization Parameters
   NAtoms,    NIC,     NZ,  NCons,   NDum,   NFix, NCnnct, MaxDiis
       11      68       0       1       0       0       0       0

 Cartesian Hessian Update
 Hessian Updated using BFGS Update


** CONSTRAINED OPTIMIZATION IN DELOCALIZED INTERNAL COORDINATES **
   Searching for a Minimum

   Optimization Cycle:   9

                       Coordinates (Angstroms)
     ATOM                X               Y               Z
      1  Cl       -1.3154117104    1.4667362900    0.2447574748
      2  Cl        1.9550831975    0.0846410040    0.6112264630
      3  C        -0.5916441862   -0.2401959686   -0.5052705001
      4  C         0.8712305937   -0.0321386020   -0.8297597059
      5  C        -0.9445877143   -1.3576207393    0.4461395621
      6  H        -1.1472763123   -0.2951247966   -1.4432260435
      7  H         1.2196737292   -0.8933278539   -1.4088345723
      8  H         1.0169860861    0.8752583118   -1.4141234401
      9  H        -0.4696784138   -1.2129520871    1.4175795154
     10  H        -2.0253108447   -1.4228410797    0.5812615606
     11  H        -0.5887644248   -2.3070324787    0.0250466860
   Point Group: c1    Number of degrees of freedom:    27


   Energy is  -1038.335450134

              Constraints and their Current Values
                                        Value     Constraint
   Distance(Angs):        1   3             2.000000     2.000000
 Hessian Updated using BFGS Update

 26 Hessian modes will be used to form the next step
  Hessian Eigenvalues:
     0.004386    0.035403    0.047310    0.077275    0.078619    0.082425
     0.084447    0.086154    0.117073    0.159344    0.159994    0.160054
     0.161059    0.177139    0.188095    0.225134    0.237198    0.254283
     0.303134    0.307321    0.340891    0.343919    0.344370    0.346619
     0.346835    0.349239

 Minimum Search - Taking Simple RFO Step
 Searching for Lamda that Minimizes Along All modes
 Value Taken    Lamda =   0.00000000
 Step Taken.  Stepsize is  0.002135

                             Maximum     Tolerance    Cnvgd?
         Gradient           0.000055      0.000300     YES
         Displacement       0.001353      0.001200      NO
         Energy change     -0.000001      0.000001     YES


                       Distance Matrix (Angstroms)
             Cl(  1)   Cl(  2)   C (  3)   C (  4)   C (  5)   H (  6)
   Cl(  2)  3.569401
   C (  3)  2.000000  2.799626
   C (  4)  2.860528  1.806880  1.512807
   C (  5)  2.855706  3.242756  1.509433  2.584960
   H (  6)  2.445754  3.740272  1.091561  2.125999  2.177081
   H (  7)  3.838089  2.361757  2.126942  1.094709  2.887997  2.441615
   H (  8)  2.922638  2.367941  2.158227  1.089080  3.506294  2.460625
   H (  9)  3.044915  2.865907  2.158352  2.871044  1.090946  3.079895
   H ( 10)  2.994470  4.256400  2.152812  3.509272  1.091089  2.478152
   H ( 11)  3.849366  3.540462  2.133790  2.835035  1.097867  2.552554
             H (  7)   H (  8)   H (  9)   H ( 10)
   H (  8)  1.780171
   H (  9)  3.308276  3.819599
   H ( 10)  3.843279  4.303300  1.778616
   H ( 11)  2.706478  3.844037  1.774920  1.776186
 
 Final energy is   -1038.33545013366     


 ******************************
 **  OPTIMIZATION CONVERGED  **
 ******************************

                       Coordinates (Angstroms)
     ATOM                X               Y               Z
      1  Cl       -1.3154117104    1.4667362900    0.2447574748
      2  Cl        1.9550831975    0.0846410040    0.6112264630
      3  C        -0.5916441862   -0.2401959686   -0.5052705001
      4  C         0.8712305937   -0.0321386020   -0.8297597059
      5  C        -0.9445877143   -1.3576207393    0.4461395621
      6  H        -1.1472763123   -0.2951247966   -1.4432260435
      7  H         1.2196737292   -0.8933278539   -1.4088345723
      8  H         1.0169860861    0.8752583118   -1.4141234401
      9  H        -0.4696784138   -1.2129520871    1.4175795154
     10  H        -2.0253108447   -1.4228410797    0.5812615606
     11  H        -0.5887644248   -2.3070324787    0.0250466860

Z-matrix Print:
$molecule
0 1
Cl
C  1 1.806880
H  2 1.089080 1 107.084583
H  2 1.094709 1 106.365996 3 116.679584 0
C  2 1.512807 1 114.700696 3 -123.702071 0
H  5 1.091561 2 108.350806 1 179.972102 0
C  5 1.509433 2 117.588549 1 -50.875069 0
H  7 1.090946 5 111.180385 2 59.815299 0
H  7 1.091089 5 110.726887 2 -178.604867 0
H  7 1.097867 5 108.823152 2 -59.468577 0
Cl 5 2.000000 2 108.240130 1 71.907959 0
$end

PES scan, value:    2.0000 energy: -1038.3354501337
------- Summary of potential scan: ------ 
    2.0000     -1038.3354501337
----------------------------------------- 
Archival summary:
1\1\hpc0332\JobtypUnspecified\ProcedureUnspecified\6-31G**\l236\knomura\TueMar1201:56:252019TueMar1201:56:252019\0\\#,JobtypUnspecified,ProcedureUnspecified,6-31G**,\\0,1\Cl\C,1,1.80688\H,2,1.08908,1,107.085\H,2,1.09471,1,106.366,3,116.68,0\C,2,1.51281,1,114.701,3,-123.702,0\H,5,1.09156,2,108.351,1,179.972,0\C,5,1.50943,2,117.589,1,-50.8751,0\H,7,1.09095,5,111.18,2,59.8153,0\H,7,1.09109,5,110.727,2,-178.605,0\H,7,1.09787,5,108.823,2,-59.4686,0\Cl,5,2,2,108.24,1,71.908,0\\\@

 Total job time:  30.56s(wall), 339.77s(cpu) 
 Tue Mar 12 01:56:25 2019

        *************************************************************
        *                                                           *
        *  Thank you very much for using Q-Chem.  Have a nice day.  *
        *                                                           *
        *************************************************************


