
Running Job 1 of 1 ruruma/CH3CHClCH2Cl_afterGeo_middle_singlet.xyz.data/inputs/bond_singlet_1.5.in
qchem ruruma/CH3CHClCH2Cl_afterGeo_middle_singlet.xyz.data/inputs/bond_singlet_1.5.in_25117.0 /staging/scratch/2858534/qchem25117/ 1
/usr/usc/qchem/5.1.1/exe/qcprog.exe_s ruruma/CH3CHClCH2Cl_afterGeo_middle_singlet.xyz.data/inputs/bond_singlet_1.5.in_25117.0 /staging/scratch/2858534/qchem25117/
Check license passed

                  Welcome to Q-Chem
     A Quantum Leap Into The Future Of Chemistry


 Q-Chem 5.1, Q-Chem, Inc., Pleasanton, CA (2018)

 Yihan Shao,  Zhengting Gan,  E. Epifanovsky,  A. T. B. Gilbert,  M. Wormit,  
 J. Kussmann,  A. W. Lange,  A. Behn,  Jia Deng,  Xintian Feng,  D. Ghosh,  
 M. Goldey,  P. R. Horn,  L. D. Jacobson,  I. Kaliman,  T. Kus,  A. Landau,  
 Jie Liu,  E. I. Proynov,  R. M. Richard,  R. P. Steele,  E. J. Sundstrom,  
 H. L. Woodcock III,  P. M. Zimmerman,  D. Zuev,  B. Albrecht,  E. Alguire,  
 S. A. Baeppler,  D. Barton,  Z. Benda,  Y. A. Bernard,  E. J. Berquist,  
 K. B. Bravaya,  H. Burton,  D. Casanova,  Chun-Min Chang,  Yunqing Chen,  
 A. Chien,  K. D. Closser,  M. P. Coons,  S. Coriani,  S. Dasgupta,  
 A. L. Dempwolff,  M. Diedenhofen,  Hainam Do,  R. G. Edgar,  Po-Tung Fang,  
 S. Faraji,  S. Fatehi,  Qingguo Feng,  K. D. Fenk,  J. Fosso-Tande,  
 Qinghui Ge,  A. Ghysels,  G. Gidofalvi,  J. Gomes,  J. Gonthier,  A. Gunina,  
 D. Hait,  M. W. D. Hanson-Heine,  P. H. P. Harbach,  A. W. Hauser,  
 J. E. Herr,  E. G. Hohenstein,  Z. C. Holden,  Kerwin Hui,  B. C. Huynh,  
 T.-C. Jagau,  Hyunjun Ji,  B. Kaduk,  K. Khistyaev,  Jaehoon Kim,  
 P. Klunzinger,  K. Koh,  D. Kosenkov,  L. Koulias,  T. Kowalczyk,  
 C. M. Krauter,  A. Kunitsa,  Ka Un Lao,  A. Laurent,  K. V. Lawler,  
 Joonho Lee,  D. Lefrancois,  S. Lehtola,  D. S. Levine,  Yi-Pei Li,  
 You-Sheng Lin,  Fenglai Liu,  E. Livshits,  A. Luenser,  P. Manohar,  
 E. Mansoor,  S. F. Manzer,  Shan-Ping Mao,  Yuezhi Mao,  N. Mardirossian,  
 A. V. Marenich,  T. Markovich,  L. A. Martinez-Martinez,  S. A. Maurer,  
 N. J. Mayhall,  S. C. McKenzie,  J.-M. Mewes,  A. F. Morrison,  
 J. W. Mullinax,  K. Nanda,  T. S. Nguyen-Beck,  R. Olivares-Amaya,  
 J. A. Parkhill,  T. M. Perrine,  F. Plasser,  P. Pokhilko,  S. Prager,  
 A. Prociuk,  E. Ramos,  D. R. Rehn,  F. Rob,  M. Schneider,  N. Sergueev,  
 S. M. Sharada,  S. Sharma,  D. W. Small,  T. Stauch,  T. Stein,  
 Yu-Chuan Su,  A. J. W. Thom,  A. Tkatchenko,  T. Tsuchimochi,  N. M. Tubman,  
 L. Vogt,  M. L. Vidal,  O. Vydrov,  M. A. Watson,  J. Wenzel,  
 M. de Wergifosse,  T. A. Wesolowski,  A. White,  J. Witte,  A. Yamada,  
 Jun Yang,  K. Yao,  S. Yeganeh,  S. R. Yost,  Zhi-Qiang You,  A. Zech,  
 Igor Ying Zhang,  Xing Zhang,  Yan Zhao,  Ying Zhu,  B. R. Brooks,  
 G. K. L. Chan,  C. J. Cramer,  M. S. Gordon,  W. J. Hehre,  A. Klamt,  
 M. W. Schmidt,  C. D. Sherrill,  D. G. Truhlar,  A. Aspuru-Guzik,  R. Baer,  
 A. T. Bell,  N. A. Besley,  Jeng-Da Chai,  A. E. DePrince, III,  
 R. A. DiStasio Jr.,  A. Dreuw,  B. D. Dunietz,  T. R. Furlani,  
 Chao-Ping Hsu,  Yousung Jung,  Jing Kong,  D. S. Lambrecht,  WanZhen Liang,  
 C. Ochsenfeld,  V. A. Rassolov,  L. V. Slipchenko,  J. E. Subotnik,  
 T. Van Voorhis,  J. M. Herbert,  A. I. Krylov,  P. M. W. Gill,  M. Head-Gordon

 Contributors to earlier versions of Q-Chem not listed above: 
 R. D. Adamson,  B. Austin,  J. Baker,  G. J. O. Beran,  K. Brandhorst,  
 S. T. Brown,  E. F. C. Byrd,  A. K. Chakraborty,  C.-L. Cheng,  
 Siu Hung Chien,  D. M. Chipman,  D. L. Crittenden,  H. Dachsel,  
 R. J. Doerksen,  A. D. Dutoi,  L. Fusti-Molnar,  W. A. Goddard III,  
 A. Golubeva-Zadorozhnaya,  S. R. Gwaltney,  G. Hawkins,  A. Heyden,  
 S. Hirata,  G. Kedziora,  F. J. Keil,  C. Kelley,  Jihan Kim,  R. A. King,  
 R. Z. Khaliullin,  P. P. Korambath,  W. Kurlancheek,  A. M. Lee,  M. S. Lee,  
 S. V. Levchenko,  Ching Yeh Lin,  D. Liotard,  R. C. Lochan,  I. Lotan,  
 P. E. Maslen,  N. Nair,  D. P. O'Neill,  D. Neuhauser,  E. Neuscamman,  
 C. M. Oana,  R. Olson,  B. Peters,  R. Peverati,  P. A. Pieniazek,  
 Y. M. Rhee,  J. Ritchie,  M. A. Rohrdanz,  E. Rosta,  N. J. Russ,  
 H. F. Schaefer III,  N. E. Schultz,  N. Shenvi,  A. C. Simmonett,  A. Sodt,  
 D. Stuck,  K. S. Thanthiriwatte,  V. Vanovschi,  Tao Wang,  A. Warshel,  
 C. F. Williams,  Q. Wu,  X. Xu,  W. Zhang

 Please cite Q-Chem as follows:
 Y. Shao et al., Mol. Phys. 113, 184-215 (2015)
 DOI: 10.1080/00268976.2014.952696

 Q-Chem 5.1.1 for Intel X86 EM64T Linux

 Parts of Q-Chem use Armadillo 8.300.2 (Tropical Shenanigans).
 http://arma.sourceforge.net/

 Q-Chem begins on Tue Mar 12 01:43:19 2019  

Host: 
0

     Scratch files written to /staging/scratch/2858534/qchem25117//
 Aug318 |scratch|qcdevops|jenkins|workspace|build_RNUM 6013   
Processing $rem in /usr/usc/qchem/5.1.1/config/preferences.
 MEM_TOTAL  2000 
Input Ideriv = 2
Curr. Ideriv = -1
Max.  Ideriv = 2

Checking the input file for inconsistencies... 	...done.

--------------------------------------------------------------
User input:
--------------------------------------------------------------

$comment
potential surface scanner
$end

$rem
JOBTYPE  PES_SCAN
UNRESTRICTED TRUE
SYM_IGNORE  TRUE
GEOM_OPT_MAX_CYCLES 400
SCF_MAX_CYCLES 400
METHOD   B3LYP
BASIS   6-31G**
PDB_PRINT 2
SCF_CONVERGENCE 6
THRESH 14
SCF_PRINT 1
$end
$molecule
0 1
Cl -1.271337 1.376813 0.223864
Cl 1.954052 0.118637 0.611689
C -0.615377 -0.179542 -0.477229
C 0.860334 -0.027482 -0.823928
C -0.945393 -1.347408 0.440549
H -1.141317 -0.286818 -1.431387
H 1.187714 -0.914977 -1.371435
H 1.028018 0.858113 -1.436294
H -0.469897 -1.223340 1.415209
H -2.024892 -1.429544 0.581904
H -0.581605 -2.279052 -0.008144
$end
$scan
stre 1 3 1.500000 1.501000 0.100000
$end
--------------------------------------------------------------
 ----------------------------------------------------------------
             Standard Nuclear Orientation (Angstroms)
    I     Atom           X                Y                Z
 ----------------------------------------------------------------
    1      Cl     -1.2713370000     1.3768130000     0.2238640000
    2      Cl      1.9540520000     0.1186370000     0.6116890000
    3      C      -0.6153770000    -0.1795420000    -0.4772290000
    4      C       0.8603340000    -0.0274820000    -0.8239280000
    5      C      -0.9453930000    -1.3474080000     0.4405490000
    6      H      -1.1413170000    -0.2868180000    -1.4313870000
    7      H       1.1877140000    -0.9149770000    -1.3714350000
    8      H       1.0280180000     0.8581130000    -1.4362940000
    9      H      -0.4698970000    -1.2233400000     1.4152090000
   10      H      -2.0248920000    -1.4295440000     0.5819040000
   11      H      -0.5816050000    -2.2790520000    -0.0081440000
 ----------------------------------------------------------------
 Nuclear Repulsion Energy =   282.3913884263 hartrees
 There are       29 alpha and       29 beta electrons
 Requested basis set is 6-31G(d,p)
 There are 40 shells and 113 basis functions

 Total QAlloc Memory Limit   2000 MB
 Mega-Array Size       188 MB
 MEM_STATIC part       192 MB
A total of 1 constraints
  
            1
    1   1.0100000
    2   1.0100000
    3   3.0100000
    4   1.5000000
    5   1.5010000
    6   0.1000000
    7   0.0000000
    8   0.0000000
    9   0.0000000
   10   0.0000000

                       Distance Matrix (Angstroms)
             Cl(  1)   Cl(  2)   C (  3)   C (  4)   C (  5)   H (  6)
   Cl(  2)  3.483755
   C (  3)  1.828676  2.806531
   C (  4)  2.759336  1.810681  1.523498
   C (  5)  2.752194  3.253515  1.521558  2.569388
   H (  6)  2.350410  3.730933  1.094778  2.107811  2.160412
   H (  7)  3.720781  2.363982  2.142803  1.092973  2.832036  2.412999
   H (  8)  2.883090  2.366136  2.167321  1.089674  3.504456  2.452938
   H (  9)  2.970253  2.884801  2.166103  2.865890  1.091536  3.070991
   H ( 10)  2.927743  4.269631  2.161250  3.502381  1.091808  2.477876
   H ( 11)  3.727587  3.544385  2.151540  2.795400  1.096188  2.511552
             H (  7)   H (  8)   H (  9)   H ( 10)
   H (  8)  1.781448
   H (  9)  3.257015  3.835005
   H ( 10)  3.794885  4.315873  1.776211
   H ( 11)  2.617203  3.804248  1.775652  1.775640
 
 A cutoff of  1.0D-14 yielded    790 shell pairs
 There are      6463 function pairs
 
 -------------------------------------------------------
 OpenMP Integral Computing Module                       
 Release: version 1.0, May 2013, Q-Chem Inc. Pittsburgh 
 -------------------------------------------------------
 Integral Job Info:
 Integral job number is                      11
 Integral operator is                         1
 short-range coefficients                     0
 long-range coefficients              100000000
 Omega coefficients                           0
 if combine SR and LR in K                    0
 Integral screening is                        0
 Integral computing path is                   2
 max size of driver memory is            800000
 size of driver memory is                593474
 size of scratch memory is             15267112
 max col of scratch BK array               1296
 max len of scratch array in speh3          155
 max len of scratch index in speh4           18
 max int batch size is                      520
 min int batch size is                       52
 fixed nKL is                                52
 max L of basis functions is                  2
 order of int derivative is                   0
 number of shells is                         40
 number of basis is                         113
 number of cartesian basis is               113
 number of contracted shell pairs           790
 number of primitive shell pairs           3285
 maxK2 (contraction) of shell pair           36
 max number of K2 of shell pair               1
 max number of CS2 of shell pair             60
 max number of PS2 of shell pair            336
 mem total for path MDJ                  520332
 -------------------------------------------------------
 Smallest overlap matrix eigenvalue = 5.58E-03

 Scale SEOQF with 1.000000e-01/1.000000e-01/1.000000e+00

 Standard Electronic Orientation quadrupole field applied
 Nucleus-field energy     =    -0.0000000158 hartrees
 Guess from superposition of atomic densities
 Warning:  Energy on first SCF cycle will be non-variational
 SAD guess density has 58.000000 electrons

 -----------------------------------------------------------------------
  General SCF calculation program by
  Eric Jon Sundstrom, Paul Horn, Yuezhi Mao, Dmitri Zuev, Alec White,
  David Stuck, Shaama M.S., Shane Yost, Joonho Lee, David Small,
  Daniel Levine, Susi Lehtola, Hugh Burton, Evgeny Epifanovsky
 -----------------------------------------------------------------------
 Exchange:     0.2000 Hartree-Fock + 0.0800 Slater + 0.7200 B88
 Correlation:  0.1900 VWN1RPA + 0.8100 LYP
 Using SG-1 standard quadrature grid
 using 12 threads for integral computing
 -------------------------------------------------------
 OpenMP Integral computing Module                
 Release: version 1.0, May 2013, Q-Chem Inc. Pittsburgh 
 -------------------------------------------------------
 -------------------------------------------------------
 OpenMP BLAS3 based DFT computing Module                
 Release: version 1.0, May 2013, Q-Chem Inc. Pittsburgh 
 -------------------------------------------------------
 A unrestricted SCF calculation will be
 performed using DIIS
 SCF converges when DIIS error is below 1.0e-06
 Alpha HF Exchange    Energy =  -7.30129902704037
 Beta HF Exchange     Energy =  -7.30129902704037
 DFT Correlation      Energy =  -2.77270974655088
 DFT Exchange         Energy = -57.38471945758086
 One-Electron (alpha) Energy = -993.48098318073494
 One-Electron (beta)  Energy = -993.48098318073494
 Total Coulomb        Energy = 740.42944441561099
 ---------------------------------------
  Cycle       Energy         DIIS error
 ---------------------------------------
    1   -1038.9011607936      2.85e-02  
 Alpha HF Exchange    Energy =  -7.29748282855918
 Beta HF Exchange     Energy =  -7.29748282855918
 DFT Correlation      Energy =  -2.79467677365200
 DFT Exchange         Energy = -57.89853378426719
 One-Electron (alpha) Energy = -996.72973630784713
 One-Electron (beta)  Energy = -996.72973630784713
 Total Coulomb        Energy = 748.06405196353774
    2   -1038.2922084567      2.68e-03  
 Alpha HF Exchange    Energy =  -7.25384690324245
 Beta HF Exchange     Energy =  -7.25384690324245
 DFT Correlation      Energy =  -2.77659031678375
 DFT Exchange         Energy = -57.53315020757696
 One-Electron (alpha) Energy = -993.83373748141014
 One-Electron (beta)  Energy = -993.83373748141037
 Total Coulomb        Energy = 741.79931972522547
    3   -1038.2942011580      2.67e-03  
 Alpha HF Exchange    Energy =  -7.27232483018712
 Beta HF Exchange     Energy =  -7.27232483018712
 DFT Correlation      Energy =  -2.78518099125493
 DFT Exchange         Energy = -57.68821642653637
 One-Electron (alpha) Energy = -995.17523655060882
 One-Electron (beta)  Energy = -995.17523655060870
 Total Coulomb        Energy = 744.63612071340788
    4   -1038.3410110555      2.94e-04  
 Alpha HF Exchange    Energy =  -7.27377553681026
 Beta HF Exchange     Energy =  -7.27377553681026
 DFT Correlation      Energy =  -2.78518713236962
 DFT Exchange         Energy = -57.69852901922975
 One-Electron (alpha) Energy = -995.22705127886854
 One-Electron (beta)  Energy = -995.22705127886900
 Total Coulomb        Energy = 744.75248384952613
    5   -1038.3414975230      1.22e-04  
 Alpha HF Exchange    Energy =  -7.27340328578547
 Beta HF Exchange     Energy =  -7.27340328578547
 DFT Correlation      Energy =  -2.78523026600751
 DFT Exchange         Energy = -57.69613815957979
 One-Electron (alpha) Energy = -995.21556249664616
 One-Electron (beta)  Energy = -995.21556249664650
 Total Coulomb        Energy = 744.72632521458172
    6   -1038.3415863654      4.76e-05  
 Alpha HF Exchange    Energy =  -7.27331308674869
 Beta HF Exchange     Energy =  -7.27331308674869
 DFT Correlation      Energy =  -2.78516221689388
 DFT Exchange         Energy = -57.69520892239399
 One-Electron (alpha) Energy = -995.20429516820866
 One-Electron (beta)  Energy = -995.20429516820877
 Total Coulomb        Energy = 744.70259846908357
    7   -1038.3416007696      5.65e-06  
 Alpha HF Exchange    Energy =  -7.27336027340681
 Beta HF Exchange     Energy =  -7.27336027340681
 DFT Correlation      Energy =  -2.78517973623670
 DFT Exchange         Energy = -57.69559382113657
 One-Electron (alpha) Energy = -995.20918035677437
 One-Electron (beta)  Energy = -995.20918035677437
 Total Coulomb        Energy = 744.71286544093130
    8   -1038.3416009663      1.49e-06  
 Alpha HF Exchange    Energy =  -7.27335053706767
 Beta HF Exchange     Energy =  -7.27335053706767
 DFT Correlation      Energy =  -2.78517649927360
 DFT Exchange         Energy = -57.69551433730119
 One-Electron (alpha) Energy = -995.20817167372070
 One-Electron (beta)  Energy = -995.20817167372115
 Total Coulomb        Energy = 744.71074586646853
    9   -1038.3416009812      3.04e-07  Convergence criterion met
 ---------------------------------------
 SCF time:   CPU 24.41s  wall 2.00s 
<S^2> =         -0.000000000
 Alpha HF Exchange    Energy =  -7.27335053706767
 Beta HF Exchange     Energy =  -7.27335053706767
 DFT Correlation      Energy =  -2.78517649927360
 DFT Exchange         Energy = -57.69551433730119
 One-Electron (alpha) Energy = -995.20817167372070
 One-Electron (beta)  Energy = -995.20817167372115
 Total Coulomb        Energy = 744.71074586646853
 Nuclear repulsion Energy = 282.39138841047981
 SCF   energy in the final basis set =    -1038.3416009812
 Total energy in the final basis set =    -1038.3416009812
 
 --------------------------------------------------------------
 
                    Orbital Energies (a.u.)
 --------------------------------------------------------------
 
 Alpha MOs
 -- Occupied --
*******-101.535 -10.272 -10.264 -10.199  -9.456  -9.452  -7.221
 -7.216  -7.211  -7.210  -7.206  -7.206  -0.887  -0.836  -0.758
 -0.701  -0.592  -0.496  -0.486  -0.452  -0.418  -0.395  -0.386
 -0.373  -0.309  -0.304  -0.299  -0.296
 -- Virtual --
  0.007   0.030   0.073   0.125   0.134   0.141   0.159   0.171
  0.190   0.214   0.364   0.393   0.420   0.431   0.446   0.457
  0.463   0.498   0.521   0.533   0.547   0.569   0.600   0.660
  0.675   0.683   0.746   0.806   0.822   0.839   0.856   0.868
  0.874   0.893   0.899   0.910   0.920   0.952   0.973   0.994
  1.048   1.078   1.100   1.183   1.330   1.395   1.420   1.554
  1.577   1.729   1.801   1.819   1.862   1.884   2.029   2.048
  2.053   2.074   2.087   2.108   2.227   2.278   2.336   2.371
  2.490   2.567   2.596   2.637   2.663   2.728   2.808   2.859
  2.886   3.186   3.234   3.320   3.400   3.430   3.465   4.151
  4.269   4.330   4.443   4.565
 
 Beta MOs
 -- Occupied --
*******-101.535 -10.272 -10.264 -10.199  -9.456  -9.452  -7.221
 -7.216  -7.211  -7.210  -7.206  -7.206  -0.887  -0.836  -0.758
 -0.701  -0.592  -0.496  -0.486  -0.452  -0.418  -0.395  -0.386
 -0.373  -0.309  -0.304  -0.299  -0.296
 -- Virtual --
  0.007   0.030   0.073   0.125   0.134   0.141   0.159   0.171
  0.190   0.214   0.364   0.393   0.420   0.431   0.446   0.457
  0.463   0.498   0.521   0.533   0.547   0.569   0.600   0.660
  0.675   0.683   0.746   0.806   0.822   0.839   0.856   0.868
  0.874   0.893   0.899   0.910   0.920   0.952   0.973   0.994
  1.048   1.078   1.100   1.183   1.330   1.395   1.420   1.554
  1.577   1.729   1.801   1.819   1.862   1.884   2.029   2.048
  2.053   2.074   2.087   2.108   2.227   2.278   2.336   2.371
  2.490   2.567   2.596   2.637   2.663   2.728   2.808   2.859
  2.886   3.186   3.234   3.320   3.400   3.430   3.465   4.151
  4.269   4.330   4.443   4.565
 --------------------------------------------------------------
 
          Ground-State Mulliken Net Atomic Charges

     Atom                 Charge (a.u.)    Spin (a.u.)
  --------------------------------------------------------
      1 Cl                   -0.078184       0.000000
      2 Cl                   -0.070809       0.000000
      3 C                    -0.174412       0.000000
      4 C                    -0.266803      -0.000000
      5 C                    -0.303750      -0.000000
      6 H                     0.160006      -0.000000
      7 H                     0.160448       0.000000
      8 H                     0.173712       0.000000
      9 H                     0.153032       0.000000
     10 H                     0.131614      -0.000000
     11 H                     0.115146       0.000000
  --------------------------------------------------------
  Sum of atomic charges =    -0.000000
  Sum of spin   charges =    -0.000000

 -----------------------------------------------------------------
                    Cartesian Multipole Moments
 -----------------------------------------------------------------
    Charge (ESU x 10^10)
                -0.0000
    Dipole Moment (Debye)
         X      -0.5442      Y      -2.0706      Z      -2.1131
       Tot       3.0081
    Quadrupole Moments (Debye-Ang)
        XX     -48.1439     XY       1.9339     YY     -45.2388
        XZ      -1.2733     YZ      -0.1517     ZZ     -42.5934
    Octopole Moments (Debye-Ang^2)
       XXX     -15.8519    XXY      -9.9904    XYY      -3.1457
       YYY     -23.3576    XXZ      -6.0945    XYZ      -0.1409
       YYZ      -5.2742    XZZ      -1.7494    YZZ      -7.6126
       ZZZ     -15.8070
    Hexadecapole Moments (Debye-Ang^3)
      XXXX    -570.7431   XXXY      31.4149   XXYY    -142.2750
      XYYY      23.1019   YYYY    -288.3984   XXXZ     -12.4566
      XXYZ       0.9299   XYYZ      -9.8061   YYYZ       2.0335
      XXZZ    -110.9791   XYZZ       9.4561   YYZZ     -72.2259
      XZZZ     -11.4310   YZZZ      -3.0120   ZZZZ    -142.0758
 -----------------------------------------------------------------
 Calculating analytic gradient of the SCF energy
 Gradient of SCF Energy
            1           2           3           4           5           6
    1   0.0000065   0.0000242  -0.0000508  -0.0000025  -0.0000068   0.0000138
    2  -0.0000082  -0.0000024   0.0000307  -0.0000084  -0.0000423   0.0000026
    3  -0.0000040   0.0000487  -0.0000141  -0.0000963   0.0000216  -0.0000177
            7           8           9          10          11
    1  -0.0000082  -0.0000199   0.0000196   0.0000219   0.0000021
    2   0.0000014   0.0000062   0.0000127   0.0000117  -0.0000039
    3   0.0000316   0.0000243   0.0000059  -0.0000120   0.0000119
 Max gradient component =       9.625E-05
 RMS gradient           =       2.615E-05
 Gradient time:  CPU 9.51 s  wall 0.80 s
 Geometry Optimization Parameters
   NAtoms,    NIC,     NZ,  NCons,   NDum,   NFix, NCnnct, MaxDiis
       11      68       0       1       0       0       0       0


** CONSTRAINED OPTIMIZATION IN DELOCALIZED INTERNAL COORDINATES **
   Searching for a Minimum

   Optimization Cycle:   1

                       Coordinates (Angstroms)
     ATOM                X               Y               Z
      1  Cl       -1.2713370000    1.3768130000    0.2238640000
      2  Cl        1.9540520000    0.1186370000    0.6116890000
      3  C        -0.6153770000   -0.1795420000   -0.4772290000
      4  C         0.8603340000   -0.0274820000   -0.8239280000
      5  C        -0.9453930000   -1.3474080000    0.4405490000
      6  H        -1.1413170000   -0.2868180000   -1.4313870000
      7  H         1.1877140000   -0.9149770000   -1.3714350000
      8  H         1.0280180000    0.8581130000   -1.4362940000
      9  H        -0.4698970000   -1.2233400000    1.4152090000
     10  H        -2.0248920000   -1.4295440000    0.5819040000
     11  H        -0.5816050000   -2.2790520000   -0.0081440000
   Point Group: c1    Number of degrees of freedom:    27


   Energy is  -1038.341600981

              Constraints and their Current Values
                                        Value     Constraint
   Distance(Angs):        1   3             1.828676     1.500000

 Attempting to Generate Delocalized Internal Coordinates
**WARNING** Constraint Gradient Reduced for constraint   1

   Using Lagrange Multiplier Algorithm


 28 Hessian modes will be used to form the next step
  Hessian Eigenvalues:
    -0.887254    0.045000    0.045000    0.072805    0.078457    0.080867
     0.083277    0.084473    0.086057    0.114626    0.160000    0.160000
     0.160000    0.160000    0.160000    0.187889    0.223737    0.233948
     0.252930    0.300322    0.302170    0.341072    0.342663    0.344714
     0.346045    0.346357    0.348504    1.127073

 Minimum Search - Taking P-RFO Step
 Searching for Lamda that Maximizes Along the Constraint modes Only
 Value Taken    Lamda =   0.05353028


 ********************************************
 ** ERROR IN DETERMINING Lamda IN CONFormD **
 ********************************************


 ** Scaling Hessian by  2.379123 **


 28 Hessian modes will be used to form the next step
  Hessian Eigenvalues:
    -0.754617    0.107061    0.107061    0.173212    0.186660    0.192394
     0.198126    0.200972    0.204740    0.272708    0.380660    0.380660
     0.380660    0.380660    0.380660    0.447011    0.532297    0.556590
     0.601751    0.714502    0.718900    0.811453    0.815237    0.820116
     0.823283    0.824026    0.829134    1.325176

 Minimum Search - Taking P-RFO Step
 Searching for Lamda that Maximizes Along the Constraint modes Only
 Value Taken    Lamda =   0.06958029
 Searching for Lamda that Minimizes Along All other modes
 Value Taken    Lamda =  -0.02419802
 Step Taken.  Stepsize is  0.281911

                             Maximum     Tolerance    Cnvgd?
         Gradient            0.300000       0.000300      NO
         Displacement        0.281910       0.001200      NO
         Energy change     *********       0.000001      NO


 New Cartesian Coordinates Obtained by Inverse Iteration

 Displacement from previous Coordinates is:  0.266456
 ----------------------------------------------------------------
             Standard Nuclear Orientation (Angstroms)
    I     Atom           X                Y                Z
 ----------------------------------------------------------------
    1      Cl     -1.2179375079     1.2623736364     0.1802035266
    2      Cl      1.9525960127     0.1228865481     0.6137044045
    3      C      -0.6201401046    -0.1661742940    -0.4698686467
    4      C       0.8550593838    -0.0161571537    -0.8196423193
    5      C      -0.9506025979    -1.3363609851     0.4447601475
    6      H      -1.1486270283    -0.2691486170    -1.4230873723
    7      H       1.1791980652    -0.9025225361    -1.3709180728
    8      H       1.0232153625     0.8710733325    -1.4295201686
    9      H      -0.4725678140    -1.2166771203     1.4187164463
   10      H      -2.0299549816    -1.4166189651     0.5884062777
   11      H      -0.5899387899    -2.2672738459    -0.0079562228
 ----------------------------------------------------------------
 Nuclear Repulsion Energy =   288.7537074284 hartrees
 There are       29 alpha and       29 beta electrons

                       Distance Matrix (Angstroms)
             Cl(  1)   Cl(  2)   C (  3)   C (  4)   C (  5)   H (  6)
   Cl(  2)  3.396857
   C (  3)  1.679495  2.806538
   C (  4)  2.632802  1.810636  1.523503
   C (  5)  2.625810  3.253691  1.521541  2.569449
   H (  6)  2.218312  3.730924  1.094773  2.107821  2.160326
   H (  7)  3.583157  2.363966  2.142829  1.092984  2.832129  2.413018
   H (  8)  2.786950  2.366072  2.167356  1.089681  3.504519  2.452967
   H (  9)  2.869701  2.885116  2.166123  2.866024  1.091528  3.070947
   H ( 10)  2.828958  4.269828  2.161281  3.502457  1.091823  2.477808
   H ( 11)  3.590014  3.544547  2.151487  2.795421  1.096189  2.511421
             H (  7)   H (  8)   H (  9)   H ( 10)
   H (  8)  1.781406
   H (  9)  3.257159  3.835169
   H ( 10)  3.794985  4.315949  1.776189
   H ( 11)  2.617261  3.804252  1.775648  1.775643
 
 Applying Cartesian multipole field
    Component          Value
    ---------          -----
     (2,0,0)        1.00000E-11
     (0,2,0)        2.00000E-11
     (0,0,2)       -3.00000E-10
 Nucleus-field energy     =    -0.0000000159 hartrees
 Requested basis set is 6-31G(d,p)
 There are 40 shells and 113 basis functions
 A cutoff of  1.0D-14 yielded    791 shell pairs
 There are      6464 function pairs
 Smallest overlap matrix eigenvalue = 5.40E-03
 Guess from superposition of atomic densities
 Warning:  Energy on first SCF cycle will be non-variational
 SAD guess density has 58.000000 electrons

 -----------------------------------------------------------------------
  General SCF calculation program by
  Eric Jon Sundstrom, Paul Horn, Yuezhi Mao, Dmitri Zuev, Alec White,
  David Stuck, Shaama M.S., Shane Yost, Joonho Lee, David Small,
  Daniel Levine, Susi Lehtola, Hugh Burton, Evgeny Epifanovsky
 -----------------------------------------------------------------------
 Exchange:     0.2000 Hartree-Fock + 0.0800 Slater + 0.7200 B88
 Correlation:  0.1900 VWN1RPA + 0.8100 LYP
 Using SG-1 standard quadrature grid
 using 12 threads for integral computing
 -------------------------------------------------------
 OpenMP Integral computing Module                
 Release: version 1.0, May 2013, Q-Chem Inc. Pittsburgh 
 -------------------------------------------------------
 -------------------------------------------------------
 OpenMP BLAS3 based DFT computing Module                
 Release: version 1.0, May 2013, Q-Chem Inc. Pittsburgh 
 -------------------------------------------------------
 A unrestricted SCF calculation will be
 performed using DIIS
 SCF converges when DIIS error is below 1.0e-06
 Alpha HF Exchange    Energy =  -7.31829131244662
 Beta HF Exchange     Energy =  -7.31829131244662
 DFT Correlation      Energy =  -2.77721723571421
 DFT Exchange         Energy = -57.41829148659994
 One-Electron (alpha) Energy = -999.78883826885476
 One-Electron (beta)  Energy = -999.78883826885476
 Total Coulomb        Energy = 746.58567866312569
 ---------------------------------------
  Cycle       Energy         DIIS error
 ---------------------------------------
    1   -1039.0703818093      3.01e-02  
 Alpha HF Exchange    Energy =  -7.30421936428453
 Beta HF Exchange     Energy =  -7.30421936428452
 DFT Correlation      Energy =  -2.79959352576433
 DFT Exchange         Energy = -57.94604612873501
 One-Electron (alpha) Energy = -1003.10016925786488
 One-Electron (beta)  Energy = -1003.10016925786454
 Total Coulomb        Energy = 754.51953403804191
    2   -1038.2811754483      2.72e-03  
 Alpha HF Exchange    Energy =  -7.25984435198652
 Beta HF Exchange     Energy =  -7.25984435198653
 DFT Correlation      Energy =  -2.78055912474705
 DFT Exchange         Energy = -57.57223133502691
 One-Electron (alpha) Energy = -1000.02689144620103
 One-Electron (beta)  Energy = -1000.02689144620149
 Total Coulomb        Energy = 747.89290227174183
    3   -1038.2796523720      2.80e-03  
 Alpha HF Exchange    Energy =  -7.27873724996470
 Beta HF Exchange     Energy =  -7.27873724996470
 DFT Correlation      Energy =  -2.78983231969360
 DFT Exchange         Energy = -57.73236877608396
 One-Electron (alpha) Energy = -1001.49976226259366
 One-Electron (beta)  Energy = -1001.49976226259366
 Total Coulomb        Energy = 750.99420278328375
    4   -1038.3312899252      3.53e-04  
 Alpha HF Exchange    Energy =  -7.28012005212316
 Beta HF Exchange     Energy =  -7.28012005212315
 DFT Correlation      Energy =  -2.78974134696530
 DFT Exchange         Energy = -57.74192450469212
 One-Electron (alpha) Energy = -1001.52315697229290
 One-Electron (beta)  Energy = -1001.52315697229255
 Total Coulomb        Energy = 751.05250415859609
    5   -1038.3320083294      1.31e-04  
 Alpha HF Exchange    Energy =  -7.27988343352035
 Beta HF Exchange     Energy =  -7.27988343352035
 DFT Correlation      Energy =  -2.78980197881540
 DFT Exchange         Energy = -57.74052494167780
 One-Electron (alpha) Energy = -1001.52405330547390
 One-Electron (beta)  Energy = -1001.52405330547322
 Total Coulomb        Energy = 751.05238399547841
    6   -1038.3321089906      4.33e-05  
 Alpha HF Exchange    Energy =  -7.27976628769803
 Beta HF Exchange     Energy =  -7.27976628769802
 DFT Correlation      Energy =  -2.78974028756439
 DFT Exchange         Energy = -57.73944185311538
 One-Electron (alpha) Energy = -1001.51163248062312
 One-Electron (beta)  Energy = -1001.51163248062244
 Total Coulomb        Energy = 751.02615178108124
    7   -1038.3321204838      6.10e-06  
 Alpha HF Exchange    Energy =  -7.27980385823460
 Beta HF Exchange     Energy =  -7.27980385823459
 DFT Correlation      Energy =  -2.78975417435517
 DFT Exchange         Energy = -57.73974792901416
 One-Electron (alpha) Energy = -1001.51545285762916
 One-Electron (beta)  Energy = -1001.51545285762916
 Total Coulomb        Energy = 751.03418742262352
    8   -1038.3321207000      2.01e-06  
 Alpha HF Exchange    Energy =  -7.27980114433717
 Beta HF Exchange     Energy =  -7.27980114433717
 DFT Correlation      Energy =  -2.78975298654063
 DFT Exchange         Energy = -57.73972372932169
 One-Electron (alpha) Energy = -1001.51514198799350
 One-Electron (beta)  Energy = -1001.51514198799362
 Total Coulomb        Energy = 751.03353484406648
    9   -1038.3321207240      4.78e-07  Convergence criterion met
 ---------------------------------------
 SCF time:   CPU 23.98s  wall 2.00s 
<S^2> =         -0.000000000
 Alpha HF Exchange    Energy =  -7.27980114433717
 Beta HF Exchange     Energy =  -7.27980114433717
 DFT Correlation      Energy =  -2.78975298654063
 DFT Exchange         Energy = -57.73972372932169
 One-Electron (alpha) Energy = -1001.51514198799350
 One-Electron (beta)  Energy = -1001.51514198799362
 Total Coulomb        Energy = 751.03353484406648
 Nuclear repulsion Energy = 288.75370741244444
 SCF   energy in the final basis set =    -1038.3321207240
 Total energy in the final basis set =    -1038.3321207240
 
 --------------------------------------------------------------
 
                    Orbital Energies (a.u.)
 --------------------------------------------------------------
 
 Alpha MOs
 -- Occupied --
*******-101.537 -10.260 -10.259 -10.195  -9.456  -9.455  -7.220
 -7.219  -7.210  -7.210  -7.209  -7.209  -0.912  -0.845  -0.752
 -0.699  -0.590  -0.501  -0.486  -0.459  -0.417  -0.400  -0.388
 -0.379  -0.310  -0.302  -0.295  -0.294
 -- Virtual --
  0.020   0.061   0.080   0.127   0.134   0.144   0.160   0.173
  0.194   0.209   0.361   0.393   0.420   0.436   0.443   0.459
  0.469   0.499   0.518   0.535   0.550   0.564   0.612   0.658
  0.670   0.692   0.751   0.806   0.823   0.836   0.858   0.868
  0.871   0.891   0.900   0.909   0.927   0.955   0.986   1.008
  1.054   1.108   1.126   1.212   1.350   1.405   1.448   1.556
  1.581   1.756   1.816   1.827   1.866   1.905   2.033   2.056
  2.078   2.089   2.091   2.140   2.231   2.284   2.343   2.378
  2.498   2.579   2.603   2.643   2.669   2.737   2.812   2.863
  2.895   3.191   3.238   3.327   3.404   3.436   3.470   4.165
  4.279   4.347   4.450   4.581
 
 Beta MOs
 -- Occupied --
*******-101.537 -10.260 -10.259 -10.195  -9.456  -9.455  -7.220
 -7.219  -7.210  -7.210  -7.209  -7.209  -0.912  -0.845  -0.752
 -0.699  -0.590  -0.501  -0.486  -0.459  -0.417  -0.400  -0.388
 -0.379  -0.310  -0.302  -0.295  -0.294
 -- Virtual --
  0.020   0.061   0.080   0.127   0.134   0.144   0.160   0.173
  0.194   0.209   0.361   0.393   0.420   0.436   0.443   0.459
  0.469   0.499   0.518   0.535   0.550   0.564   0.612   0.658
  0.670   0.692   0.751   0.806   0.823   0.836   0.858   0.868
  0.871   0.891   0.900   0.909   0.927   0.955   0.986   1.008
  1.054   1.108   1.126   1.212   1.350   1.405   1.448   1.556
  1.581   1.756   1.816   1.827   1.866   1.905   2.033   2.056
  2.078   2.089   2.091   2.140   2.231   2.284   2.343   2.378
  2.498   2.579   2.603   2.643   2.669   2.737   2.812   2.863
  2.895   3.191   3.238   3.327   3.404   3.436   3.470   4.165
  4.279   4.347   4.450   4.581
 --------------------------------------------------------------
 
          Ground-State Mulliken Net Atomic Charges

     Atom                 Charge (a.u.)    Spin (a.u.)
  --------------------------------------------------------
      1 Cl                   -0.021732      -0.000000
      2 Cl                   -0.075031       0.000000
      3 C                    -0.198204      -0.000000
      4 C                    -0.268881      -0.000000
      5 C                    -0.304647       0.000000
      6 H                     0.155665      -0.000000
      7 H                     0.156557       0.000000
      8 H                     0.169244       0.000000
      9 H                     0.149087      -0.000000
     10 H                     0.127386       0.000000
     11 H                     0.110555      -0.000000
  --------------------------------------------------------
  Sum of atomic charges =    -0.000000
  Sum of spin   charges =    -0.000000

 -----------------------------------------------------------------
                    Cartesian Multipole Moments
 -----------------------------------------------------------------
    Charge (ESU x 10^10)
                -0.0000
    Dipole Moment (Debye)
         X      -0.7600      Y      -1.6814      Z      -1.9999
       Tot       2.7211
    Quadrupole Moments (Debye-Ang)
        XX     -47.8554     XY       1.5065     YY     -45.0258
        XZ      -1.2798     YZ      -0.1964     ZZ     -42.6472
    Octopole Moments (Debye-Ang^2)
       XXX     -18.7295    XXY      -8.0999    XYY      -4.1026
       YYY     -18.4504    XXZ      -5.6296    XYZ      -0.1540
       YYZ      -4.8615    XZZ      -2.6161    YZZ      -6.0839
       ZZZ     -14.2735
    Hexadecapole Moments (Debye-Ang^3)
      XXXX    -558.8694   XXXY      21.4856   XXYY    -136.2222
      XYYY      13.7670   YYYY    -264.5288   XXXZ     -14.8832
      XXYZ       1.7806   XYYZ     -10.3517   YYYZ       5.0541
      XXZZ    -109.0946   XYZZ       6.2985   YYZZ     -67.9639
      XZZZ     -14.0272   YZZZ       0.1760   ZZZZ    -141.1471
 -----------------------------------------------------------------
 Calculating analytic gradient of the SCF energy
 Gradient of SCF Energy
            1           2           3           4           5           6
    1   0.0268872   0.0000472  -0.0159420  -0.0041990  -0.0029683  -0.0033234
    2  -0.0640667  -0.0003521   0.0407585   0.0082207   0.0089518   0.0072862
    3  -0.0299199  -0.0003725   0.0202268   0.0048237   0.0032592   0.0032692
            7           8           9          10          11
    1  -0.0014150   0.0002657  -0.0000296   0.0001290   0.0005485
    2  -0.0005520  -0.0002229  -0.0005601  -0.0003528   0.0008894
    3  -0.0000261  -0.0001259   0.0000043   0.0001276  -0.0012663
 Max gradient component =       6.407E-02
 RMS gradient           =       1.589E-02
 Gradient time:  CPU 9.71 s  wall 0.81 s
 Geometry Optimization Parameters
   NAtoms,    NIC,     NZ,  NCons,   NDum,   NFix, NCnnct, MaxDiis
       11      68       0       1       0       0       0       0

 Cartesian Hessian Update
 Hessian Updated using BFGS Update


** CONSTRAINED OPTIMIZATION IN DELOCALIZED INTERNAL COORDINATES **
   Searching for a Minimum

   Optimization Cycle:   2

                       Coordinates (Angstroms)
     ATOM                X               Y               Z
      1  Cl       -1.2179375079    1.2623736364    0.1802035266
      2  Cl        1.9525960127    0.1228865481    0.6137044045
      3  C        -0.6201401046   -0.1661742940   -0.4698686467
      4  C         0.8550593838   -0.0161571537   -0.8196423193
      5  C        -0.9506025979   -1.3363609851    0.4447601475
      6  H        -1.1486270283   -0.2691486170   -1.4230873723
      7  H         1.1791980652   -0.9025225361   -1.3709180728
      8  H         1.0232153625    0.8710733325   -1.4295201686
      9  H        -0.4725678140   -1.2166771203    1.4187164463
     10  H        -2.0299549816   -1.4166189651    0.5884062777
     11  H        -0.5899387899   -2.2672738459   -0.0079562228
   Point Group: c1    Number of degrees of freedom:    27


   Energy is  -1038.332120724

              Constraints and their Current Values
                                        Value     Constraint
   Distance(Angs):        1   3             1.679495     1.500000
 Hessian Updated using BFGS Update
**WARNING** Constraint Gradient Reduced for constraint   1

   Using Lagrange Multiplier Algorithm


 25 Hessian modes will be used to form the next step
  Hessian Eigenvalues:
    -0.875783    0.107061    0.107065    0.176169    0.187733    0.192494
     0.198199    0.200973    0.204748    0.272713    0.380660    0.381385
     0.447035    0.532338    0.558616    0.601756    0.715303    0.719994
     0.811453    0.815347    0.820117    0.823283    0.824026    0.829134
     1.145657

 Minimum Search - Taking P-RFO Step
 Searching for Lamda that Maximizes Along the Constraint modes Only
 Value Taken    Lamda =   0.03381491
 Searching for Lamda that Minimizes Along All other modes
 Value Taken    Lamda =  -0.05622753
 Calculated Step too Large.  Step scaled by  0.995580
 Step Taken.  Stepsize is  0.300000

                             Maximum     Tolerance    Cnvgd?
         Gradient            0.300000       0.000300      NO
         Displacement        0.285774       0.001200      NO
         Energy change      0.009480       0.000001      NO


 New Cartesian Coordinates Obtained by Inverse Iteration

 Displacement from previous Coordinates is:  0.234526
 ----------------------------------------------------------------
             Standard Nuclear Orientation (Angstroms)
    I     Atom           X                Y                Z
 ----------------------------------------------------------------
    1      Cl     -1.1768196991     1.1638051353     0.1411036708
    2      Cl      1.9498573120     0.1228046664     0.6162483417
    3      C      -0.6343532740    -0.1340007641    -0.4564252051
    4      C       0.8485656607    -0.0093076818    -0.8154591812
    5      C      -0.9521757317    -1.3259158659     0.4460087431
    6      H      -1.1544445660    -0.2531547944    -1.4150190137
    7      H       1.1676408937    -0.8978421633    -1.3660836161
    8      H       1.0243446016     0.8756914099    -1.4265876303
    9      H      -0.4719114192    -1.2096236677     1.4193725976
   10      H      -2.0308183506    -1.4126449576     0.5919315924
   11      H      -0.5895854274    -2.2544113166    -0.0102922991
 ----------------------------------------------------------------
 Nuclear Repulsion Energy =   295.1295990493 hartrees
 There are       29 alpha and       29 beta electrons

                       Distance Matrix (Angstroms)
             Cl(  1)   Cl(  2)   C (  3)   C (  4)   C (  5)   H (  6)
   Cl(  2)  3.329497
   C (  3)  1.528271  2.809755
   C (  4)  2.528516  1.811100  1.530850
   C (  5)  2.518361  3.248010  1.528417  2.562699
   H (  6)  2.104708  3.728818  1.097085  2.104990  2.157580
   H (  7)  3.466771  2.362884  2.158267  1.092927  2.821444  2.410414
   H (  8)  2.717681  2.365712  2.170708  1.089770  3.501475  2.453885
   H (  9)  2.786401  2.878426  2.168402  2.859876  1.091611  3.068299
   H ( 10)  2.751482  4.266612  2.164278  3.498708  1.091918  2.477963
   H ( 11)  3.471595  3.534470  2.167298  2.785150  1.096260  2.509452
             H (  7)   H (  8)   H (  9)   H ( 10)
   H (  8)  1.780342
   H (  9)  3.247169  3.832337
   H ( 10)  3.785365  4.317977  1.776532
   H ( 11)  2.601210  3.795814  1.774646  1.774372
 
 Applying Cartesian multipole field
    Component          Value
    ---------          -----
     (2,0,0)        1.00000E-11
     (0,2,0)        2.00000E-11
     (0,0,2)       -3.00000E-10
 Nucleus-field energy     =    -0.0000000160 hartrees
 Requested basis set is 6-31G(d,p)
 There are 40 shells and 113 basis functions
 A cutoff of  1.0D-14 yielded    795 shell pairs
 There are      6496 function pairs
 Smallest overlap matrix eigenvalue = 5.21E-03
 Guess from superposition of atomic densities
 Warning:  Energy on first SCF cycle will be non-variational
 SAD guess density has 58.000000 electrons

 -----------------------------------------------------------------------
  General SCF calculation program by
  Eric Jon Sundstrom, Paul Horn, Yuezhi Mao, Dmitri Zuev, Alec White,
  David Stuck, Shaama M.S., Shane Yost, Joonho Lee, David Small,
  Daniel Levine, Susi Lehtola, Hugh Burton, Evgeny Epifanovsky
 -----------------------------------------------------------------------
 Exchange:     0.2000 Hartree-Fock + 0.0800 Slater + 0.7200 B88
 Correlation:  0.1900 VWN1RPA + 0.8100 LYP
 Using SG-1 standard quadrature grid
 using 12 threads for integral computing
 -------------------------------------------------------
 OpenMP Integral computing Module                
 Release: version 1.0, May 2013, Q-Chem Inc. Pittsburgh 
 -------------------------------------------------------
 -------------------------------------------------------
 OpenMP BLAS3 based DFT computing Module                
 Release: version 1.0, May 2013, Q-Chem Inc. Pittsburgh 
 -------------------------------------------------------
 A unrestricted SCF calculation will be
 performed using DIIS
 SCF converges when DIIS error is below 1.0e-06
 Alpha HF Exchange    Energy =  -7.33888651327774
 Beta HF Exchange     Energy =  -7.33888651327774
 DFT Correlation      Energy =  -2.78191922606058
 DFT Exchange         Energy = -57.46024820228558
 One-Electron (alpha) Energy = -1006.06584124569611
 One-Electron (beta)  Energy = -1006.06584124569611
 Total Coulomb        Energy = 752.63131611374558
 ---------------------------------------
  Cycle       Energy         DIIS error
 ---------------------------------------
    1   -1039.2907077993      3.27e-02  
 Alpha HF Exchange    Energy =  -7.31252103989914
 Beta HF Exchange     Energy =  -7.31252103989914
 DFT Correlation      Energy =  -2.80500603465496
 DFT Exchange         Energy = -58.00870235823144
 One-Electron (alpha) Energy = -1009.49866658815336
 One-Electron (beta)  Energy = -1009.49866658815336
 Total Coulomb        Energy = 761.06737115705971
    2   -1038.2391134587      2.80e-03  
 Alpha HF Exchange    Energy =  -7.26577342307964
 Beta HF Exchange     Energy =  -7.26577342307964
 DFT Correlation      Energy =  -2.78452411874004
 DFT Exchange         Energy = -57.61390668045451
 One-Electron (alpha) Energy = -1006.08817253022005
 One-Electron (beta)  Energy = -1006.08817253021971
 Total Coulomb        Energy = 753.74459112073134
    3   -1038.2321325518      3.02e-03  
 Alpha HF Exchange    Energy =  -7.28605296466619
 Beta HF Exchange     Energy =  -7.28605296466619
 DFT Correlation      Energy =  -2.79469379309089
 DFT Exchange         Energy = -57.78623830575448
 One-Electron (alpha) Energy = -1007.77981519267541
 One-Electron (beta)  Energy = -1007.77981519267519
 Total Coulomb        Energy = 757.29061099554792
    4   -1038.2924583847      3.78e-04  
 Alpha HF Exchange    Energy =  -7.28747737701698
 Beta HF Exchange     Energy =  -7.28747737701699
 DFT Correlation      Energy =  -2.79462503499840
 DFT Exchange         Energy = -57.79619239754121
 One-Electron (alpha) Energy = -1007.79142194085978
 One-Electron (beta)  Energy = -1007.79142194086012
 Total Coulomb        Energy = 757.32573085049773
    5   -1038.2932861845      1.27e-04  
 Alpha HF Exchange    Energy =  -7.28725977742136
 Beta HF Exchange     Energy =  -7.28725977742137
 DFT Correlation      Energy =  -2.79466279085824
 DFT Exchange         Energy = -57.79484797204568
 One-Electron (alpha) Energy = -1007.79384363523184
 One-Electron (beta)  Energy = -1007.79384363523252
 Total Coulomb        Energy = 757.32874133490475
    6   -1038.2933772200      4.41e-05  
 Alpha HF Exchange    Energy =  -7.28714954388720
 Beta HF Exchange     Energy =  -7.28714954388720
 DFT Correlation      Energy =  -2.79460833189121
 DFT Exchange         Energy = -57.79384067660487
 One-Electron (alpha) Energy = -1007.78222637424142
 One-Electron (beta)  Energy = -1007.78222637424165
 Total Coulomb        Energy = 757.30421264213851
    7   -1038.2933891693      7.03e-06  
 Alpha HF Exchange    Energy =  -7.28718156589458
 Beta HF Exchange     Energy =  -7.28718156589458
 DFT Correlation      Energy =  -2.79462070235371
 DFT Exchange         Energy = -57.79410346987270
 One-Electron (alpha) Energy = -1007.78536858337964
 One-Electron (beta)  Energy = -1007.78536858337975
 Total Coulomb        Energy = 757.31083598850239
    8   -1038.2933894490      2.12e-06  
 Alpha HF Exchange    Energy =  -7.28718243523168
 Beta HF Exchange     Energy =  -7.28718243523169
 DFT Correlation      Energy =  -2.79462055671672
 DFT Exchange         Energy = -57.79410731910028
 One-Electron (alpha) Energy = -1007.78544877525383
 One-Electron (beta)  Energy = -1007.78544877525462
 Total Coulomb        Energy = 757.31100178832378
    9   -1038.2933894752      4.57e-07  Convergence criterion met
 ---------------------------------------
 SCF time:   CPU 23.88s  wall 2.00s 
<S^2> =         -0.000000000
 Alpha HF Exchange    Energy =  -7.28718243523168
 Beta HF Exchange     Energy =  -7.28718243523169
 DFT Correlation      Energy =  -2.79462055671672
 DFT Exchange         Energy = -57.79410731910028
 One-Electron (alpha) Energy = -1007.78544877525383
 One-Electron (beta)  Energy = -1007.78544877525462
 Total Coulomb        Energy = 757.31100178832378
 Nuclear repulsion Energy = 295.12959903327811
 SCF   energy in the final basis set =    -1038.2933894752
 Total energy in the final basis set =    -1038.2933894752
 
 --------------------------------------------------------------
 
                    Orbital Energies (a.u.)
 --------------------------------------------------------------
 
 Alpha MOs
 -- Occupied --
*******-101.537 -10.255 -10.250 -10.191  -9.461  -9.453  -7.224
 -7.218  -7.215  -7.214  -7.208  -7.207  -0.954  -0.849  -0.745
 -0.697  -0.589  -0.511  -0.485  -0.470  -0.416  -0.408  -0.388
 -0.384  -0.311  -0.299  -0.288  -0.287
 -- Virtual --
  0.024   0.070   0.112   0.128   0.135   0.145   0.161   0.173
  0.198   0.200   0.357   0.392   0.419   0.434   0.450   0.462
  0.470   0.507   0.518   0.541   0.547   0.569   0.633   0.650
  0.674   0.700   0.753   0.802   0.819   0.841   0.859   0.865
  0.869   0.889   0.900   0.911   0.935   0.958   0.979   1.031
  1.053   1.120   1.163   1.280   1.374   1.418   1.483   1.559
  1.585   1.777   1.816   1.850   1.873   1.918   2.036   2.060
  2.083   2.095   2.108   2.197   2.236   2.293   2.357   2.382
  2.506   2.602   2.609   2.647   2.669   2.746   2.815   2.867
  2.908   3.193   3.238   3.327   3.409   3.441   3.474   4.188
  4.305   4.344   4.456   4.600
 
 Beta MOs
 -- Occupied --
*******-101.537 -10.255 -10.250 -10.191  -9.461  -9.453  -7.224
 -7.218  -7.215  -7.214  -7.208  -7.207  -0.954  -0.849  -0.745
 -0.697  -0.589  -0.511  -0.485  -0.470  -0.416  -0.408  -0.388
 -0.384  -0.311  -0.299  -0.288  -0.287
 -- Virtual --
  0.024   0.070   0.112   0.128   0.135   0.145   0.161   0.173
  0.198   0.200   0.357   0.392   0.419   0.434   0.450   0.462
  0.470   0.507   0.518   0.541   0.547   0.569   0.633   0.650
  0.674   0.700   0.753   0.802   0.819   0.841   0.859   0.865
  0.869   0.889   0.900   0.911   0.935   0.958   0.979   1.031
  1.053   1.120   1.163   1.280   1.374   1.418   1.483   1.559
  1.585   1.777   1.816   1.850   1.873   1.918   2.036   2.060
  2.083   2.095   2.108   2.197   2.236   2.293   2.357   2.382
  2.506   2.602   2.609   2.647   2.669   2.746   2.815   2.867
  2.908   3.193   3.238   3.327   3.409   3.441   3.474   4.188
  4.305   4.344   4.456   4.600
 --------------------------------------------------------------
 
          Ground-State Mulliken Net Atomic Charges

     Atom                 Charge (a.u.)    Spin (a.u.)
  --------------------------------------------------------
      1 Cl                    0.028701       0.000000
      2 Cl                   -0.080093       0.000000
      3 C                    -0.202646       0.000000
      4 C                    -0.274939       0.000000
      5 C                    -0.310631       0.000000
      6 H                     0.145790      -0.000000
      7 H                     0.154067       0.000000
      8 H                     0.164225      -0.000000
      9 H                     0.145458      -0.000000
     10 H                     0.122693       0.000000
     11 H                     0.107375      -0.000000
  --------------------------------------------------------
  Sum of atomic charges =    -0.000000
  Sum of spin   charges =     0.000000

 -----------------------------------------------------------------
                    Cartesian Multipole Moments
 -----------------------------------------------------------------
    Charge (ESU x 10^10)
                -0.0000
    Dipole Moment (Debye)
         X      -0.9461      Y      -1.3492      Z      -1.9034
       Tot       2.5176
    Quadrupole Moments (Debye-Ang)
        XX     -47.5949     XY       1.1362     YY     -44.8545
        XZ      -1.2837     YZ      -0.2627     ZZ     -42.7156
    Octopole Moments (Debye-Ang^2)
       XXX     -20.9108    XXY      -6.5418    XYY      -4.7330
       YYY     -14.5994    XXZ      -5.3313    XYZ      -0.0974
       YYZ      -4.5788    XZZ      -3.2177    YZZ      -4.7813
       ZZZ     -12.9950
    Hexadecapole Moments (Debye-Ang^3)
      XXXX    -549.4663   XXXY      14.1139   XXYY    -131.5256
      XYYY       7.1480   YYYY    -245.4831   XXXZ     -16.9429
      XXYZ       2.4028   XYYZ     -10.7713   YYYZ       7.4348
      XXZZ    -107.6730   XYZZ       3.8872   YYZZ     -64.5825
      XZZZ     -16.3382   YZZZ       2.7376   ZZZZ    -140.5392
 -----------------------------------------------------------------
 Calculating analytic gradient of the SCF energy
 Gradient of SCF Energy
            1           2           3           4           5           6
    1   0.0791175  -0.0000027  -0.0611641  -0.0072941  -0.0045822  -0.0061527
    2  -0.1900928  -0.0008468   0.1505405   0.0136976   0.0153693   0.0136704
    3  -0.0894813  -0.0007395   0.0718087   0.0084666   0.0055776   0.0064308
            7           8           9          10          11
    1  -0.0014440   0.0003972   0.0000680   0.0003842   0.0006730
    2  -0.0007301  -0.0007123  -0.0010505  -0.0007120   0.0008667
    3  -0.0001813  -0.0002176  -0.0001733   0.0000045  -0.0014953
 Max gradient component =       1.901E-01
 RMS gradient           =       5.010E-02
 Gradient time:  CPU 9.46 s  wall 0.79 s
 Geometry Optimization Parameters
   NAtoms,    NIC,     NZ,  NCons,   NDum,   NFix, NCnnct, MaxDiis
       11      68       0       1       0       0       0       0

 Cartesian Hessian Update
 Hessian Updated using BFGS Update


** CONSTRAINED OPTIMIZATION IN DELOCALIZED INTERNAL COORDINATES **
   Searching for a Minimum

   Optimization Cycle:   3

                       Coordinates (Angstroms)
     ATOM                X               Y               Z
      1  Cl       -1.1768196991    1.1638051353    0.1411036708
      2  Cl        1.9498573120    0.1228046664    0.6162483417
      3  C        -0.6343532740   -0.1340007641   -0.4564252051
      4  C         0.8485656607   -0.0093076818   -0.8154591812
      5  C        -0.9521757317   -1.3259158659    0.4460087431
      6  H        -1.1544445660   -0.2531547944   -1.4150190137
      7  H         1.1676408937   -0.8978421633   -1.3660836161
      8  H         1.0243446016    0.8756914099   -1.4265876303
      9  H        -0.4719114192   -1.2096236677    1.4193725976
     10  H        -2.0308183506   -1.4126449576    0.5919315924
     11  H        -0.5895854274   -2.2544113166   -0.0102922991
   Point Group: c1    Number of degrees of freedom:    27


   Energy is  -1038.293389475

              Constraints and their Current Values
                                        Value     Constraint
   Distance(Angs):        1   3             1.528271     1.500000
 Hessian Updated using BFGS Update

   Using Lagrange Multiplier Algorithm


 26 Hessian modes will be used to form the next step
  Hessian Eigenvalues:
    -0.764768    0.107061    0.107066    0.175755    0.187576    0.192459
     0.198170    0.200973    0.204745    0.272710    0.380660    0.380668
     0.380730    0.447009    0.532284    0.555712    0.601751    0.713056
     0.718110    0.811454    0.814969    0.820117    0.823283    0.824026
     0.829133    1.328572

 Minimum Search - Taking P-RFO Step
 Searching for Lamda that Maximizes Along the Constraint modes Only
 Value Taken    Lamda =   0.00911652
 Searching for Lamda that Minimizes Along All other modes
 Value Taken    Lamda =  -0.00352359
 Step Taken.  Stepsize is  0.136576

                             Maximum     Tolerance    Cnvgd?
         Gradient            0.071496       0.000300      NO
         Displacement        0.086770       0.001200      NO
         Energy change      0.038731       0.000001      NO


 New Cartesian Coordinates Obtained by Inverse Iteration

 Displacement from previous Coordinates is:  0.082727
 ----------------------------------------------------------------
             Standard Nuclear Orientation (Angstroms)
    I     Atom           X                Y                Z
 ----------------------------------------------------------------
    1      Cl     -1.1805900949     1.1652268763     0.1428085122
    2      Cl      1.9503658290     0.1224994903     0.6151629313
    3      C      -0.6458985601    -0.1075614660    -0.4448612274
    4      C       0.8451744322    -0.0128022661    -0.8141099530
    5      C      -0.9491872908    -1.3241029744     0.4424852741
    6      H      -1.1480375161    -0.2579872485    -1.4124044557
    7      H       1.1564709195    -0.9078685164    -1.3581579871
    8      H       1.0291024968     0.8662772838    -1.4318887059
    9      H      -0.4716625207    -1.2094634545     1.4175938766
   10      H      -2.0274249438    -1.4218207294     0.5862628782
   11      H      -0.5780127511    -2.2469969952    -0.0180931432
 ----------------------------------------------------------------
 Nuclear Repulsion Energy =   295.5764833626 hartrees
 There are       29 alpha and       29 beta electrons

                       Distance Matrix (Angstroms)
             Cl(  1)   Cl(  2)   C (  3)   C (  4)   C (  5)   H (  6)
   Cl(  2)  3.333659
   C (  3)  1.500414  2.813746
   C (  4)  2.531238  1.811788  1.539033
   C (  5)  2.517959  3.244978  1.536015  2.553091
   H (  6)  2.108385  3.722352  1.100414  2.095463  2.148665
   H (  7)  3.465902  2.363456  2.173278  1.092720  2.801672  2.395005
   H (  8)  2.729796  2.364815  2.174446  1.090074  3.496380  2.450365
   H (  9)  2.786900  2.878236  2.171010  2.854218  1.091792  3.061320
   H ( 10)  2.758006  4.267151  2.167743  3.492593  1.092162  2.474369
   H ( 11)  3.468755  3.522531  2.182641  2.765995  1.096192  2.495033
             H (  7)   H (  8)   H (  9)   H ( 10)
   H (  8)  1.780239
   H (  9)  3.232116  3.831520
   H ( 10)  3.765915  4.318644  1.776683
   H ( 11)  2.568555  3.778110  1.774538  1.773967
 
 Applying Cartesian multipole field
    Component          Value
    ---------          -----
     (2,0,0)        1.00000E-11
     (0,2,0)        2.00000E-11
     (0,0,2)       -3.00000E-10
 Nucleus-field energy     =    -0.0000000158 hartrees
 Requested basis set is 6-31G(d,p)
 There are 40 shells and 113 basis functions
 A cutoff of  1.0D-14 yielded    796 shell pairs
 There are      6508 function pairs
 Smallest overlap matrix eigenvalue = 5.22E-03
 Guess from superposition of atomic densities
 Warning:  Energy on first SCF cycle will be non-variational
 SAD guess density has 58.000000 electrons

 -----------------------------------------------------------------------
  General SCF calculation program by
  Eric Jon Sundstrom, Paul Horn, Yuezhi Mao, Dmitri Zuev, Alec White,
  David Stuck, Shaama M.S., Shane Yost, Joonho Lee, David Small,
  Daniel Levine, Susi Lehtola, Hugh Burton, Evgeny Epifanovsky
 -----------------------------------------------------------------------
 Exchange:     0.2000 Hartree-Fock + 0.0800 Slater + 0.7200 B88
 Correlation:  0.1900 VWN1RPA + 0.8100 LYP
 Using SG-1 standard quadrature grid
 using 12 threads for integral computing
 -------------------------------------------------------
 OpenMP Integral computing Module                
 Release: version 1.0, May 2013, Q-Chem Inc. Pittsburgh 
 -------------------------------------------------------
 -------------------------------------------------------
 OpenMP BLAS3 based DFT computing Module                
 Release: version 1.0, May 2013, Q-Chem Inc. Pittsburgh 
 -------------------------------------------------------
 A unrestricted SCF calculation will be
 performed using DIIS
 SCF converges when DIIS error is below 1.0e-06
 Alpha HF Exchange    Energy =  -7.34106014511150
 Beta HF Exchange     Energy =  -7.34106014511150
 DFT Correlation      Energy =  -2.78230246074040
 DFT Exchange         Energy = -57.46525620031106
 One-Electron (alpha) Energy = -1006.49317543143309
 One-Electron (beta)  Energy = -1006.49317543143309
 Total Coulomb        Energy = 753.01968522780953
 ---------------------------------------
  Cycle       Energy         DIIS error
 ---------------------------------------
    1   -1039.3198612396      3.31e-02  
 Alpha HF Exchange    Energy =  -7.31333743006552
 Beta HF Exchange     Energy =  -7.31333743006552
 DFT Correlation      Energy =  -2.80548435841421
 DFT Exchange         Energy = -58.01583093058746
 One-Electron (alpha) Energy = -1009.93482611110664
 One-Electron (beta)  Energy = -1009.93482611110642
 Total Coulomb        Energy = 761.51311034589548
    2   -1038.2280486787      2.83e-03  
 Alpha HF Exchange    Energy =  -7.26626413444481
 Beta HF Exchange     Energy =  -7.26626413444482
 DFT Correlation      Energy =  -2.78476190459593
 DFT Exchange         Energy = -57.61789280240482
 One-Electron (alpha) Energy = -1006.47699579679932
 One-Electron (beta)  Energy = -1006.47699579680000
 Total Coulomb        Energy = 754.09301961104984
    3   -1038.2196716117      3.08e-03  
 Alpha HF Exchange    Energy =  -7.28672093183236
 Beta HF Exchange     Energy =  -7.28672093183236
 DFT Correlation      Energy =  -2.79506927598124
 DFT Exchange         Energy = -57.79191490859647
 One-Electron (alpha) Energy = -1008.19678458053693
 One-Electron (beta)  Energy = -1008.19678458053716
 Total Coulomb        Energy = 757.69526431333759
    4   -1038.2822475493      3.77e-04  
 Alpha HF Exchange    Energy =  -7.28820123279079
 Beta HF Exchange     Energy =  -7.28820123279080
 DFT Correlation      Energy =  -2.79502482211626
 DFT Exchange         Energy = -57.80231822548649
 One-Electron (alpha) Energy = -1008.21193768859428
 One-Electron (beta)  Energy = -1008.21193768859450
 Total Coulomb        Energy = 757.73806999670398
    5   -1038.2830675470      1.27e-04  
 Alpha HF Exchange    Energy =  -7.28797201999170
 Beta HF Exchange     Energy =  -7.28797201999171
 DFT Correlation      Energy =  -2.79505664322183
 DFT Exchange         Energy = -57.80088002207113
 One-Electron (alpha) Energy = -1008.21349304620310
 One-Electron (beta)  Energy = -1008.21349304620389
 Total Coulomb        Energy = 757.73922482865430
    6   -1038.2831586223      4.46e-05  
 Alpha HF Exchange    Energy =  -7.28786092320915
 Beta HF Exchange     Energy =  -7.28786092320915
 DFT Correlation      Energy =  -2.79500209818388
 DFT Exchange         Energy = -57.79986547094578
 One-Electron (alpha) Energy = -1008.20180044188908
 One-Electron (beta)  Energy = -1008.20180044188839
 Total Coulomb        Energy = 757.71453605528075
    7   -1038.2831708973      7.01e-06  
 Alpha HF Exchange    Energy =  -7.28789428297163
 Beta HF Exchange     Energy =  -7.28789428297163
 DFT Correlation      Energy =  -2.79501486386845
 DFT Exchange         Energy = -57.80013859202840
 One-Electron (alpha) Energy = -1008.20501750403025
 One-Electron (beta)  Energy = -1008.20501750402991
 Total Coulomb        Energy = 757.72132250677987
    8   -1038.2831711764      2.09e-06  
 Alpha HF Exchange    Energy =  -7.28789495356400
 Beta HF Exchange     Energy =  -7.28789495356400
 DFT Correlation      Energy =  -2.79501468751418
 DFT Exchange         Energy = -57.80014094148386
 One-Electron (alpha) Energy = -1008.20509964181599
 One-Electron (beta)  Energy = -1008.20509964181576
 Total Coulomb        Energy = 757.72149027133401
    9   -1038.2831712017      4.69e-07  Convergence criterion met
 ---------------------------------------
 SCF time:   CPU 23.99s  wall 2.00s 
<S^2> =         -0.000000000
 Alpha HF Exchange    Energy =  -7.28789495356400
 Beta HF Exchange     Energy =  -7.28789495356400
 DFT Correlation      Energy =  -2.79501468751418
 DFT Exchange         Energy = -57.80014094148386
 One-Electron (alpha) Energy = -1008.20509964181599
 One-Electron (beta)  Energy = -1008.20509964181576
 Total Coulomb        Energy = 757.72149027133401
 Nuclear repulsion Energy = 295.57648334671802
 SCF   energy in the final basis set =    -1038.2831712017
 Total energy in the final basis set =    -1038.2831712017
 
 --------------------------------------------------------------
 
                    Orbital Energies (a.u.)
 --------------------------------------------------------------
 
 Alpha MOs
 -- Occupied --
*******-101.536 -10.254 -10.249 -10.191  -9.464  -9.453  -7.227
 -7.218  -7.217  -7.217  -7.207  -7.207  -0.962  -0.849  -0.744
 -0.695  -0.588  -0.512  -0.484  -0.472  -0.418  -0.409  -0.387
 -0.385  -0.312  -0.298  -0.287  -0.286
 -- Virtual --
  0.025   0.070   0.116   0.128   0.136   0.146   0.160   0.173
  0.196   0.201   0.354   0.391   0.420   0.432   0.453   0.462
  0.468   0.508   0.519   0.540   0.548   0.569   0.636   0.650
  0.674   0.702   0.754   0.801   0.819   0.841   0.859   0.864
  0.869   0.889   0.900   0.911   0.936   0.959   0.980   1.033
  1.052   1.116   1.166   1.298   1.380   1.421   1.482   1.562
  1.586   1.777   1.812   1.849   1.876   1.916   2.037   2.061
  2.083   2.096   2.112   2.206   2.240   2.296   2.362   2.378
  2.508   2.606   2.610   2.642   2.666   2.744   2.814   2.869
  2.909   3.192   3.237   3.320   3.409   3.440   3.476   4.191
  4.308   4.344   4.456   4.602
 
 Beta MOs
 -- Occupied --
*******-101.536 -10.254 -10.249 -10.191  -9.464  -9.453  -7.227
 -7.218  -7.217  -7.217  -7.207  -7.207  -0.962  -0.849  -0.744
 -0.695  -0.588  -0.512  -0.484  -0.472  -0.418  -0.409  -0.387
 -0.385  -0.312  -0.298  -0.287  -0.286
 -- Virtual --
  0.025   0.070   0.116   0.128   0.136   0.146   0.160   0.173
  0.196   0.201   0.354   0.391   0.420   0.432   0.453   0.462
  0.468   0.508   0.519   0.540   0.548   0.569   0.636   0.650
  0.674   0.702   0.754   0.801   0.819   0.841   0.859   0.864
  0.869   0.889   0.900   0.911   0.936   0.959   0.980   1.033
  1.052   1.116   1.166   1.298   1.380   1.421   1.482   1.562
  1.586   1.777   1.812   1.849   1.876   1.916   2.037   2.061
  2.083   2.096   2.112   2.206   2.240   2.296   2.362   2.378
  2.508   2.606   2.610   2.642   2.666   2.744   2.814   2.869
  2.909   3.192   3.237   3.320   3.409   3.440   3.476   4.191
  4.308   4.344   4.456   4.602
 --------------------------------------------------------------
 
          Ground-State Mulliken Net Atomic Charges

     Atom                 Charge (a.u.)    Spin (a.u.)
  --------------------------------------------------------
      1 Cl                    0.041812      -0.000000
      2 Cl                   -0.082905      -0.000000
      3 C                    -0.200031       0.000000
      4 C                    -0.276332       0.000000
      5 C                    -0.312836      -0.000000
      6 H                     0.141312       0.000000
      7 H                     0.154397       0.000000
      8 H                     0.162220      -0.000000
      9 H                     0.144187      -0.000000
     10 H                     0.120631       0.000000
     11 H                     0.107546       0.000000
  --------------------------------------------------------
  Sum of atomic charges =    -0.000000
  Sum of spin   charges =     0.000000

 -----------------------------------------------------------------
                    Cartesian Multipole Moments
 -----------------------------------------------------------------
    Charge (ESU x 10^10)
                -0.0000
    Dipole Moment (Debye)
         X      -0.9987      Y      -1.2753      Z      -1.8833
       Tot       2.4840
    Quadrupole Moments (Debye-Ang)
        XX     -47.6155     XY       0.9977     YY     -44.7648
        XZ      -1.3176     YZ      -0.2116     ZZ     -42.7761
    Octopole Moments (Debye-Ang^2)
       XXX     -20.9120    XXY      -6.4724    XYY      -4.7569
       YYY     -14.7906    XXZ      -5.3857    XYZ      -0.1035
       YYZ      -4.6518    XZZ      -3.1365    YZZ      -4.8247
       ZZZ     -13.0831
    Hexadecapole Moments (Debye-Ang^3)
      XXXX    -550.3013   XXXY      14.2225   XXYY    -131.5098
      XYYY       7.4319   YYYY    -244.9169   XXXZ     -17.0258
      XXYZ       2.4482   XYYZ     -10.7163   YYYZ       7.4451
      XXZZ    -107.8772   XYZZ       3.9542   YYZZ     -64.4580
      XZZZ     -16.4590   YZZZ       2.7928   ZZZZ    -140.2569
 -----------------------------------------------------------------
 Calculating analytic gradient of the SCF energy
 Gradient of SCF Energy
            1           2           3           4           5           6
    1   0.0911098  -0.0002518  -0.0782250  -0.0052795  -0.0032082  -0.0050901
    2  -0.2186443  -0.0009117   0.1897842   0.0099903   0.0118222   0.0107163
    3  -0.1027181  -0.0008196   0.0897932   0.0067397   0.0042378   0.0047605
            7           8           9          10          11
    1  -0.0003136   0.0000931   0.0002276   0.0004810   0.0004566
    2  -0.0005809  -0.0007839  -0.0007434  -0.0005526  -0.0000961
    3  -0.0004252  -0.0001150  -0.0004082  -0.0003059  -0.0007391
 Max gradient component =       2.186E-01
 RMS gradient           =       5.964E-02
 Gradient time:  CPU 9.47 s  wall 0.79 s
 Geometry Optimization Parameters
   NAtoms,    NIC,     NZ,  NCons,   NDum,   NFix, NCnnct, MaxDiis
       11      68       0       1       0       0       0       0

 Cartesian Hessian Update
 Hessian Updated using BFGS Update


** CONSTRAINED OPTIMIZATION IN DELOCALIZED INTERNAL COORDINATES **
   Searching for a Minimum

   Optimization Cycle:   4

                       Coordinates (Angstroms)
     ATOM                X               Y               Z
      1  Cl       -1.1805900949    1.1652268763    0.1428085122
      2  Cl        1.9503658290    0.1224994903    0.6151629313
      3  C        -0.6458985601   -0.1075614660   -0.4448612274
      4  C         0.8451744322   -0.0128022661   -0.8141099530
      5  C        -0.9491872908   -1.3241029744    0.4424852741
      6  H        -1.1480375161   -0.2579872485   -1.4124044557
      7  H         1.1564709195   -0.9078685164   -1.3581579871
      8  H         1.0291024968    0.8662772838   -1.4318887059
      9  H        -0.4716625207   -1.2094634545    1.4175938766
     10  H        -2.0274249438   -1.4218207294    0.5862628782
     11  H        -0.5780127511   -2.2469969952   -0.0180931432
   Point Group: c1    Number of degrees of freedom:    27


   Energy is  -1038.283171202

              Constraints and their Current Values
                                        Value     Constraint
   Distance(Angs):        1   3             1.500414     1.500000
 Hessian Updated using BFGS Update

   Using Lagrange Multiplier Algorithm


 27 Hessian modes will be used to form the next step
  Hessian Eigenvalues:
    -0.640329    0.087588    0.107063    0.107533    0.183773    0.192249
     0.197995    0.200971    0.204727    0.272663    0.378643    0.380660
     0.380660    0.380806    0.446893    0.527269    0.534289    0.601697
     0.687989    0.716984    0.811462    0.812332    0.820150    0.823279
     0.824023    0.829119    1.591600

 Minimum Search - Taking P-RFO Step
 Searching for Lamda that Maximizes Along the Constraint modes Only
 Value Taken    Lamda =   0.00012071
 Searching for Lamda that Minimizes Along All other modes
 Value Taken    Lamda =  -0.00298422
 Step Taken.  Stepsize is  0.172873

                             Maximum     Tolerance    Cnvgd?
         Gradient            0.018404       0.000300      NO
         Displacement        0.111861       0.001200      NO
         Energy change      0.010218       0.000001      NO


 New Cartesian Coordinates Obtained by Inverse Iteration

 Displacement from previous Coordinates is:  0.145598
 ----------------------------------------------------------------
             Standard Nuclear Orientation (Angstroms)
    I     Atom           X                Y                Z
 ----------------------------------------------------------------
    1      Cl     -1.1970482180     1.1965142935     0.1570249143
    2      Cl      1.9527606960     0.1244815339     0.6121568152
    3      C      -0.6596502784    -0.0750549269    -0.4298189304
    4      C       0.8408325250    -0.0202870494    -0.8127136247
    5      C      -0.9440653581    -1.3238729799     0.4361559349
    6      H      -1.1331360163    -0.2724461360    -1.4085797872
    7      H       1.1382797282    -0.9262669165    -1.3450199745
    8      H       1.0356673543     0.8490571076    -1.4419640220
    9      H      -0.4725331416    -1.2129150034     1.4150384241
   10      H      -2.0218492032    -1.4377088724     0.5754438775
   11      H      -0.5589580881    -2.2361010505    -0.0329256272
 ----------------------------------------------------------------
 Nuclear Repulsion Energy =   294.3474267751 hartrees
 There are       29 alpha and       29 beta electrons

                       Distance Matrix (Angstroms)
             Cl(  1)   Cl(  2)   C (  3)   C (  4)   C (  5)   H (  6)
   Cl(  2)  3.358228
   C (  3)  1.500024  2.819613
   C (  4)  2.563973  1.813173  1.549534
   C (  5)  2.548385  3.243502  1.546076  2.538675
   H (  6)  2.147801  3.709944  1.105045  2.077304  2.131735
   H (  7)  3.495153  2.366008  2.189682  1.092073  2.768906  2.364498
   H (  8)  2.768124  2.363363  2.180028  1.090723  3.488309  2.441842
   H (  9)  2.812982  2.883626  2.175600  2.847836  1.092184  3.048557
   H ( 10)  2.791864  4.270751  2.173238  3.482960  1.092693  2.466576
   H ( 11)  3.496582  3.506738  2.199496  2.734468  1.095676  2.465369
             H (  7)   H (  8)   H (  9)   H ( 10)
   H (  8)  1.780928
   H (  9)  3.208552  3.832605
   H ( 10)  3.733118  4.318291  1.776466
   H ( 11)  2.513538  3.747855  1.775100  1.774146
 
 Applying Cartesian multipole field
    Component          Value
    ---------          -----
     (2,0,0)        1.00000E-11
     (0,2,0)        2.00000E-11
     (0,0,2)       -3.00000E-10
 Nucleus-field energy     =    -0.0000000156 hartrees
 Requested basis set is 6-31G(d,p)
 There are 40 shells and 113 basis functions
 A cutoff of  1.0D-14 yielded    796 shell pairs
 There are      6508 function pairs
 Smallest overlap matrix eigenvalue = 5.31E-03
 Guess from superposition of atomic densities
 Warning:  Energy on first SCF cycle will be non-variational
 SAD guess density has 58.000000 electrons

 -----------------------------------------------------------------------
  General SCF calculation program by
  Eric Jon Sundstrom, Paul Horn, Yuezhi Mao, Dmitri Zuev, Alec White,
  David Stuck, Shaama M.S., Shane Yost, Joonho Lee, David Small,
  Daniel Levine, Susi Lehtola, Hugh Burton, Evgeny Epifanovsky
 -----------------------------------------------------------------------
 Exchange:     0.2000 Hartree-Fock + 0.0800 Slater + 0.7200 B88
 Correlation:  0.1900 VWN1RPA + 0.8100 LYP
 Using SG-1 standard quadrature grid
 using 12 threads for integral computing
 -------------------------------------------------------
 OpenMP Integral computing Module                
 Release: version 1.0, May 2013, Q-Chem Inc. Pittsburgh 
 -------------------------------------------------------
 -------------------------------------------------------
 OpenMP BLAS3 based DFT computing Module                
 Release: version 1.0, May 2013, Q-Chem Inc. Pittsburgh 
 -------------------------------------------------------
 A unrestricted SCF calculation will be
 performed using DIIS
 SCF converges when DIIS error is below 1.0e-06
 Alpha HF Exchange    Energy =  -7.33776033912055
 Beta HF Exchange     Energy =  -7.33776033912055
 DFT Correlation      Energy =  -2.78150123116914
 DFT Exchange         Energy = -57.45915298767567
 One-Electron (alpha) Energy = -1005.27484728648426
 One-Electron (beta)  Energy = -1005.27484728648426
 Total Coulomb        Energy = 751.82743899604873
 ---------------------------------------
  Cycle       Energy         DIIS error
 ---------------------------------------
    1   -1039.2910037145      3.28e-02  
 Alpha HF Exchange    Energy =  -7.31173088343111
 Beta HF Exchange     Energy =  -7.31173088343111
 DFT Correlation      Energy =  -2.80453161609946
 DFT Exchange         Energy = -58.00463329527423
 One-Electron (alpha) Energy = -1008.67437113325104
 One-Electron (beta)  Energy = -1008.67437113325093
 Total Coulomb        Energy = 760.20412962943487
    2   -1038.2298125558      2.82e-03  
 Alpha HF Exchange    Energy =  -7.26522872676396
 Beta HF Exchange     Energy =  -7.26522872676395
 DFT Correlation      Energy =  -2.78399178325173
 DFT Exchange         Energy = -57.61103299548733
 One-Electron (alpha) Energy = -1005.28243371221004
 One-Electron (beta)  Energy = -1005.28243371221038
 Total Coulomb        Energy = 752.92170077718856
    3   -1038.2212221200      3.08e-03  
 Alpha HF Exchange    Energy =  -7.28534538015026
 Beta HF Exchange     Energy =  -7.28534538015025
 DFT Correlation      Energy =  -2.79418230620451
 DFT Exchange         Energy = -57.78245470800967
 One-Electron (alpha) Energy = -1006.95920357178056
 One-Electron (beta)  Energy = -1006.95920357178022
 Total Coulomb        Energy = 756.43436768319475
    4   -1038.2839404754      3.69e-04  
 Alpha HF Exchange    Energy =  -7.28688258706983
 Beta HF Exchange     Energy =  -7.28688258706983
 DFT Correlation      Energy =  -2.79415940885283
 DFT Exchange         Energy = -57.79329313118158
 One-Electron (alpha) Energy = -1006.98171951263225
 One-Electron (beta)  Energy = -1006.98171951263237
 Total Coulomb        Energy = 756.49250039935941
    5   -1038.2847295806      1.27e-04  
 Alpha HF Exchange    Energy =  -7.28664032022575
 Beta HF Exchange     Energy =  -7.28664032022575
 DFT Correlation      Energy =  -2.79419060630989
 DFT Exchange         Energy = -57.79176850860065
 One-Electron (alpha) Energy = -1006.98231004296520
 One-Electron (beta)  Energy = -1006.98231004296520
 Total Coulomb        Energy = 756.49161125664421
    6   -1038.2848218251      4.48e-05  
 Alpha HF Exchange    Energy =  -7.28652545892633
 Beta HF Exchange     Energy =  -7.28652545892634
 DFT Correlation      Energy =  -2.79413422472587
 DFT Exchange         Energy = -57.79072031800661
 One-Electron (alpha) Energy = -1006.97020660786620
 One-Electron (beta)  Energy = -1006.97020660786654
 Total Coulomb        Energy = 756.46605766803964
    7   -1038.2848342488      6.76e-06  
 Alpha HF Exchange    Energy =  -7.28656180052765
 Beta HF Exchange     Energy =  -7.28656180052765
 DFT Correlation      Energy =  -2.79414773571354
 DFT Exchange         Energy = -57.79101621540569
 One-Electron (alpha) Energy = -1006.97368679555541
 One-Electron (beta)  Energy = -1006.97368679555541
 Total Coulomb        Energy = 756.47339987288387
    8   -1038.2848345109      2.01e-06  
 Alpha HF Exchange    Energy =  -7.28656141373031
 Beta HF Exchange     Energy =  -7.28656141373031
 DFT Correlation      Energy =  -2.79414732084579
 DFT Exchange         Energy = -57.79101047101273
 One-Electron (alpha) Energy = -1006.97368267333252
 One-Electron (beta)  Energy = -1006.97368267333286
 Total Coulomb        Energy = 756.47338467222778
    9   -1038.2848345342      4.93e-07  Convergence criterion met
 ---------------------------------------
 SCF time:   CPU 23.78s  wall 2.00s 
<S^2> =         -0.000000000
 Alpha HF Exchange    Energy =  -7.28656141373031
 Beta HF Exchange     Energy =  -7.28656141373031
 DFT Correlation      Energy =  -2.79414732084579
 DFT Exchange         Energy = -57.79101047101273
 One-Electron (alpha) Energy = -1006.97368267333252
 One-Electron (beta)  Energy = -1006.97368267333286
 Total Coulomb        Energy = 756.47338467222778
 Nuclear repulsion Energy = 294.34742675952202
 SCF   energy in the final basis set =    -1038.2848345342
 Total energy in the final basis set =    -1038.2848345342
 
 --------------------------------------------------------------
 
                    Orbital Energies (a.u.)
 --------------------------------------------------------------
 
 Alpha MOs
 -- Occupied --
*******-101.535 -10.254 -10.251 -10.191  -9.468  -9.452  -7.231
 -7.221  -7.221  -7.216  -7.206  -7.206  -0.960  -0.848  -0.745
 -0.693  -0.588  -0.510  -0.483  -0.472  -0.420  -0.408  -0.386
 -0.383  -0.313  -0.298  -0.289  -0.286
 -- Virtual --
  0.026   0.070   0.114   0.128   0.135   0.146   0.158   0.173
  0.194   0.200   0.349   0.390   0.422   0.431   0.456   0.461
  0.466   0.509   0.519   0.540   0.547   0.567   0.636   0.651
  0.672   0.702   0.754   0.800   0.818   0.841   0.858   0.863
  0.868   0.889   0.900   0.911   0.935   0.959   0.984   1.031
  1.051   1.108   1.164   1.295   1.379   1.423   1.470   1.567
[...]
     11  H        -0.5770902531   -2.2286382128   -0.0719642061
   Point Group: c1    Number of degrees of freedom:    27


   Energy is  -1038.285090509

              Constraints and their Current Values
                                        Value     Constraint
   Distance(Angs):        1   3             1.500000     1.500000
 Hessian Updated using BFGS Update

 26 Hessian modes will be used to form the next step
  Hessian Eigenvalues:
     0.004804    0.045673    0.068019    0.139941    0.184784    0.192174
     0.198155    0.202152    0.262005    0.291879    0.371085    0.380614
     0.380658    0.384913    0.445982    0.508983    0.536257    0.595960
     0.673348    0.705771    0.805471    0.812031    0.817583    0.821017
     0.823934    0.827059

 Minimum Search - Taking Simple RFO Step
 Searching for Lamda that Minimizes Along All modes
 Value Taken    Lamda =   0.00000000
 Step Taken.  Stepsize is  0.003633

                             Maximum     Tolerance    Cnvgd?
         Gradient           0.000124      0.000300     YES
         Displacement       0.001493      0.001200      NO
         Energy change     -0.000001      0.000001      NO


 New Cartesian Coordinates Obtained by Inverse Iteration

 Displacement from previous Coordinates is:  0.002960
 ----------------------------------------------------------------
             Standard Nuclear Orientation (Angstroms)
    I     Atom           X                Y                Z
 ----------------------------------------------------------------
    1      Cl     -1.1932408649     1.2077384525     0.1760070650
    2      Cl      1.9581529421     0.1816599675     0.6093749356
    3      C      -0.6612632587    -0.0621177081    -0.4193634201
    4      C       0.8423636390    -0.0211334375    -0.8094482077
    5      C      -0.9478702881    -1.3297753064     0.4293086080
    6      H      -1.1195833197    -0.2757010714    -1.4044172660
    7      H       1.1305661782    -0.9494765350    -1.3036956243
    8      H       1.0395537467     0.8247157539    -1.4704468368
    9      H      -0.4653177884    -1.2463030560     1.4064913880
   10      H      -2.0253933264    -1.4355213361     0.5829606252
   11      H      -0.5776676597    -2.2286857234    -0.0719732669
 ----------------------------------------------------------------
 Nuclear Repulsion Energy =   293.8088012482 hartrees
 There are       29 alpha and       29 beta electrons

                       Distance Matrix (Angstroms)
             Cl(  1)   Cl(  2)   C (  3)   C (  4)   C (  5)   H (  6)
   Cl(  2)  3.342443
   C (  3)  1.500000  2.824725
   C (  4)  2.573895  1.816362  1.553943
   C (  5)  2.561903  3.280523  1.552206  2.540079
   H (  6)  2.168815  3.706346  1.107252  2.065921  2.122053
   H (  7)  3.499025  2.371541  2.186344  1.090487  2.732733  2.351019
   H (  8)  2.800516  2.362838  2.187242  1.091450  3.492958  2.424283
   H (  9)  2.840120  2.923642  2.185048  2.849817  1.093028  3.044887
   H ( 10)  2.800877  4.299374  2.179849  3.487596  1.093548  2.472923
   H ( 11)  3.499919  3.564322  2.195834  2.726471  1.093789  2.425537
             H (  7)   H (  8)   H (  9)   H ( 10)
   H (  8)  1.784334
   H (  9)  3.159124  3.851043
   H ( 10)  3.708880  4.326552  1.774216
   H ( 11)  2.464057  3.727518  1.778639  1.775939
 
 Applying Cartesian multipole field
    Component          Value
    ---------          -----
     (2,0,0)        1.00000E-11
     (0,2,0)        2.00000E-11
     (0,0,2)       -3.00000E-10
 Nucleus-field energy     =    -0.0000000154 hartrees
 Requested basis set is 6-31G(d,p)
 There are 40 shells and 113 basis functions
 A cutoff of  1.0D-14 yielded    795 shell pairs
 There are      6496 function pairs
 Smallest overlap matrix eigenvalue = 5.36E-03
 Guess from superposition of atomic densities
 Warning:  Energy on first SCF cycle will be non-variational
 SAD guess density has 58.000000 electrons

 -----------------------------------------------------------------------
  General SCF calculation program by
  Eric Jon Sundstrom, Paul Horn, Yuezhi Mao, Dmitri Zuev, Alec White,
  David Stuck, Shaama M.S., Shane Yost, Joonho Lee, David Small,
  Daniel Levine, Susi Lehtola, Hugh Burton, Evgeny Epifanovsky
 -----------------------------------------------------------------------
 Exchange:     0.2000 Hartree-Fock + 0.0800 Slater + 0.7200 B88
 Correlation:  0.1900 VWN1RPA + 0.8100 LYP
 Using SG-1 standard quadrature grid
 using 12 threads for integral computing
 -------------------------------------------------------
 OpenMP Integral computing Module                
 Release: version 1.0, May 2013, Q-Chem Inc. Pittsburgh 
 -------------------------------------------------------
 -------------------------------------------------------
 OpenMP BLAS3 based DFT computing Module                
 Release: version 1.0, May 2013, Q-Chem Inc. Pittsburgh 
 -------------------------------------------------------
 A unrestricted SCF calculation will be
 performed using DIIS
 SCF converges when DIIS error is below 1.0e-06
 Alpha HF Exchange    Energy =  -7.33600267140016
 Beta HF Exchange     Energy =  -7.33600267140016
 DFT Correlation      Energy =  -2.78103559712440
 DFT Exchange         Energy = -57.45587222544839
 One-Electron (alpha) Energy = -1004.74161003426264
 One-Electron (beta)  Energy = -1004.74161003426264
 Total Coulomb        Energy = 751.30821791687254
 ---------------------------------------
  Cycle       Energy         DIIS error
 ---------------------------------------
    1   -1039.2751140842      3.27e-02  
 Alpha HF Exchange    Energy =  -7.31092485287681
 Beta HF Exchange     Energy =  -7.31092485287680
 DFT Correlation      Energy =  -2.80400876242252
 DFT Exchange         Energy = -57.99910265708292
 One-Electron (alpha) Energy = -1008.12548892781319
 One-Electron (beta)  Energy = -1008.12548892781274
 Total Coulomb        Energy = 759.63687768091859
    2   -1038.2302600671      2.82e-03  
 Alpha HF Exchange    Energy =  -7.26464025520681
 Beta HF Exchange     Energy =  -7.26464025520681
 DFT Correlation      Energy =  -2.78356196734905
 DFT Exchange         Energy = -57.60720684742243
 One-Electron (alpha) Energy = -1004.76642395982117
 One-Electron (beta)  Energy = -1004.76642395982140
 Total Coulomb        Energy = 752.42222554278430
    3   -1038.2218704692      3.07e-03  
 Alpha HF Exchange    Energy =  -7.28461690171705
 Beta HF Exchange     Energy =  -7.28461690171705
 DFT Correlation      Energy =  -2.79368093768517
 DFT Exchange         Energy = -57.77751202933014
 One-Electron (alpha) Energy = -1006.41855455514587
 One-Electron (beta)  Energy = -1006.41855455514633
 Total Coulomb        Energy = 755.88451457178303
    4   -1038.2842200761      3.64e-04  
 Alpha HF Exchange    Energy =  -7.28618598043104
 Beta HF Exchange     Energy =  -7.28618598043104
 DFT Correlation      Energy =  -2.79367402989132
 DFT Exchange         Energy = -57.78860836782532
 One-Electron (alpha) Energy = -1006.44639085243489
 One-Electron (beta)  Energy = -1006.44639085243500
 Total Coulomb        Energy = 755.95364828234926
    5   -1038.2849865482      1.27e-04  
 Alpha HF Exchange    Energy =  -7.28593149923667
 Beta HF Exchange     Energy =  -7.28593149923667
 DFT Correlation      Energy =  -2.79370311915488
 DFT Exchange         Energy = -57.78699463374581
 One-Electron (alpha) Energy = -1006.44596615411331
 One-Electron (beta)  Energy = -1006.44596615411319
 Total Coulomb        Energy = 755.95061371735005
    6   -1038.2850781094      4.50e-05  
 Alpha HF Exchange    Energy =  -7.28581641971553
 Beta HF Exchange     Energy =  -7.28581641971552
 DFT Correlation      Energy =  -2.79364602503779
 DFT Exchange         Energy = -57.78594166249679
 One-Electron (alpha) Energy = -1006.43368366152561
 One-Electron (beta)  Energy = -1006.43368366152561
 Total Coulomb        Energy = 755.92469591340455
    7   -1038.2850907038      6.73e-06  
 Alpha HF Exchange    Energy =  -7.28585425125215
 Beta HF Exchange     Energy =  -7.28585425125215
 DFT Correlation      Energy =  -2.79366002934671
 DFT Exchange         Energy = -57.78624941044586
 One-Electron (alpha) Energy = -1006.43733254451138
 One-Electron (beta)  Energy = -1006.43733254451172
 Total Coulomb        Energy = 755.93239083292553
    8   -1038.2850909655      1.98e-06  
 Alpha HF Exchange    Energy =  -7.28585338103834
 Beta HF Exchange     Energy =  -7.28585338103834
 DFT Correlation      Energy =  -2.79365948610457
 DFT Exchange         Energy = -57.78623987978332
 One-Electron (alpha) Energy = -1006.43728348580066
 One-Electron (beta)  Energy = -1006.43728348580044
 Total Coulomb        Energy = 755.93228087851151
    9   -1038.2850909882      5.04e-07  Convergence criterion met
 ---------------------------------------
 SCF time:   CPU 22.94s  wall 1.00s 
<S^2> =         -0.000000000
 Alpha HF Exchange    Energy =  -7.28585338103834
 Beta HF Exchange     Energy =  -7.28585338103834
 DFT Correlation      Energy =  -2.79365948610457
 DFT Exchange         Energy = -57.78623987978332
 One-Electron (alpha) Energy = -1006.43728348580066
 One-Electron (beta)  Energy = -1006.43728348580044
 Total Coulomb        Energy = 755.93228087851151
 Nuclear repulsion Energy = 293.80880123285488
 SCF   energy in the final basis set =    -1038.2850909882
 Total energy in the final basis set =    -1038.2850909882
 
 --------------------------------------------------------------
 
                    Orbital Energies (a.u.)
 --------------------------------------------------------------
 
 Alpha MOs
 -- Occupied --
*******-101.535 -10.254 -10.252 -10.191  -9.469  -9.451  -7.232
 -7.222  -7.222  -7.215  -7.205  -7.205  -0.959  -0.847  -0.746
 -0.692  -0.588  -0.509  -0.484  -0.471  -0.420  -0.408  -0.387
 -0.383  -0.312  -0.297  -0.289  -0.286
 -- Virtual --
  0.025   0.070   0.114   0.127   0.134   0.145   0.158   0.173
  0.194   0.199   0.346   0.391   0.423   0.432   0.456   0.459
  0.467   0.509   0.519   0.542   0.545   0.566   0.636   0.651
  0.671   0.704   0.753   0.800   0.818   0.839   0.859   0.862
  0.868   0.888   0.900   0.912   0.935   0.957   0.987   1.030
  1.049   1.105   1.162   1.294   1.376   1.428   1.465   1.570
  1.581   1.769   1.801   1.842   1.872   1.911   2.036   2.063
  2.078   2.092   2.112   2.201   2.247   2.296   2.366   2.374
  2.507   2.594   2.607   2.634   2.659   2.737   2.807   2.869
  2.906   3.188   3.237   3.307   3.407   3.436   3.473   4.185
  4.299   4.347   4.458   4.596
 
 Beta MOs
 -- Occupied --
*******-101.535 -10.254 -10.252 -10.191  -9.469  -9.451  -7.232
 -7.222  -7.222  -7.215  -7.205  -7.205  -0.959  -0.847  -0.746
 -0.692  -0.588  -0.509  -0.484  -0.471  -0.420  -0.408  -0.387
 -0.383  -0.312  -0.297  -0.289  -0.286
 -- Virtual --
  0.025   0.070   0.114   0.127   0.134   0.145   0.158   0.173
  0.194   0.199   0.346   0.391   0.423   0.432   0.456   0.459
  0.467   0.509   0.519   0.542   0.545   0.566   0.636   0.651
  0.671   0.704   0.753   0.800   0.818   0.839   0.859   0.862
  0.868   0.888   0.900   0.912   0.935   0.957   0.987   1.030
  1.049   1.105   1.162   1.294   1.376   1.428   1.465   1.570
  1.581   1.769   1.801   1.842   1.872   1.911   2.036   2.063
  2.078   2.092   2.112   2.201   2.247   2.296   2.366   2.374
  2.507   2.594   2.607   2.634   2.659   2.737   2.807   2.869
  2.906   3.188   3.237   3.307   3.407   3.436   3.473   4.185
  4.299   4.347   4.458   4.596
 --------------------------------------------------------------
 
          Ground-State Mulliken Net Atomic Charges

     Atom                 Charge (a.u.)    Spin (a.u.)
  --------------------------------------------------------
      1 Cl                    0.053132      -0.000000
      2 Cl                   -0.088059      -0.000000
      3 C                    -0.197645      -0.000000
      4 C                    -0.275611      -0.000000
      5 C                    -0.313916       0.000000
      6 H                     0.137185      -0.000000
      7 H                     0.155207       0.000000
      8 H                     0.160504       0.000000
      9 H                     0.142181      -0.000000
     10 H                     0.118785      -0.000000
     11 H                     0.108237       0.000000
  --------------------------------------------------------
  Sum of atomic charges =    -0.000000
  Sum of spin   charges =    -0.000000

 -----------------------------------------------------------------
                    Cartesian Multipole Moments
 -----------------------------------------------------------------
    Charge (ESU x 10^10)
                 0.0000
    Dipole Moment (Debye)
         X      -1.0729      Y      -1.2840      Z      -1.8711
       Tot       2.5101
    Quadrupole Moments (Debye-Ang)
        XX     -47.8095     XY       0.7325     YY     -44.6329
        XZ      -1.4100     YZ      -0.0700     ZZ     -42.8878
    Octopole Moments (Debye-Ang^2)
       XXX     -20.8392    XXY      -7.7036    XYY      -4.8124
       YYY     -18.7072    XXZ      -5.6366    XYZ      -0.1412
       YYZ      -5.0549    XZZ      -3.0056    YZZ      -6.0389
       ZZZ     -14.1923
    Hexadecapole Moments (Debye-Ang^3)
      XXXX    -556.0315   XXXY      12.0232   XXYY    -133.6210
      XYYY       5.0540   YYYY    -253.4881   XXXZ     -15.9538
      XXYZ       1.7469   XYYZ     -10.1611   YYYZ       4.6996
      XXZZ    -108.8832   XYZZ       3.6334   YYZZ     -65.5037
      XZZZ     -15.3291   YZZZ      -0.2656   ZZZZ    -139.4698
 -----------------------------------------------------------------
 Calculating analytic gradient of the SCF energy
 Gradient of SCF Energy
            1           2           3           4           5           6
    1   0.0867606   0.0000311  -0.0866877  -0.0001316   0.0000269  -0.0000386
    2  -0.2070712   0.0000212   0.2071349  -0.0000555   0.0000003   0.0000305
    3  -0.0970326   0.0000517   0.0971332  -0.0001124  -0.0000411  -0.0000048
            7           8           9          10          11
    1   0.0000674   0.0000298  -0.0000365  -0.0000204  -0.0000009
    2   0.0000345   0.0000185   0.0000275  -0.0000913  -0.0000494
    3   0.0000479  -0.0000337  -0.0000134  -0.0000506   0.0000559
 Max gradient component =       2.071E-01
 RMS gradient           =       6.022E-02
 Gradient time:  CPU 9.44 s  wall 0.79 s
 Geometry Optimization Parameters
   NAtoms,    NIC,     NZ,  NCons,   NDum,   NFix, NCnnct, MaxDiis
       11      68       0       1       0       0       0       0

 Cartesian Hessian Update
 Hessian Updated using BFGS Update


** CONSTRAINED OPTIMIZATION IN DELOCALIZED INTERNAL COORDINATES **
   Searching for a Minimum

   Optimization Cycle:  15

                       Coordinates (Angstroms)
     ATOM                X               Y               Z
      1  Cl       -1.1932408649    1.2077384525    0.1760070650
      2  Cl        1.9581529421    0.1816599675    0.6093749356
      3  C        -0.6612632587   -0.0621177081   -0.4193634201
      4  C         0.8423636390   -0.0211334375   -0.8094482077
      5  C        -0.9478702881   -1.3297753064    0.4293086080
      6  H        -1.1195833197   -0.2757010714   -1.4044172660
      7  H         1.1305661782   -0.9494765350   -1.3036956243
      8  H         1.0395537467    0.8247157539   -1.4704468368
      9  H        -0.4653177884   -1.2463030560    1.4064913880
     10  H        -2.0253933264   -1.4355213361    0.5829606252
     11  H        -0.5776676597   -2.2286857234   -0.0719732669
   Point Group: c1    Number of degrees of freedom:    27


   Energy is  -1038.285090988

              Constraints and their Current Values
                                        Value     Constraint
   Distance(Angs):        1   3             1.500000     1.500000
 Hessian Updated using BFGS Update

 26 Hessian modes will be used to form the next step
  Hessian Eigenvalues:
     0.004748    0.028065    0.067778    0.157486    0.183561    0.192243
     0.197705    0.201881    0.236022    0.267902    0.377040    0.380613
     0.380642    0.383637    0.445910    0.522881    0.543178    0.594903
     0.675331    0.699685    0.806310    0.812366    0.819846    0.821687
     0.823635    0.829080

 Minimum Search - Taking Simple RFO Step
 Searching for Lamda that Minimizes Along All modes
 Value Taken    Lamda =   0.00000000
 Step Taken.  Stepsize is  0.003728

                             Maximum     Tolerance    Cnvgd?
         Gradient           0.000112      0.000300     YES
         Displacement       0.001860      0.001200      NO
         Energy change     -0.000000      0.000001     YES


                       Distance Matrix (Angstroms)
             Cl(  1)   Cl(  2)   C (  3)   C (  4)   C (  5)   H (  6)
   Cl(  2)  3.342443
   C (  3)  1.500000  2.824725
   C (  4)  2.573895  1.816362  1.553943
   C (  5)  2.561903  3.280523  1.552206  2.540079
   H (  6)  2.168815  3.706346  1.107252  2.065921  2.122053
   H (  7)  3.499025  2.371541  2.186344  1.090487  2.732733  2.351019
   H (  8)  2.800516  2.362838  2.187242  1.091450  3.492958  2.424283
   H (  9)  2.840120  2.923642  2.185048  2.849817  1.093028  3.044887
   H ( 10)  2.800877  4.299374  2.179849  3.487596  1.093548  2.472923
   H ( 11)  3.499919  3.564322  2.195834  2.726471  1.093789  2.425537
             H (  7)   H (  8)   H (  9)   H ( 10)
   H (  8)  1.784334
   H (  9)  3.159124  3.851043
   H ( 10)  3.708880  4.326552  1.774216
   H ( 11)  2.464057  3.727518  1.778639  1.775939
 
 Final energy is   -1038.28509098820     


 ******************************
 **  OPTIMIZATION CONVERGED  **
 ******************************

                       Coordinates (Angstroms)
     ATOM                X               Y               Z
      1  Cl       -1.1932408649    1.2077384525    0.1760070650
      2  Cl        1.9581529421    0.1816599675    0.6093749356
      3  C        -0.6612632587   -0.0621177081   -0.4193634201
      4  C         0.8423636390   -0.0211334375   -0.8094482077
      5  C        -0.9478702881   -1.3297753064    0.4293086080
      6  H        -1.1195833197   -0.2757010714   -1.4044172660
      7  H         1.1305661782   -0.9494765350   -1.3036956243
      8  H         1.0395537467    0.8247157539   -1.4704468368
      9  H        -0.4653177884   -1.2463030560    1.4064913880
     10  H        -2.0253933264   -1.4355213361    0.5829606252
     11  H        -0.5776676597   -2.2286857234   -0.0719732669

Z-matrix Print:
$molecule
0 1
Cl
C  1 1.500000
H  2 1.107252 1 111.691533
C  2 1.552206 1 114.134520 3 -118.420133 0
H  4 1.093028 2 110.176823 1 -61.862569 0
H  4 1.093548 2 109.738948 1 57.505362 0
H  4 1.093789 2 110.983815 1 177.502145 0
C  2 1.553943 1 114.864717 3 113.613477 0
H  8 1.090487 2 110.307154 1 -175.590987 0
H  8 1.091450 2 110.321305 1 -54.204471 0
Cl 8 1.816362 2 113.657307 1 64.679879 0
$end

PES scan, value:    1.5000 energy: -1038.2850909882
------- Summary of potential scan: ------ 
    1.5000     -1038.2850909882
----------------------------------------- 
Archival summary:
1\1\hpc0332\JobtypUnspecified\ProcedureUnspecified\6-31G**\l236\knomura\TueMar1201:44:082019TueMar1201:44:082019\0\\#,JobtypUnspecified,ProcedureUnspecified,6-31G**,\\0,1\Cl\C,1,1.5\H,2,1.10725,1,111.692\C,2,1.55221,1,114.135,3,-118.42,0\H,4,1.09303,2,110.177,1,-61.8626,0\H,4,1.09355,2,109.739,1,57.5054,0\H,4,1.09379,2,110.984,1,177.502,0\C,2,1.55394,1,114.865,3,113.613,0\H,8,1.09049,2,110.307,1,-175.591,0\H,8,1.09145,2,110.321,1,-54.2045,0\Cl,8,1.81636,2,113.657,1,64.6799,0\\\@

 Total job time:  48.88s(wall), 565.06s(cpu) 
 Tue Mar 12 01:44:08 2019

        *************************************************************
        *                                                           *
        *  Thank you very much for using Q-Chem.  Have a nice day.  *
        *                                                           *
        *************************************************************


