
Running Job 1 of 1 ruruma/CH3CHClCH2Cl_afterGeo_middle_singlet.xyz.data/inputs/bond_triplet_4.0.in
qchem ruruma/CH3CHClCH2Cl_afterGeo_middle_singlet.xyz.data/inputs/bond_triplet_4.0.in_27811.0 /staging/scratch/2858534/qchem27811/ 1
/usr/usc/qchem/5.1.1/exe/qcprog.exe_s ruruma/CH3CHClCH2Cl_afterGeo_middle_singlet.xyz.data/inputs/bond_triplet_4.0.in_27811.0 /staging/scratch/2858534/qchem27811/
Check license passed

                  Welcome to Q-Chem
     A Quantum Leap Into The Future Of Chemistry


 Q-Chem 5.1, Q-Chem, Inc., Pleasanton, CA (2018)

 Yihan Shao,  Zhengting Gan,  E. Epifanovsky,  A. T. B. Gilbert,  M. Wormit,  
 J. Kussmann,  A. W. Lange,  A. Behn,  Jia Deng,  Xintian Feng,  D. Ghosh,  
 M. Goldey,  P. R. Horn,  L. D. Jacobson,  I. Kaliman,  T. Kus,  A. Landau,  
 Jie Liu,  E. I. Proynov,  R. M. Richard,  R. P. Steele,  E. J. Sundstrom,  
 H. L. Woodcock III,  P. M. Zimmerman,  D. Zuev,  B. Albrecht,  E. Alguire,  
 S. A. Baeppler,  D. Barton,  Z. Benda,  Y. A. Bernard,  E. J. Berquist,  
 K. B. Bravaya,  H. Burton,  D. Casanova,  Chun-Min Chang,  Yunqing Chen,  
 A. Chien,  K. D. Closser,  M. P. Coons,  S. Coriani,  S. Dasgupta,  
 A. L. Dempwolff,  M. Diedenhofen,  Hainam Do,  R. G. Edgar,  Po-Tung Fang,  
 S. Faraji,  S. Fatehi,  Qingguo Feng,  K. D. Fenk,  J. Fosso-Tande,  
 Qinghui Ge,  A. Ghysels,  G. Gidofalvi,  J. Gomes,  J. Gonthier,  A. Gunina,  
 D. Hait,  M. W. D. Hanson-Heine,  P. H. P. Harbach,  A. W. Hauser,  
 J. E. Herr,  E. G. Hohenstein,  Z. C. Holden,  Kerwin Hui,  B. C. Huynh,  
 T.-C. Jagau,  Hyunjun Ji,  B. Kaduk,  K. Khistyaev,  Jaehoon Kim,  
 P. Klunzinger,  K. Koh,  D. Kosenkov,  L. Koulias,  T. Kowalczyk,  
 C. M. Krauter,  A. Kunitsa,  Ka Un Lao,  A. Laurent,  K. V. Lawler,  
 Joonho Lee,  D. Lefrancois,  S. Lehtola,  D. S. Levine,  Yi-Pei Li,  
 You-Sheng Lin,  Fenglai Liu,  E. Livshits,  A. Luenser,  P. Manohar,  
 E. Mansoor,  S. F. Manzer,  Shan-Ping Mao,  Yuezhi Mao,  N. Mardirossian,  
 A. V. Marenich,  T. Markovich,  L. A. Martinez-Martinez,  S. A. Maurer,  
 N. J. Mayhall,  S. C. McKenzie,  J.-M. Mewes,  A. F. Morrison,  
 J. W. Mullinax,  K. Nanda,  T. S. Nguyen-Beck,  R. Olivares-Amaya,  
 J. A. Parkhill,  T. M. Perrine,  F. Plasser,  P. Pokhilko,  S. Prager,  
 A. Prociuk,  E. Ramos,  D. R. Rehn,  F. Rob,  M. Schneider,  N. Sergueev,  
 S. M. Sharada,  S. Sharma,  D. W. Small,  T. Stauch,  T. Stein,  
 Yu-Chuan Su,  A. J. W. Thom,  A. Tkatchenko,  T. Tsuchimochi,  N. M. Tubman,  
 L. Vogt,  M. L. Vidal,  O. Vydrov,  M. A. Watson,  J. Wenzel,  
 M. de Wergifosse,  T. A. Wesolowski,  A. White,  J. Witte,  A. Yamada,  
 Jun Yang,  K. Yao,  S. Yeganeh,  S. R. Yost,  Zhi-Qiang You,  A. Zech,  
 Igor Ying Zhang,  Xing Zhang,  Yan Zhao,  Ying Zhu,  B. R. Brooks,  
 G. K. L. Chan,  C. J. Cramer,  M. S. Gordon,  W. J. Hehre,  A. Klamt,  
 M. W. Schmidt,  C. D. Sherrill,  D. G. Truhlar,  A. Aspuru-Guzik,  R. Baer,  
 A. T. Bell,  N. A. Besley,  Jeng-Da Chai,  A. E. DePrince, III,  
 R. A. DiStasio Jr.,  A. Dreuw,  B. D. Dunietz,  T. R. Furlani,  
 Chao-Ping Hsu,  Yousung Jung,  Jing Kong,  D. S. Lambrecht,  WanZhen Liang,  
 C. Ochsenfeld,  V. A. Rassolov,  L. V. Slipchenko,  J. E. Subotnik,  
 T. Van Voorhis,  J. M. Herbert,  A. I. Krylov,  P. M. W. Gill,  M. Head-Gordon

 Contributors to earlier versions of Q-Chem not listed above: 
 R. D. Adamson,  B. Austin,  J. Baker,  G. J. O. Beran,  K. Brandhorst,  
 S. T. Brown,  E. F. C. Byrd,  A. K. Chakraborty,  C.-L. Cheng,  
 Siu Hung Chien,  D. M. Chipman,  D. L. Crittenden,  H. Dachsel,  
 R. J. Doerksen,  A. D. Dutoi,  L. Fusti-Molnar,  W. A. Goddard III,  
 A. Golubeva-Zadorozhnaya,  S. R. Gwaltney,  G. Hawkins,  A. Heyden,  
 S. Hirata,  G. Kedziora,  F. J. Keil,  C. Kelley,  Jihan Kim,  R. A. King,  
 R. Z. Khaliullin,  P. P. Korambath,  W. Kurlancheek,  A. M. Lee,  M. S. Lee,  
 S. V. Levchenko,  Ching Yeh Lin,  D. Liotard,  R. C. Lochan,  I. Lotan,  
 P. E. Maslen,  N. Nair,  D. P. O'Neill,  D. Neuhauser,  E. Neuscamman,  
 C. M. Oana,  R. Olson,  B. Peters,  R. Peverati,  P. A. Pieniazek,  
 Y. M. Rhee,  J. Ritchie,  M. A. Rohrdanz,  E. Rosta,  N. J. Russ,  
 H. F. Schaefer III,  N. E. Schultz,  N. Shenvi,  A. C. Simmonett,  A. Sodt,  
 D. Stuck,  K. S. Thanthiriwatte,  V. Vanovschi,  Tao Wang,  A. Warshel,  
 C. F. Williams,  Q. Wu,  X. Xu,  W. Zhang

 Please cite Q-Chem as follows:
 Y. Shao et al., Mol. Phys. 113, 184-215 (2015)
 DOI: 10.1080/00268976.2014.952696

 Q-Chem 5.1.1 for Intel X86 EM64T Linux

 Parts of Q-Chem use Armadillo 8.300.2 (Tropical Shenanigans).
 http://arma.sourceforge.net/

 Q-Chem begins on Tue Mar 12 03:19:27 2019  

Host: 
0

     Scratch files written to /staging/scratch/2858534/qchem27811//
 Aug318 |scratch|qcdevops|jenkins|workspace|build_RNUM 6013   
Processing $rem in /usr/usc/qchem/5.1.1/config/preferences.
 MEM_TOTAL  2000 
Input Ideriv = 2
Curr. Ideriv = -1
Max.  Ideriv = 2

Checking the input file for inconsistencies... 	...done.

--------------------------------------------------------------
User input:
--------------------------------------------------------------

$comment
potential surface scanner
$end

$rem
JOBTYPE  PES_SCAN
UNRESTRICTED TRUE
SYM_IGNORE  TRUE
GEOM_OPT_MAX_CYCLES 400
SCF_MAX_CYCLES 400
METHOD   B3LYP
BASIS   6-31G**
PDB_PRINT 2
SCF_CONVERGENCE 6
THRESH 14
SCF_PRINT 1
$end
$molecule
0 3
Cl -0.484841 3.329997 -0.529803
Cl 1.264606 1.258175 0.006351
C -0.739598 -0.747693 -0.186943
C 0.131903 -0.023569 -1.064756
C -0.346098 -1.997972 0.515584
H -1.676574 -0.272256 0.092404
H 0.917145 -0.601839 -1.547558
H -0.343373 0.701526 -1.719108
H -0.089794 -1.788382 1.565765
H -1.174674 -2.715489 0.540239
H 0.521594 -2.477096 0.052629
$end
$scan
stre 1 3 4.000000 4.001000 0.100000
$end
--------------------------------------------------------------
 ----------------------------------------------------------------
             Standard Nuclear Orientation (Angstroms)
    I     Atom           X                Y                Z
 ----------------------------------------------------------------
    1      Cl     -0.4848410000     3.3299970000    -0.5298030000
    2      Cl      1.2646060000     1.2581750000     0.0063510000
    3      C      -0.7395980000    -0.7476930000    -0.1869430000
    4      C       0.1319030000    -0.0235690000    -1.0647560000
    5      C      -0.3460980000    -1.9979720000     0.5155840000
    6      H      -1.6765740000    -0.2722560000     0.0924040000
    7      H       0.9171450000    -0.6018390000    -1.5475580000
    8      H      -0.3433730000     0.7015260000    -1.7191080000
    9      H      -0.0897940000    -1.7883820000     1.5657650000
   10      H      -1.1746740000    -2.7154890000     0.5402390000
   11      H       0.5215940000    -2.4770960000     0.0526290000
 ----------------------------------------------------------------
 Nuclear Repulsion Energy =   252.9315519254 hartrees
 There are       30 alpha and       28 beta electrons
 Requested basis set is 6-31G(d,p)
 There are 40 shells and 113 basis functions

 Total QAlloc Memory Limit   2000 MB
 Mega-Array Size       188 MB
 MEM_STATIC part       192 MB
A total of 1 constraints
  
            1
    1   1.0100000
    2   1.0100000
    3   3.0100000
    4   4.0000000
    5   4.0010000
    6   0.1000000
    7   0.0000000
    8   0.0000000
    9   0.0000000
   10   0.0000000

                       Distance Matrix (Angstroms)
             Cl(  1)   Cl(  2)   C (  3)   C (  4)   C (  5)   H (  6)
   Cl(  2)  2.764140
   C (  3)  4.100001  2.842130
   C (  4)  3.451515  2.018206  1.433327
   C (  5)  5.431329  3.668266  1.487140  2.573757
   H (  6)  3.844944  3.316650  1.087198  2.161355  2.219762
   H (  7)  4.296595  2.448472  2.148801  1.088163  2.793121  3.086337
   H (  8)  2.888480  2.423358  2.145870  1.086198  3.504446  2.450970
   H (  9)  5.544842  3.680717  2.139454  3.175430  1.101136  2.643350
   H ( 10)  6.178087  4.693094  2.142500  3.395524  1.096347  2.534136
   H ( 11)  5.922370  3.808734  2.153795  2.724005  1.093973  3.113654
             H (  7)   H (  8)   H (  9)   H ( 10)
   H (  8)  1.821289
   H (  9)  3.480602  4.129689
   H ( 10)  3.633472  4.179916  1.757326
   H ( 11)  2.496727  3.740435  1.771356  1.780988
 
 A cutoff of  1.0D-14 yielded    750 shell pairs
 There are      6102 function pairs
 
 -------------------------------------------------------
 OpenMP Integral Computing Module                       
 Release: version 1.0, May 2013, Q-Chem Inc. Pittsburgh 
 -------------------------------------------------------
 Integral Job Info:
 Integral job number is                      11
 Integral operator is                         1
 short-range coefficients                     0
 long-range coefficients              100000000
 Omega coefficients                           0
 if combine SR and LR in K                    0
 Integral screening is                        0
 Integral computing path is                   2
 max size of driver memory is            800000
 size of driver memory is                593474
 size of scratch memory is             15267112
 max col of scratch BK array               1296
 max len of scratch array in speh3          155
 max len of scratch index in speh4           18
 max int batch size is                      520
 min int batch size is                       52
 fixed nKL is                                52
 max L of basis functions is                  2
 order of int derivative is                   0
 number of shells is                         40
 number of basis is                         113
 number of cartesian basis is               113
 number of contracted shell pairs           750
 number of primitive shell pairs           3011
 maxK2 (contraction) of shell pair           36
 max number of K2 of shell pair               1
 max number of CS2 of shell pair             60
 max number of PS2 of shell pair            300
 mem total for path MDJ                  516588
 -------------------------------------------------------
 Smallest overlap matrix eigenvalue = 5.71E-03

 Scale SEOQF with 1.000000e-01/1.000000e-01/1.000000e-01

 Standard Electronic Orientation quadrupole field applied
 Nucleus-field energy     =     0.0000000177 hartrees
 Guess from superposition of atomic densities
 Warning:  Energy on first SCF cycle will be non-variational
 SAD guess density has 58.000000 electrons

 -----------------------------------------------------------------------
  General SCF calculation program by
  Eric Jon Sundstrom, Paul Horn, Yuezhi Mao, Dmitri Zuev, Alec White,
  David Stuck, Shaama M.S., Shane Yost, Joonho Lee, David Small,
  Daniel Levine, Susi Lehtola, Hugh Burton, Evgeny Epifanovsky
 -----------------------------------------------------------------------
 Exchange:     0.2000 Hartree-Fock + 0.0800 Slater + 0.7200 B88
 Correlation:  0.1900 VWN1RPA + 0.8100 LYP
 Using SG-1 standard quadrature grid
 using 12 threads for integral computing
 -------------------------------------------------------
 OpenMP Integral computing Module                
 Release: version 1.0, May 2013, Q-Chem Inc. Pittsburgh 
 -------------------------------------------------------
 -------------------------------------------------------
 OpenMP BLAS3 based DFT computing Module                
 Release: version 1.0, May 2013, Q-Chem Inc. Pittsburgh 
 -------------------------------------------------------
 A unrestricted SCF calculation will be
 performed using DIIS
 SCF converges when DIIS error is below 1.0e-06
 Alpha HF Exchange    Energy =  -7.26224974236834
 Beta HF Exchange     Energy =  -7.26224974236834
 DFT Correlation      Energy =  -2.75544986399913
 DFT Exchange         Energy = -57.31243246061781
 One-Electron (alpha) Energy = -964.05218015892126
 One-Electron (beta)  Energy = -964.05218015892126
 Total Coulomb        Energy = 711.20964023264457
 ---------------------------------------
  Cycle       Energy         DIIS error
 ---------------------------------------
    1   -1038.5555499515      2.60e-02  
 Alpha HF Exchange    Energy =  -7.39608268738882
 Beta HF Exchange     Energy =  -7.17171806268535
 DFT Correlation      Energy =  -2.77433029485918
 DFT Exchange         Energy = -57.83314062979665
 One-Electron (alpha) Energy = -983.45049725694525
 One-Electron (beta)  Energy = -950.71919399900457
 Total Coulomb        Energy = 718.25565183980916
    2   -1038.1577591478      3.01e-03  
 Alpha HF Exchange    Energy =  -7.35306229203387
 Beta HF Exchange     Energy =  -7.14146640558775
 DFT Correlation      Energy =  -2.75305161375995
 DFT Exchange         Energy = -57.48949664640151
 One-Electron (alpha) Energy = -981.02914766673382
 One-Electron (beta)  Energy = -948.87195973698897
 Total Coulomb        Energy = 713.58347885285559
    3   -1038.1231535655      3.79e-03  
 Alpha HF Exchange    Energy =  -7.36975399088229
 Beta HF Exchange     Energy =  -7.14552094316593
 DFT Correlation      Energy =  -2.76136140252618
 DFT Exchange         Energy = -57.59682682909325
 One-Electron (alpha) Energy = -981.74887034460107
 One-Electron (beta)  Energy = -949.07901758969149
 Total Coulomb        Energy = 714.53779758227006
    4   -1038.2320015746      6.71e-04  
 Alpha HF Exchange    Energy =  -7.37607287191380
 Beta HF Exchange     Energy =  -7.15342672793124
 DFT Correlation      Energy =  -2.76255102415837
 DFT Exchange         Energy = -57.64761667560352
 One-Electron (alpha) Energy = -982.23742525296768
 One-Electron (beta)  Energy = -949.58391843220488
 Total Coulomb        Energy = 715.59438413934788
    5   -1038.2350749023      3.31e-04  
 Alpha HF Exchange    Energy =  -7.37581484753071
 Beta HF Exchange     Energy =  -7.15203246097409
 DFT Correlation      Energy =  -2.76216008734417
 DFT Exchange         Energy = -57.64124607053287
 One-Electron (alpha) Energy = -982.16369739253582
 One-Electron (beta)  Energy = -949.46920680380390
 Total Coulomb        Energy = 715.39659476628469
    6   -1038.2360109533      8.08e-05  
 Alpha HF Exchange    Energy =  -7.37551739713339
 Beta HF Exchange     Energy =  -7.15193942670299
 DFT Correlation      Energy =  -2.76196931380879
 DFT Exchange         Energy = -57.63881439841194
 One-Electron (alpha) Energy = -982.12830910699984
 One-Electron (beta)  Energy = -949.44658851832924
 Total Coulomb        Energy = 715.33551330784462
    7   -1038.2360729104      3.03e-05  
 Alpha HF Exchange    Energy =  -7.37571884336370
 Beta HF Exchange     Energy =  -7.15213437012268
 DFT Correlation      Energy =  -2.76195893532371
 DFT Exchange         Energy = -57.64018220745675
 One-Electron (alpha) Energy = -982.13975655287459
 One-Electron (beta)  Energy = -949.45775743836805
 Total Coulomb        Energy = 715.35987365460767
    8   -1038.2360827498      1.24e-05  
 Alpha HF Exchange    Energy =  -7.37574904412914
 Beta HF Exchange     Energy =  -7.15217219020658
 DFT Correlation      Energy =  -2.76194578826525
 DFT Exchange         Energy = -57.64033956209116
 One-Electron (alpha) Energy = -982.13784155224164
 One-Electron (beta)  Energy = -949.45970189455466
 Total Coulomb        Energy = 715.36011401449116
    9   -1038.2360840739      5.48e-06  
 Alpha HF Exchange    Energy =  -7.37572469528433
 Beta HF Exchange     Energy =  -7.15216995121579
 DFT Correlation      Energy =  -2.76193756032848
 DFT Exchange         Energy = -57.64022839304000
 One-Electron (alpha) Energy = -982.13574877942528
 One-Electron (beta)  Energy = -949.45898230312616
 Total Coulomb        Energy = 715.35715533799601
   10   -1038.2360844013      1.61e-06  
 Alpha HF Exchange    Energy =  -7.37573198822769
 Beta HF Exchange     Energy =  -7.15217556940307
 DFT Correlation      Energy =  -2.76193764290988
 DFT Exchange         Energy = -57.64027912540727
 One-Electron (alpha) Energy = -982.13606189208099
 One-Electron (beta)  Energy = -949.45973908590292
 Total Coulomb        Energy = 715.35828889240372
   11   -1038.2360844684      8.58e-07  Convergence criterion met
 ---------------------------------------
 SCF time:   CPU 29.58s  wall 2.00s 
<S^2> =          2.009716584
 Alpha HF Exchange    Energy =  -7.37573198822769
 Beta HF Exchange     Energy =  -7.15217556940307
 DFT Correlation      Energy =  -2.76193764290988
 DFT Exchange         Energy = -57.64027912540727
 One-Electron (alpha) Energy = -982.13606189208099
 One-Electron (beta)  Energy = -949.45973908590292
 Total Coulomb        Energy = 715.35828889240372
 Nuclear repulsion Energy = 252.93155194310063
 SCF   energy in the final basis set =    -1038.2360844684
 Total energy in the final basis set =    -1038.2360844684
 
 --------------------------------------------------------------
 
                    Orbital Energies (a.u.)
 --------------------------------------------------------------
 
 Alpha MOs
 -- Occupied --
*******-101.527 -10.268 -10.247 -10.214  -9.475  -9.439  -7.238
 -7.233  -7.228  -7.210  -7.193  -7.192  -0.864  -0.809  -0.775
 -0.720  -0.607  -0.510  -0.467  -0.455  -0.414  -0.410  -0.397
 -0.370  -0.328  -0.295  -0.290  -0.287  -0.243
 -- Virtual --
 -0.020   0.083   0.099   0.120   0.139   0.147   0.156   0.235
  0.287   0.354   0.384   0.409   0.439   0.449   0.469   0.494
  0.502   0.510   0.525   0.543   0.571   0.597   0.637   0.672
  0.696   0.718   0.767   0.815   0.826   0.836   0.848   0.867
  0.870   0.876   0.885   0.892   0.899   0.906   0.924   0.945
  1.003   1.054   1.137   1.245   1.271   1.361   1.418   1.492
  1.629   1.754   1.787   1.841   1.870   1.970   2.010   2.049
  2.072   2.083   2.139   2.239   2.318   2.320   2.397   2.405
  2.508   2.546   2.633   2.685   2.767   2.818   2.840   2.914
  3.142   3.240   3.372   3.385   3.422   3.490   4.132   4.234
  4.268   4.416   4.528
 
 Beta MOs
 -- Occupied --
*******-101.521 -10.268 -10.235 -10.215  -9.471  -9.434  -7.231
 -7.226  -7.225  -7.193  -7.189  -7.189  -0.845  -0.787  -0.736
 -0.713  -0.593  -0.505  -0.462  -0.437  -0.407  -0.395  -0.389
 -0.324  -0.318  -0.282  -0.277
 -- Virtual --
 -0.172  -0.125   0.009   0.086   0.101   0.124   0.145   0.154
  0.160   0.243   0.293   0.364   0.398   0.419   0.448   0.457
  0.473   0.510   0.511   0.524   0.537   0.576   0.580   0.616
  0.653   0.682   0.707   0.729   0.780   0.823   0.835   0.846
  0.872   0.884   0.893   0.896   0.906   0.913   0.915   0.921
  0.939   0.961   1.028   1.078   1.149   1.257   1.286   1.383
  1.424   1.492   1.634   1.772   1.794   1.857   1.881   1.991
  2.014   2.054   2.076   2.086   2.152   2.243   2.322   2.330
  2.405   2.416   2.518   2.557   2.637   2.693   2.770   2.823
  2.845   2.918   3.146   3.242   3.376   3.390   3.423   3.494
  4.149   4.249   4.281   4.417   4.539
 --------------------------------------------------------------
 
          Ground-State Mulliken Net Atomic Charges

     Atom                 Charge (a.u.)    Spin (a.u.)
  --------------------------------------------------------
      1 Cl                   -0.216617       0.763847
      2 Cl                   -0.058822       0.466354
      3 C                     0.004673       0.822071
      4 C                    -0.295137      -0.044743
      5 C                    -0.355761      -0.060921
      6 H                     0.138718      -0.036248
      7 H                     0.168759       0.004344
      8 H                     0.198893       0.008784
      9 H                     0.152858       0.050347
     10 H                     0.137442       0.022283
     11 H                     0.124994       0.003881
  --------------------------------------------------------
  Sum of atomic charges =    -0.000000
  Sum of spin   charges =     2.000000

 -----------------------------------------------------------------
                    Cartesian Multipole Moments
 -----------------------------------------------------------------
    Charge (ESU x 10^10)
                -0.0000
    Dipole Moment (Debye)
         X      -0.6893      Y      -5.1189      Z      -0.4027
       Tot       5.1808
    Quadrupole Moments (Debye-Ang)
        XX     -44.6166     XY       0.0744     YY     -54.5873
        XZ      -0.6211     YZ       0.6642     ZZ     -43.3815
    Octopole Moments (Debye-Ang^2)
       XXX     -13.8907    XXY     -41.2936    XYY      -3.8949
       YYY    -159.2501    XXZ      11.4239    XYZ       2.9549
       YYZ      17.1068    XZZ      -2.6636    YZZ     -41.8532
       ZZZ      31.9404
    Hexadecapole Moments (Debye-Ang^3)
      XXXX    -227.6570   XXXY     -21.4780   XXYY    -237.2800
      XYYY     -23.1608   YYYY   -1339.4672   XXXZ      -3.3337
      XXYZ      31.2088   XYYZ       2.2670   YYYZ     101.4497
      XXZZ     -62.4718   XYZZ      -8.9609   YYZZ    -236.8176
      XZZZ      -4.1353   YZZZ      91.0155   ZZZZ    -141.6180
 -----------------------------------------------------------------
 Calculating analytic gradient of the SCF energy
 Gradient of SCF Energy
            1           2           3           4           5           6
    1  -0.0000167   0.0000840  -0.0000046  -0.0000096  -0.0000164  -0.0000313
    2   0.0004851  -0.0000206  -0.0004223  -0.0000098  -0.0000269  -0.0000374
    3   0.0000532   0.0001162   0.0001274  -0.0000635  -0.0000114  -0.0000549
            7           8           9          10          11
    1   0.0000007  -0.0000183   0.0000289  -0.0000062  -0.0000107
    2   0.0000396   0.0000371  -0.0000298   0.0000013  -0.0000163
    3   0.0000033  -0.0000451  -0.0000381  -0.0000302  -0.0000571
 Max gradient component =       4.851E-04
 RMS gradient           =       1.203E-04
 Gradient time:  CPU 9.19 s  wall 0.82 s
 Geometry Optimization Parameters
   NAtoms,    NIC,     NZ,  NCons,   NDum,   NFix, NCnnct, MaxDiis
       11      71       0       1       0       0       0       0


** CONSTRAINED OPTIMIZATION IN DELOCALIZED INTERNAL COORDINATES **
   Searching for a Minimum

   Optimization Cycle:   1

                       Coordinates (Angstroms)
     ATOM                X               Y               Z
      1  Cl       -0.4848410000    3.3299970000   -0.5298030000
      2  Cl        1.2646060000    1.2581750000    0.0063510000
      3  C        -0.7395980000   -0.7476930000   -0.1869430000
      4  C         0.1319030000   -0.0235690000   -1.0647560000
      5  C        -0.3460980000   -1.9979720000    0.5155840000
      6  H        -1.6765740000   -0.2722560000    0.0924040000
      7  H         0.9171450000   -0.6018390000   -1.5475580000
      8  H        -0.3433730000    0.7015260000   -1.7191080000
      9  H        -0.0897940000   -1.7883820000    1.5657650000
     10  H        -1.1746740000   -2.7154890000    0.5402390000
     11  H         0.5215940000   -2.4770960000    0.0526290000
   Point Group: c1    Number of degrees of freedom:    27


   Energy is  -1038.236084468

              Constraints and their Current Values
                                        Value     Constraint
   Distance(Angs):        1   3             4.100001     4.000000

 Attempting to Generate Delocalized Internal Coordinates

   Using Lagrange Multiplier Algorithm


 28 Hessian modes will be used to form the next step
  Hessian Eigenvalues:
    -0.996414    0.033450    0.045000    0.045000    0.045299    0.063375
     0.074979    0.079471    0.092192    0.094452    0.098572    0.116626
     0.143157    0.148528    0.158608    0.160000    0.160000    0.160000
     0.220343    0.327233    0.335568    0.337649    0.340893    0.343575
     0.350258    0.351385    0.383806    1.003599

 Minimum Search - Taking P-RFO Step
 Searching for Lamda that Maximizes Along the Constraint modes Only
 Value Taken    Lamda =   0.01759516
 Searching for Lamda that Minimizes Along All other modes
 Value Taken    Lamda =  -0.01750102
 Step Taken.  Stepsize is  0.185724

                             Maximum     Tolerance    Cnvgd?
         Gradient            0.188975       0.000300      NO
         Displacement        0.185716       0.001200      NO
         Energy change     *********       0.000001      NO


 New Cartesian Coordinates Obtained by Inverse Iteration

 Displacement from previous Coordinates is:  0.249857
 ----------------------------------------------------------------
             Standard Nuclear Orientation (Angstroms)
    I     Atom           X                Y                Z
 ----------------------------------------------------------------
    1      Cl     -0.5227436611     3.2573520221    -0.4801463894
    2      Cl      1.2686903722     1.2233658140     0.0194116381
    3      C      -0.7275113010    -0.7293526838    -0.2007619911
    4      C       0.1407116830    -0.0331511057    -1.0795137370
    5      C      -0.3464753085    -1.9756209896     0.5156177114
    6      H      -1.6583524164    -0.2400421144     0.0751239575
    7      H       0.9285784745    -0.6025325805    -1.5685902852
    8      H      -0.3488529936     0.6753576405    -1.7260755910
    9      H      -0.0857064042    -1.7566355952     1.5627807442
   10      H      -1.1829092504    -2.6835548428     0.5503195208
   11      H       0.5148668057    -2.4697835648     0.0566384217
 ----------------------------------------------------------------
 Nuclear Repulsion Energy =   254.8883919485 hartrees
 There are       30 alpha and       28 beta electrons

                       Distance Matrix (Angstroms)
             Cl(  1)   Cl(  2)   C (  3)   C (  4)   C (  5)   H (  6)
   Cl(  2)  2.756065
   C (  3)  4.001725  2.801144
   C (  4)  3.409813  2.014648  1.417996
   C (  5)  5.329786  3.617803  1.487136  2.560270
   H (  6)  3.718830  3.272957  1.087200  2.147702  2.219750
   H (  7)  4.264945  2.443631  2.151667  1.088175  2.802687  3.086326
   H (  8)  2.872155  2.442025  2.107884  1.076894  3.471726  2.407710
   H (  9)  5.431816  3.618948  2.139464  3.162813  1.101138  2.643179
   H ( 10)  6.065645  4.642869  2.142526  3.381267  1.096356  2.534287
   H ( 11)  5.845071  3.769481  2.153801  2.714408  1.093969  3.113675
             H (  7)   H (  8)   H (  9)   H ( 10)
   H (  8)  1.813735
   H (  9)  3.488010  4.098831
   H ( 10)  3.644011  4.142453  1.757302
   H ( 11)  2.509811  3.716987  1.771365  1.780972
 
 Applying Cartesian multipole field
    Component          Value
    ---------          -----
     (2,0,0)        1.00000E-11
     (0,2,0)        2.00000E-11
     (0,0,2)       -3.00000E-11
 Nucleus-field energy     =     0.0000000171 hartrees
 Requested basis set is 6-31G(d,p)
 There are 40 shells and 113 basis functions
 A cutoff of  1.0D-14 yielded    751 shell pairs
 There are      6111 function pairs
 Smallest overlap matrix eigenvalue = 5.55E-03
 Guess from superposition of atomic densities
 Warning:  Energy on first SCF cycle will be non-variational
 SAD guess density has 58.000000 electrons

 -----------------------------------------------------------------------
  General SCF calculation program by
  Eric Jon Sundstrom, Paul Horn, Yuezhi Mao, Dmitri Zuev, Alec White,
  David Stuck, Shaama M.S., Shane Yost, Joonho Lee, David Small,
  Daniel Levine, Susi Lehtola, Hugh Burton, Evgeny Epifanovsky
 -----------------------------------------------------------------------
 Exchange:     0.2000 Hartree-Fock + 0.0800 Slater + 0.7200 B88
 Correlation:  0.1900 VWN1RPA + 0.8100 LYP
 Using SG-1 standard quadrature grid
 using 12 threads for integral computing
 -------------------------------------------------------
 OpenMP Integral computing Module                
 Release: version 1.0, May 2013, Q-Chem Inc. Pittsburgh 
 -------------------------------------------------------
 -------------------------------------------------------
 OpenMP BLAS3 based DFT computing Module                
 Release: version 1.0, May 2013, Q-Chem Inc. Pittsburgh 
 -------------------------------------------------------
 A unrestricted SCF calculation will be
 performed using DIIS
 SCF converges when DIIS error is below 1.0e-06
 Alpha HF Exchange    Energy =  -7.26526780206679
 Beta HF Exchange     Energy =  -7.26526780206679
 DFT Correlation      Energy =  -2.75638279449379
 DFT Exchange         Energy = -57.31833671905265
 One-Electron (alpha) Energy = -965.99418340183172
 One-Electron (beta)  Energy = -965.99418340183172
 Total Coulomb        Energy = 713.12347179298649
 ---------------------------------------
  Cycle       Energy         DIIS error
 ---------------------------------------
    1   -1038.5817581628      2.63e-02  
 Alpha HF Exchange    Energy =  -7.39797430069554
 Beta HF Exchange     Energy =  -7.17300553563888
 DFT Correlation      Energy =  -2.77545970274518
 DFT Exchange         Energy = -57.84473626211391
 One-Electron (alpha) Energy = -985.51054394078483
 One-Electron (beta)  Energy = -952.58633565332525
 Total Coulomb        Energy = 720.24353258035160
    2   -1038.1561308494      3.05e-03  
 Alpha HF Exchange    Energy =  -7.35460500186785
 Beta HF Exchange     Energy =  -7.14256349803587
 DFT Correlation      Energy =  -2.75394830542644
 DFT Exchange         Energy = -57.49826436670849
 One-Electron (alpha) Energy = -983.05551731123171
 One-Electron (beta)  Energy = -950.70923341340097
 Total Coulomb        Energy = 715.50597675321819
    3   -1038.1197631779      3.84e-03  
 Alpha HF Exchange    Energy =  -7.37135693212696
 Beta HF Exchange     Energy =  -7.14655536843757
 DFT Correlation      Energy =  -2.76240847539371
 DFT Exchange         Energy = -57.60621642202543
 One-Electron (alpha) Energy = -983.79877309145047
 One-Electron (beta)  Energy = -950.92908719333286
 Total Coulomb        Energy = 716.49444179114482
    4   -1038.2315637261      6.76e-04  
 Alpha HF Exchange    Energy =  -7.37771825270306
 Beta HF Exchange     Energy =  -7.15445748837351
 DFT Correlation      Energy =  -2.76361821842861
 DFT Exchange         Energy = -57.65723504212649
 One-Electron (alpha) Energy = -984.28716983449237
 One-Electron (beta)  Energy = -951.43281312177976
 Total Coulomb        Energy = 717.54992430344475
    5   -1038.2346956889      3.27e-04  
 Alpha HF Exchange    Energy =  -7.37742500622479
 Beta HF Exchange     Energy =  -7.15304439934069
 DFT Correlation      Energy =  -2.76320926260899
 DFT Exchange         Energy = -57.65061241944407
 One-Electron (alpha) Energy = -984.21223988248721
 One-Electron (beta)  Energy = -951.31642302101864
 Total Coulomb        Energy = 717.34895480269176
    6   -1038.2356072229      8.03e-05  
 Alpha HF Exchange    Energy =  -7.37714159860356
 Beta HF Exchange     Energy =  -7.15296909155459
 DFT Correlation      Energy =  -2.76303315041406
 DFT Exchange         Energy = -57.64834437784093
 One-Electron (alpha) Energy = -984.17922044404668
 One-Electron (beta)  Energy = -951.29566499350642
 Total Coulomb        Energy = 717.29231269939510
    7   -1038.2356689910      2.96e-05  
 Alpha HF Exchange    Energy =  -7.37734513649836
 Beta HF Exchange     Energy =  -7.15315923540982
 DFT Correlation      Energy =  -2.76301898943174
 DFT Exchange         Energy = -57.64969022867632
 One-Electron (alpha) Energy = -984.19037155285230
 One-Electron (beta)  Energy = -951.30650165302666
 Total Coulomb        Energy = 717.31601609731706
    8   -1038.2356787330      1.15e-05  
 Alpha HF Exchange    Energy =  -7.37736760905982
 Beta HF Exchange     Energy =  -7.15319664307025
 DFT Correlation      Energy =  -2.76300649881534
 DFT Exchange         Energy = -57.64981902522264
 One-Electron (alpha) Energy = -984.18813245624108
 One-Electron (beta)  Energy = -951.30835435969755
 Total Coulomb        Energy = 717.31580468661457
    9   -1038.2356799399      5.39e-06  
 Alpha HF Exchange    Energy =  -7.37734416228373
 Beta HF Exchange     Energy =  -7.15319331917358
 DFT Correlation      Energy =  -2.76299815892006
 DFT Exchange         Energy = -57.64970875024066
 One-Electron (alpha) Energy = -984.18612080117862
 One-Electron (beta)  Energy = -951.30758746701827
 Total Coulomb        Energy = 717.31288043661880
   10   -1038.2356802566      1.62e-06  
 Alpha HF Exchange    Energy =  -7.37735186162483
 Beta HF Exchange     Energy =  -7.15319966670744
 DFT Correlation      Energy =  -2.76299850096041
 DFT Exchange         Energy = -57.64976357174293
 One-Electron (alpha) Energy = -984.18644995605405
 One-Electron (beta)  Energy = -951.30841157555619
 Total Coulomb        Energy = 717.31410284340245
   11   -1038.2356803237      8.46e-07  Convergence criterion met
 ---------------------------------------
 SCF time:   CPU 30.96s  wall 3.00s 
<S^2> =          2.009715919
 Alpha HF Exchange    Energy =  -7.37735186162483
 Beta HF Exchange     Energy =  -7.15319966670744
 DFT Correlation      Energy =  -2.76299850096041
 DFT Exchange         Energy = -57.64976357174293
 One-Electron (alpha) Energy = -984.18644995605405
 One-Electron (beta)  Energy = -951.30841157555619
 Total Coulomb        Energy = 717.31410284340245
 Nuclear repulsion Energy = 254.88839196555142
 SCF   energy in the final basis set =    -1038.2356803237
 Total energy in the final basis set =    -1038.2356803237
 
 --------------------------------------------------------------
 
                    Orbital Energies (a.u.)
 --------------------------------------------------------------
 
 Alpha MOs
 -- Occupied --
*******-101.527 -10.265 -10.244 -10.213  -9.475  -9.439  -7.239
 -7.234  -7.228  -7.210  -7.193  -7.192  -0.867  -0.809  -0.776
 -0.721  -0.607  -0.511  -0.469  -0.455  -0.414  -0.409  -0.397
 -0.371  -0.329  -0.295  -0.290  -0.287  -0.242
 -- Virtual --
 -0.018   0.085   0.099   0.121   0.140   0.148   0.159   0.236
  0.290   0.354   0.384   0.410   0.438   0.449   0.468   0.494
  0.503   0.509   0.530   0.541   0.574   0.599   0.637   0.672
  0.701   0.721   0.767   0.816   0.826   0.839   0.848   0.869
  0.871   0.876   0.886   0.892   0.900   0.907   0.922   0.948
  1.007   1.063   1.137   1.250   1.277   1.362   1.413   1.496
  1.630   1.757   1.787   1.852   1.885   1.968   2.011   2.051
  2.075   2.086   2.147   2.248   2.319   2.325   2.396   2.406
  2.515   2.551   2.640   2.694   2.772   2.820   2.843   2.923
  3.143   3.260   3.372   3.388   3.423   3.502   4.141   4.235
  4.269   4.417   4.533
 
 Beta MOs
 -- Occupied --
*******-101.521 -10.266 -10.233 -10.214  -9.471  -9.434  -7.232
 -7.226  -7.225  -7.193  -7.189  -7.189  -0.848  -0.787  -0.736
 -0.714  -0.593  -0.506  -0.463  -0.437  -0.406  -0.394  -0.389
 -0.325  -0.319  -0.282  -0.278
 -- Virtual --
 -0.172  -0.124   0.011   0.088   0.101   0.124   0.145   0.154
  0.164   0.244   0.296   0.364   0.398   0.420   0.447   0.457
  0.473   0.510   0.511   0.525   0.540   0.574   0.584   0.620
  0.652   0.682   0.712   0.732   0.781   0.824   0.834   0.849
  0.872   0.885   0.895   0.897   0.906   0.913   0.916   0.921
  0.938   0.962   1.033   1.086   1.150   1.262   1.292   1.385
  1.418   1.496   1.634   1.776   1.795   1.866   1.895   1.990
  2.015   2.056   2.079   2.089   2.161   2.253   2.322   2.337
  2.405   2.417   2.525   2.562   2.644   2.702   2.774   2.825
  2.848   2.927   3.147   3.263   3.376   3.393   3.425   3.506
  4.158   4.251   4.282   4.418   4.544
 --------------------------------------------------------------
 
          Ground-State Mulliken Net Atomic Charges

     Atom                 Charge (a.u.)    Spin (a.u.)
  --------------------------------------------------------
      1 Cl                   -0.218223       0.761859
      2 Cl                   -0.056688       0.476337
      3 C                     0.006583       0.812455
      4 C                    -0.295982      -0.042560
      5 C                    -0.355450      -0.060059
      6 H                     0.139765      -0.036047
      7 H                     0.168860       0.004426
      8 H                     0.197496       0.008067
      9 H                     0.152585       0.049844
     10 H                     0.136704       0.021965
     11 H                     0.124351       0.003712
  --------------------------------------------------------
  Sum of atomic charges =    -0.000000
  Sum of spin   charges =     2.000000

 -----------------------------------------------------------------
                    Cartesian Multipole Moments
 -----------------------------------------------------------------
    Charge (ESU x 10^10)
                -0.0000
    Dipole Moment (Debye)
         X      -0.6322      Y      -5.0154      Z      -0.4801
       Tot       5.0779
    Quadrupole Moments (Debye-Ang)
        XX     -44.5887     XY       0.1639     YY     -54.2927
        XZ      -0.6206     YZ       0.5573     ZZ     -43.2564
    Octopole Moments (Debye-Ang^2)
       XXX     -12.8934    XXY     -40.0411    XYY      -3.1770
       YYY    -153.7506    XXZ      10.6590    XYZ       2.9187
       YYZ      15.8484    XZZ      -2.2353    YZZ     -40.5470
       ZZZ      29.7403
    Hexadecapole Moments (Debye-Ang^3)
      XXXX    -230.7180   XXXY     -16.3098   XXYY    -229.6062
      XYYY     -16.6230   YYYY   -1285.3793   XXXZ      -3.6018
      XXYZ      28.1814   XYYZ       1.8119   YYYZ      90.9946
      XXZZ     -62.3609   XYZZ      -6.8980   YYZZ    -227.9426
      XZZZ      -4.5303   YZZZ      81.9955   ZZZZ    -138.7232
 -----------------------------------------------------------------
 Calculating analytic gradient of the SCF energy
 Gradient of SCF Energy
            1           2           3           4           5           6
    1   0.0000808  -0.0011612   0.0053065  -0.0053611   0.0004202  -0.0000478
    2  -0.0001465  -0.0024044   0.0078726  -0.0004695   0.0004004   0.0000565
    3  -0.0000480   0.0005675  -0.0057648   0.0026295  -0.0006446  -0.0000886
            7           8           9          10          11
    1   0.0006153   0.0001396   0.0000588  -0.0000542   0.0000033
    2   0.0011554  -0.0064252   0.0000006   0.0000672  -0.0001072
    3  -0.0006836   0.0041332  -0.0000307  -0.0000942   0.0000243
 Max gradient component =       7.873E-03
 RMS gradient           =       2.629E-03
 Gradient time:  CPU 9.19 s  wall 0.83 s
 Geometry Optimization Parameters
   NAtoms,    NIC,     NZ,  NCons,   NDum,   NFix, NCnnct, MaxDiis
       11      71       0       1       0       0       0       0

 Cartesian Hessian Update
 Hessian Updated using BFGS Update


** CONSTRAINED OPTIMIZATION IN DELOCALIZED INTERNAL COORDINATES **
   Searching for a Minimum

   Optimization Cycle:   2

                       Coordinates (Angstroms)
     ATOM                X               Y               Z
      1  Cl       -0.5227436611    3.2573520221   -0.4801463894
      2  Cl        1.2686903722    1.2233658140    0.0194116381
      3  C        -0.7275113010   -0.7293526838   -0.2007619911
      4  C         0.1407116830   -0.0331511057   -1.0795137370
      5  C        -0.3464753085   -1.9756209896    0.5156177114
      6  H        -1.6583524164   -0.2400421144    0.0751239575
      7  H         0.9285784745   -0.6025325805   -1.5685902852
      8  H        -0.3488529936    0.6753576405   -1.7260755910
      9  H        -0.0857064042   -1.7566355952    1.5627807442
     10  H        -1.1829092504   -2.6835548428    0.5503195208
     11  H         0.5148668057   -2.4697835648    0.0566384217
   Point Group: c1    Number of degrees of freedom:    27


   Energy is  -1038.235680324

              Constraints and their Current Values
                                        Value     Constraint
   Distance(Angs):        1   3             4.001725     4.000000
 Hessian Updated using BFGS Update

   Using Lagrange Multiplier Algorithm


 27 Hessian modes will be used to form the next step
  Hessian Eigenvalues:
    -0.987506    0.033571    0.044990    0.045002    0.045299    0.063892
     0.077636    0.089599    0.092192    0.094463    0.098575    0.117465
     0.143581    0.150894    0.158625    0.160000    0.160088    0.221036
     0.335568    0.337575    0.340893    0.343575    0.350140    0.351357
     0.351812    0.489741    1.017989

 Minimum Search - Taking P-RFO Step
 Searching for Lamda that Maximizes Along the Constraint modes Only
 Value Taken    Lamda =   0.00002212
 Searching for Lamda that Minimizes Along All other modes
 Value Taken    Lamda =  -0.00040075
 Step Taken.  Stepsize is  0.043730

                             Maximum     Tolerance    Cnvgd?
         Gradient            0.005022       0.000300      NO
         Displacement        0.023912       0.001200      NO
         Energy change      0.000404       0.000001      NO


 New Cartesian Coordinates Obtained by Inverse Iteration

 Displacement from previous Coordinates is:  0.047685
 ----------------------------------------------------------------
             Standard Nuclear Orientation (Angstroms)
    I     Atom           X                Y                Z
 ----------------------------------------------------------------
    1      Cl     -0.5260799616     3.2529976292    -0.4804615991
    2      Cl      1.2759611392     1.2335270088     0.0114422846
    3      C      -0.7288590202    -0.7318491383    -0.1978314911
    4      C       0.1429012685    -0.0290758370    -1.0811972349
    5      C      -0.3488411392    -1.9794195493     0.5178979162
    6      H      -1.6596911853    -0.2433466450     0.0793529574
    7      H       0.9289251105    -0.6024524276    -1.5682430331
    8      H      -0.3429700088     0.6872364763    -1.7316696517
    9      H      -0.0887281084    -1.7617967367     1.5654892942
   10      H      -1.1850883352    -2.6876541335     0.5514456633
   11      H       0.5127662404    -2.4727646469     0.0585788942
 ----------------------------------------------------------------
 Nuclear Repulsion Energy =   254.6208212242 hartrees
 There are       30 alpha and       28 beta electrons

                       Distance Matrix (Angstroms)
             Cl(  1)   Cl(  2)   C (  3)   C (  4)   C (  5)   H (  6)
   Cl(  2)  2.750924
   C (  3)  4.000000  2.815280
   C (  4)  3.403002  2.017883  1.426251
   C (  5)  5.329758  3.635864  1.487654  2.569583
   H (  6)  3.717915  3.286917  1.087159  2.154560  2.219144
   H (  7)  4.262019  2.446765  2.154767  1.088029  2.807260  3.089412
   H (  8)  2.860451  2.440863  2.124941  1.082723  3.488788  2.424777
   H (  9)  5.433724  3.639973  2.140061  3.171896  1.101120  2.642388
   H ( 10)  6.065515  4.660904  2.143533  3.390740  1.096372  2.534316
   H ( 11)  5.844153  3.784348  2.153640  2.721673  1.093952  3.112926
             H (  7)   H (  8)   H (  9)   H ( 10)
   H (  8)  1.818715
   H (  9)  3.492846  4.115053
   H ( 10)  3.648315  4.160729  1.757129
   H ( 11)  2.513525  3.731338  1.771454  1.780956
 
 Applying Cartesian multipole field
    Component          Value
    ---------          -----
     (2,0,0)        1.00000E-11
     (0,2,0)        2.00000E-11
     (0,0,2)       -3.00000E-11
 Nucleus-field energy     =     0.0000000171 hartrees
 Requested basis set is 6-31G(d,p)
 There are 40 shells and 113 basis functions
 A cutoff of  1.0D-14 yielded    750 shell pairs
 There are      6102 function pairs
 Smallest overlap matrix eigenvalue = 5.65E-03
 Guess from superposition of atomic densities
 Warning:  Energy on first SCF cycle will be non-variational
 SAD guess density has 58.000000 electrons

 -----------------------------------------------------------------------
  General SCF calculation program by
  Eric Jon Sundstrom, Paul Horn, Yuezhi Mao, Dmitri Zuev, Alec White,
  David Stuck, Shaama M.S., Shane Yost, Joonho Lee, David Small,
  Daniel Levine, Susi Lehtola, Hugh Burton, Evgeny Epifanovsky
 -----------------------------------------------------------------------
 Exchange:     0.2000 Hartree-Fock + 0.0800 Slater + 0.7200 B88
 Correlation:  0.1900 VWN1RPA + 0.8100 LYP
 Using SG-1 standard quadrature grid
 using 12 threads for integral computing
 -------------------------------------------------------
 OpenMP Integral computing Module                
 Release: version 1.0, May 2013, Q-Chem Inc. Pittsburgh 
 -------------------------------------------------------
 -------------------------------------------------------
 OpenMP BLAS3 based DFT computing Module                
 Release: version 1.0, May 2013, Q-Chem Inc. Pittsburgh 
 -------------------------------------------------------
 A unrestricted SCF calculation will be
 performed using DIIS
 SCF converges when DIIS error is below 1.0e-06
 Alpha HF Exchange    Energy =  -7.26364431998177
 Beta HF Exchange     Energy =  -7.26364431998177
 DFT Correlation      Energy =  -2.75603709628338
 DFT Exchange         Energy = -57.31507386678739
 One-Electron (alpha) Energy = -965.73536152580084
 One-Electron (beta)  Energy = -965.73536152580084
 Total Coulomb        Energy = 712.88078147189162
 ---------------------------------------
  Cycle       Energy         DIIS error
 ---------------------------------------
    1   -1038.5675199414      2.61e-02  
 Alpha HF Exchange    Energy =  -7.39698354514988
 Beta HF Exchange     Energy =  -7.17232974551827
 DFT Correlation      Energy =  -2.77498214277350
 DFT Exchange         Energy = -57.83842136183613
 One-Electron (alpha) Energy = -985.22382985208037
 One-Electron (beta)  Energy = -952.34100769218537
 Total Coulomb        Energy = 719.96925729092823
    2   -1038.1574758073      3.03e-03  
 Alpha HF Exchange    Energy =  -7.35384762703339
 Beta HF Exchange     Energy =  -7.14186801514791
 DFT Correlation      Energy =  -2.75364135517610
 DFT Exchange         Energy = -57.49352165085046
 One-Electron (alpha) Energy = -982.78804535893505
 One-Electron (beta)  Energy = -950.46330839721099
 Total Coulomb        Energy = 715.25134153064357
    3   -1038.1220696324      3.81e-03  
 Alpha HF Exchange    Energy =  -7.37055094620633
 Beta HF Exchange     Energy =  -7.14594847835112
 DFT Correlation      Energy =  -2.76201049280452
 DFT Exchange         Energy = -57.60120719148834
 One-Electron (alpha) Energy = -983.52202076602543
 One-Electron (beta)  Energy = -950.68485890974773
 Total Coulomb        Energy = 716.23394585664221
    4   -1038.2318296867      6.76e-04  
 Alpha HF Exchange    Energy =  -7.37686045442390
 Beta HF Exchange     Energy =  -7.15380146747423
 DFT Correlation      Energy =  -2.76320584768626
 DFT Exchange         Energy = -57.65183986656675
 One-Electron (alpha) Energy = -984.00814754717101
 One-Electron (beta)  Energy = -951.18553170819769
 Total Coulomb        Energy = 717.28358776975449
    5   -1038.2349778804      3.26e-04  
 Alpha HF Exchange    Energy =  -7.37659856761789
 Beta HF Exchange     Energy =  -7.15241603209184
 DFT Correlation      Energy =  -2.76280671381484
 DFT Exchange         Energy = -57.64545289812883
 One-Electron (alpha) Energy = -983.93543819171123
 One-Electron (beta)  Energy = -951.07141396684642
 Total Coulomb        Energy = 717.08741666991261
    6   -1038.2358884590      8.04e-05  
 Alpha HF Exchange    Energy =  -7.37630941829818
 Beta HF Exchange     Energy =  -7.15232587362879
 DFT Correlation      Energy =  -2.76262312015563
 DFT Exchange         Energy = -57.64309082505205
 One-Electron (alpha) Energy = -983.90127496727223
 One-Electron (beta)  Energy = -951.04941263229898
 Total Coulomb        Energy = 717.02826533145537
    7   -1038.2359502639      2.98e-05  
 Alpha HF Exchange    Energy =  -7.37651170045771
 Beta HF Exchange     Energy =  -7.15251711867257
 DFT Correlation      Energy =  -2.76261085441786
 DFT Exchange         Energy = -57.64444278227772
 One-Electron (alpha) Energy = -983.91264554227428
 One-Electron (beta)  Energy = -951.06037581293185
 Total Coulomb        Energy = 717.05232256373176
    8   -1038.2359600060      1.20e-05  
 Alpha HF Exchange    Energy =  -7.37653844505788
 Beta HF Exchange     Energy =  -7.15255430323380
 DFT Correlation      Energy =  -2.76259767174172
 DFT Exchange         Energy = -57.64458474235218
 One-Electron (alpha) Energy = -983.91053230292596
 One-Electron (beta)  Energy = -951.06221915378126
 Total Coulomb        Energy = 717.05224408930712
    9   -1038.2359612885      5.44e-06  
 Alpha HF Exchange    Energy =  -7.37651444399759
 Beta HF Exchange     Energy =  -7.15255148901511
 DFT Correlation      Energy =  -2.76258941894705
 DFT Exchange         Energy = -57.64447350420883
 One-Electron (alpha) Energy = -983.90846842576718
 One-Electron (beta)  Energy = -951.06147220762443
 Total Coulomb        Energy = 717.04928664231659
   10   -1038.2359616059      1.61e-06  
 Alpha HF Exchange    Energy =  -7.37652197595501
 Beta HF Exchange     Energy =  -7.15255756941252
 DFT Correlation      Energy =  -2.76258960806272
 DFT Exchange         Energy = -57.64452661738984
 One-Electron (alpha) Energy = -983.90879072021426
 One-Electron (beta)  Energy = -951.06227029723698
 Total Coulomb        Energy = 717.05047387706384
   11   -1038.2359616699      8.41e-07  Convergence criterion met
 ---------------------------------------
 SCF time:   CPU 29.04s  wall 3.00s 
<S^2> =          2.009730012
 Alpha HF Exchange    Energy =  -7.37652197595501
 Beta HF Exchange     Energy =  -7.15255756941252
 DFT Correlation      Energy =  -2.76258960806272
 DFT Exchange         Energy = -57.64452661738984
 One-Electron (alpha) Energy = -983.90879072021426
 One-Electron (beta)  Energy = -951.06227029723698
 Total Coulomb        Energy = 717.05047387706384
 Nuclear repulsion Energy = 254.62082124132891
 SCF   energy in the final basis set =    -1038.2359616699
 Total energy in the final basis set =    -1038.2359616699
 
 --------------------------------------------------------------
 
                    Orbital Energies (a.u.)
 --------------------------------------------------------------
 
 Alpha MOs
 -- Occupied --
*******-101.526 -10.267 -10.245 -10.214  -9.475  -9.439  -7.239
 -7.234  -7.228  -7.210  -7.192  -7.192  -0.866  -0.809  -0.775
 -0.721  -0.607  -0.510  -0.468  -0.455  -0.414  -0.409  -0.396
 -0.371  -0.329  -0.294  -0.290  -0.286  -0.242
 -- Virtual --
 -0.019   0.085   0.099   0.121   0.140   0.148   0.157   0.235
  0.288   0.354   0.384   0.410   0.438   0.449   0.469   0.495
  0.503   0.509   0.528   0.541   0.573   0.599   0.637   0.673
  0.699   0.719   0.766   0.816   0.826   0.837   0.848   0.868
  0.871   0.877   0.885   0.891   0.900   0.907   0.922   0.947
  1.006   1.062   1.137   1.249   1.275   1.361   1.413   1.494
  1.630   1.756   1.787   1.846   1.878   1.968   2.010   2.050
  2.073   2.084   2.142   2.244   2.319   2.322   2.396   2.405
  2.511   2.548   2.637   2.690   2.768   2.819   2.841   2.918
  3.142   3.250   3.371   3.387   3.423   3.495   4.137   4.236
  4.268   4.417   4.531
 
 Beta MOs
 -- Occupied --
*******-101.521 -10.267 -10.234 -10.214  -9.471  -9.434  -7.232
 -7.226  -7.225  -7.193  -7.189  -7.189  -0.846  -0.787  -0.736
 -0.713  -0.593  -0.505  -0.463  -0.436  -0.407  -0.394  -0.389
 -0.325  -0.319  -0.282  -0.277
 -- Virtual --
 -0.171  -0.124   0.009   0.087   0.101   0.124   0.145   0.154
  0.162   0.244   0.294   0.364   0.398   0.420   0.447   0.457
  0.473   0.510   0.511   0.524   0.539   0.574   0.582   0.620
  0.653   0.682   0.709   0.730   0.780   0.824   0.834   0.847
  0.872   0.885   0.894   0.896   0.906   0.913   0.916   0.922
  0.938   0.962   1.031   1.085   1.149   1.261   1.290   1.385
  1.419   1.494   1.635   1.774   1.794   1.861   1.888   1.990
  2.015   2.055   2.078   2.087   2.156   2.248   2.322   2.334
  2.405   2.416   2.521   2.559   2.641   2.698   2.771   2.824
  2.846   2.922   3.146   3.252   3.375   3.392   3.424   3.499
  4.154   4.251   4.281   4.417   4.542
 --------------------------------------------------------------
 
          Ground-State Mulliken Net Atomic Charges

     Atom                 Charge (a.u.)    Spin (a.u.)
  --------------------------------------------------------
      1 Cl                   -0.219453       0.760230
      2 Cl                   -0.057004       0.474680
      3 C                     0.005721       0.816505
      4 C                    -0.294980      -0.042888
      5 C                    -0.355468      -0.060414
      6 H                     0.139911      -0.036153
      7 H                     0.168890       0.004215
      8 H                     0.198096       0.008080
      9 H                     0.152718       0.049918
     10 H                     0.137037       0.022085
     11 H                     0.124532       0.003740
  --------------------------------------------------------
  Sum of atomic charges =    -0.000000
  Sum of spin   charges =     2.000000

 -----------------------------------------------------------------
                    Cartesian Multipole Moments
 -----------------------------------------------------------------
    Charge (ESU x 10^10)
                 0.0000
    Dipole Moment (Debye)
         X      -0.6267      Y      -5.0358      Z      -0.4729
       Tot       5.0966
    Quadrupole Moments (Debye-Ang)
        XX     -44.6120     XY       0.1920     YY     -54.3148
        XZ      -0.6360     YZ       0.5458     ZZ     -43.2576
    Octopole Moments (Debye-Ang^2)
       XXX     -13.0273    XXY     -40.1237    XYY      -3.1569
       YYY    -154.2024    XXZ      10.7878    XYZ       2.9210
       YYZ      16.0176    XZZ      -2.2768    YZZ     -40.6136
       ZZZ      30.0107
    Hexadecapole Moments (Debye-Ang^3)
      XXXX    -232.5170   XXXY     -17.0022   XXYY    -229.9388
      XYYY     -16.8291   YYYY   -1286.7753   XXXZ      -3.1496
      XXYZ      28.4042   XYYZ       1.8836   YYYZ      91.8618
      XXZZ     -62.7923   XYZZ      -7.1344   YYZZ    -228.1193
      XZZZ      -4.1049   YZZZ      82.5239   ZZZZ    -139.0176
 -----------------------------------------------------------------
 Calculating analytic gradient of the SCF energy
 Gradient of SCF Energy
            1           2           3           4           5           6
    1   0.0001499  -0.0005546   0.0023793  -0.0014210  -0.0000562  -0.0000829
    2  -0.0003607  -0.0013319   0.0042609  -0.0003691  -0.0000006  -0.0001311
    3  -0.0000489   0.0007629  -0.0023958   0.0008439  -0.0000915   0.0000352
            7           8           9          10          11
    1   0.0004414  -0.0008630   0.0000334   0.0000037  -0.0000301
    2   0.0009589  -0.0029082  -0.0000635  -0.0000503  -0.0000043
    3  -0.0005204   0.0014554  -0.0000075   0.0000181  -0.0000513
 Max gradient component =       4.261E-03
 RMS gradient           =       1.206E-03
 Gradient time:  CPU 8.86 s  wall 0.76 s
 Geometry Optimization Parameters
   NAtoms,    NIC,     NZ,  NCons,   NDum,   NFix, NCnnct, MaxDiis
       11      71       0       1       0       0       0       0

 Cartesian Hessian Update
 Hessian Updated using BFGS Update


** CONSTRAINED OPTIMIZATION IN DELOCALIZED INTERNAL COORDINATES **
   Searching for a Minimum

   Optimization Cycle:   3

                       Coordinates (Angstroms)
     ATOM                X               Y               Z
      1  Cl       -0.5260799616    3.2529976292   -0.4804615991
      2  Cl        1.2759611392    1.2335270088    0.0114422846
      3  C        -0.7288590202   -0.7318491383   -0.1978314911
      4  C         0.1429012685   -0.0290758370   -1.0811972349
      5  C        -0.3488411392   -1.9794195493    0.5178979162
      6  H        -1.6596911853   -0.2433466450    0.0793529574
      7  H         0.9289251105   -0.6024524276   -1.5682430331
      8  H        -0.3429700088    0.6872364763   -1.7316696517
      9  H        -0.0887281084   -1.7617967367    1.5654892942
     10  H        -1.1850883352   -2.6876541335    0.5514456633
     11  H         0.5127662404   -2.4727646469    0.0585788942
   Point Group: c1    Number of degrees of freedom:    27


   Energy is  -1038.235961670

              Constraints and their Current Values
                                        Value     Constraint
   Distance(Angs):        1   3             4.000000     4.000000
 Hessian Updated using BFGS Update

 26 Hessian modes will be used to form the next step
  Hessian Eigenvalues:
     0.033618    0.044875    0.045006    0.045291    0.053937    0.065518
     0.078045    0.092194    0.094464    0.098574    0.115521    0.141980
     0.149370    0.158835    0.159997    0.160000    0.160482    0.222338
     0.335562    0.336708    0.340885    0.343557    0.350187    0.351382
     0.351986    0.434027

 Minimum Search - Taking Simple RFO Step
 Searching for Lamda that Minimizes Along All modes
 Value Taken    Lamda =  -0.00023280
 Step Taken.  Stepsize is  0.060635

                             Maximum     Tolerance    Cnvgd?
         Gradient           0.002397      0.000300      NO
         Displacement       0.030952      0.001200      NO
         Energy change     -0.000281      0.000001      NO


 New Cartesian Coordinates Obtained by Inverse Iteration

 Displacement from previous Coordinates is:  0.062382
 ----------------------------------------------------------------
             Standard Nuclear Orientation (Angstroms)
    I     Atom           X                Y                Z
 ----------------------------------------------------------------
    1      Cl     -0.5302189487     3.2501606377    -0.4823262586
    2      Cl      1.2849524318     1.2476959292    -0.0021288200
    3      C      -0.7323082515    -0.7342742382    -0.1934638035
    4      C       0.1433668066    -0.0253946361    -1.0788635893
    5      C      -0.3503415231    -1.9831385898     0.5182772398
    6      H      -1.6629512137    -0.2458714398     0.0843491061
    7      H       0.9250955737    -0.6092236308    -1.5601259148
    8      H      -0.3322002980     0.6996553642    -1.7340565532
    9      H      -0.0913599621    -1.7680308766     1.5665998379
   10      H      -1.1860134388    -2.6920974397     0.5484618147
   11      H       0.5122748238    -2.4740790801     0.0580809408
 ----------------------------------------------------------------
 Nuclear Repulsion Energy =   254.3689097024 hartrees
 There are       30 alpha and       28 beta electrons

                       Distance Matrix (Angstroms)
             Cl(  1)   Cl(  2)   C (  3)   C (  4)   C (  5)   H (  6)
   Cl(  2)  2.745050
   C (  3)  4.000000  2.834459
   C (  4)  3.396886  2.020726  1.432917
   C (  5)  5.331133  3.658319  1.487325  2.574368
   H (  6)  3.718393  3.305807  1.087113  2.159736  2.220211
   H (  7)  4.263149  2.450511  2.151834  1.087920  2.798954  3.087768
   H (  8)  2.848002  2.432099  2.142351  1.086802  3.502959  2.443669
   H (  9)  5.438101  3.667391  2.139461  3.176532  1.101055  2.642714
   H ( 10)  6.066549  4.683033  2.142282  3.395106  1.096303  2.535132
   H ( 11)  5.843437  3.801613  2.153876  2.724847  1.094034  3.114034
             H (  7)   H (  8)   H (  9)   H ( 10)
   H (  8)  1.823241
   H (  9)  3.486034  4.128173
   H ( 10)  3.638858  4.176467  1.757490
   H ( 11)  2.503338  3.741321  1.771584  1.781064
 
 Applying Cartesian multipole field
    Component          Value
    ---------          -----
     (2,0,0)        1.00000E-11
     (0,2,0)        2.00000E-11
     (0,0,2)       -3.00000E-11
 Nucleus-field energy     =     0.0000000171 hartrees
 Requested basis set is 6-31G(d,p)
 There are 40 shells and 113 basis functions
 A cutoff of  1.0D-14 yielded    750 shell pairs
 There are      6102 function pairs
 Smallest overlap matrix eigenvalue = 5.72E-03
 Guess from superposition of atomic densities
 Warning:  Energy on first SCF cycle will be non-variational
 SAD guess density has 58.000000 electrons

 -----------------------------------------------------------------------
  General SCF calculation program by
  Eric Jon Sundstrom, Paul Horn, Yuezhi Mao, Dmitri Zuev, Alec White,
  David Stuck, Shaama M.S., Shane Yost, Joonho Lee, David Small,
  Daniel Levine, Susi Lehtola, Hugh Burton, Evgeny Epifanovsky
 -----------------------------------------------------------------------
 Exchange:     0.2000 Hartree-Fock + 0.0800 Slater + 0.7200 B88
 Correlation:  0.1900 VWN1RPA + 0.8100 LYP
 Using SG-1 standard quadrature grid
 using 12 threads for integral computing
 -------------------------------------------------------
 OpenMP Integral computing Module                
 Release: version 1.0, May 2013, Q-Chem Inc. Pittsburgh 
 -------------------------------------------------------
 -------------------------------------------------------
 OpenMP BLAS3 based DFT computing Module                
 Release: version 1.0, May 2013, Q-Chem Inc. Pittsburgh 
 -------------------------------------------------------
 A unrestricted SCF calculation will be
 performed using DIIS
 SCF converges when DIIS error is below 1.0e-06
 Alpha HF Exchange    Energy =  -7.26250578531653
 Beta HF Exchange     Energy =  -7.26250578531653
 DFT Correlation      Energy =  -2.75580433105141
 DFT Exchange         Energy = -57.31279266266171
 One-Electron (alpha) Energy = -965.48961816973861
 One-Electron (beta)  Energy = -965.48961816973861
 Total Coulomb        Energy = 712.64648244340697
 ---------------------------------------
  Cycle       Energy         DIIS error
 ---------------------------------------
    1   -1038.5574527408      2.60e-02  
 Alpha HF Exchange    Energy =  -7.39626070423922
 Beta HF Exchange     Energy =  -7.17188436493901
 DFT Correlation      Energy =  -2.77464880191611
 DFT Exchange         Energy = -57.83398407107619
 One-Electron (alpha) Energy = -984.95447548618688
 One-Electron (beta)  Energy = -952.11321850414743
 Total Coulomb        Energy = 719.71705638003698
    2   -1038.1585058329      3.01e-03  
 Alpha HF Exchange    Energy =  -7.35327420207719
 Beta HF Exchange     Energy =  -7.14131757289045
 DFT Correlation      Energy =  -2.75343139554076
 DFT Exchange         Energy = -57.48991408074129
 One-Electron (alpha) Energy = -982.52843615149766
 One-Electron (beta)  Energy = -950.22830113206908
 Total Coulomb        Energy = 715.00183181725129
    3   -1038.1239329980      3.78e-03  
 Alpha HF Exchange    Energy =  -7.36996566440589
 Beta HF Exchange     Energy =  -7.14552347874450
 DFT Correlation      Energy =  -2.76173934734499
 DFT Exchange         Energy = -57.59769500158068
 One-Electron (alpha) Energy = -983.25817437280284
 One-Electron (beta)  Energy = -950.45518408765349
 Total Coulomb        Energy = 715.98744050102505
    4   -1038.2319317319      6.78e-04  
 Alpha HF Exchange    Energy =  -7.37622486851688
 Beta HF Exchange     Energy =  -7.15332209597474
 DFT Correlation      Energy =  -2.76292094016810
 DFT Exchange         Energy = -57.64793142984533
 One-Electron (alpha) Energy = -983.74216180909900
 One-Electron (beta)  Energy = -950.95269929183166
 Total Coulomb        Energy = 717.03123838989416
    5   -1038.2351123260      3.26e-04  
 Alpha HF Exchange    Energy =  -7.37599124414786
 Beta HF Exchange     Energy =  -7.15196429462529
 DFT Correlation      Energy =  -2.76253008627806
 DFT Exchange         Energy = -57.64176085502731
 One-Electron (alpha) Energy = -983.67141232531185
 One-Electron (beta)  Energy = -950.84081107352313
 Total Coulomb        Energy = 716.83954067221771
    6   -1038.2360194871      8.03e-05  
 Alpha HF Exchange    Energy =  -7.37569747762956
 Beta HF Exchange     Energy =  -7.15186094226299
 DFT Correlation      Energy =  -2.76234108095945
 DFT Exchange         Energy = -57.63932320408288
 One-Electron (alpha) Energy = -983.63641704949885
 One-Electron (beta)  Energy = -950.81775845421464
 Total Coulomb        Energy = 716.77840733933112
    7   -1038.2360811497      2.99e-05  
 Alpha HF Exchange    Energy =  -7.37589928259160
 Beta HF Exchange     Energy =  -7.15205240457661
 DFT Correlation      Energy =  -2.76233031400474
 DFT Exchange         Energy = -57.64067948604074
 One-Electron (alpha) Energy = -983.64796200011710
 One-Electron (beta)  Energy = -950.82879652411077
 Total Coulomb        Energy = 716.80271944448589
    8   -1038.2360908474      1.24e-05  
 Alpha HF Exchange    Energy =  -7.37592883681974
 Beta HF Exchange     Energy =  -7.15208908347126
 DFT Correlation      Energy =  -2.76231672319573
 DFT Exchange         Energy = -57.64082924459400
 One-Electron (alpha) Energy = -983.64593037222949
 One-Electron (beta)  Energy = -950.83060470645796
 Total Coulomb        Energy = 716.80269706417869
    9   -1038.2360921830      5.45e-06  
 Alpha HF Exchange    Energy =  -7.37590456537901
 Beta HF Exchange     Energy =  -7.15208641106553
 DFT Correlation      Energy =  -2.76230852202622
 DFT Exchange         Energy = -57.64071708040577
 One-Electron (alpha) Energy = -983.64383925479615
 One-Electron (beta)  Energy = -950.82985901038103
 Total Coulomb        Energy = 716.79971262550600
   10   -1038.2360924990      1.61e-06  
 Alpha HF Exchange    Energy =  -7.37591205605996
 Beta HF Exchange     Energy =  -7.15209235466356
 DFT Correlation      Energy =  -2.76230865482461
 DFT Exchange         Energy = -57.64076950494060
 One-Electron (alpha) Energy = -983.64416682287083
 One-Electron (beta)  Energy = -950.83064394959490
 Total Coulomb        Energy = 716.80089106305263
   11   -1038.2360925603      8.31e-07  Convergence criterion met
 ---------------------------------------
 SCF time:   CPU 27.46s  wall 2.00s 
<S^2> =          2.009735299
 Alpha HF Exchange    Energy =  -7.37591205605996
 Beta HF Exchange     Energy =  -7.15209235466356
 DFT Correlation      Energy =  -2.76230865482461
 DFT Exchange         Energy = -57.64076950494060
 One-Electron (alpha) Energy = -983.64416682287083
 One-Electron (beta)  Energy = -950.83064394959490
 Total Coulomb        Energy = 716.80089106305263
 Nuclear repulsion Energy = 254.36890971957791
 SCF   energy in the final basis set =    -1038.2360925603
 Total energy in the final basis set =    -1038.2360925603
 
 --------------------------------------------------------------
 
                    Orbital Energies (a.u.)
 --------------------------------------------------------------
 
 Alpha MOs
 -- Occupied --
*******-101.526 -10.268 -10.246 -10.214  -9.475  -9.439  -7.239
 -7.234  -7.228  -7.210  -7.192  -7.192  -0.865  -0.809  -0.775
 -0.720  -0.607  -0.510  -0.468  -0.455  -0.414  -0.410  -0.397
 -0.372  -0.329  -0.294  -0.290  -0.285  -0.243
 -- Virtual --
 -0.020   0.084   0.100   0.121   0.139   0.147   0.156   0.235
  0.287   0.355   0.384   0.409   0.438   0.449   0.470   0.496
  0.503   0.509   0.527   0.541   0.572   0.599   0.638   0.673
  0.697   0.718   0.766   0.815   0.826   0.836   0.848   0.868
  0.871   0.877   0.884   0.891   0.900   0.907   0.923   0.947
  1.005   1.061   1.138   1.246   1.273   1.361   1.415   1.492
  1.629   1.755   1.787   1.841   1.872   1.970   2.010   2.049
  2.071   2.082   2.139   2.241   2.318   2.320   2.397   2.405
  2.508   2.546   2.634   2.686   2.766   2.818   2.841   2.914
  3.142   3.241   3.372   3.386   3.422   3.489   4.134   4.237
  4.267   4.416   4.529
 
 Beta MOs
 -- Occupied --
*******-101.520 -10.268 -10.235 -10.215  -9.471  -9.433  -7.232
 -7.226  -7.225  -7.192  -7.189  -7.188  -0.845  -0.787  -0.736
 -0.713  -0.593  -0.504  -0.462  -0.437  -0.407  -0.395  -0.389
 -0.325  -0.319  -0.281  -0.277
 -- Virtual --
 -0.171  -0.125   0.009   0.087   0.101   0.124   0.145   0.154
  0.161   0.243   0.293   0.364   0.398   0.419   0.447   0.457
  0.474   0.510   0.512   0.524   0.539   0.573   0.581   0.620
  0.654   0.683   0.707   0.729   0.780   0.824   0.835   0.846
  0.871   0.885   0.893   0.896   0.905   0.914   0.916   0.922
  0.938   0.962   1.029   1.085   1.150   1.258   1.288   1.384
  1.421   1.492   1.634   1.773   1.795   1.857   1.882   1.991
  2.015   2.054   2.076   2.085   2.153   2.245   2.321   2.331
  2.405   2.415   2.517   2.558   2.638   2.694   2.768   2.823
  2.846   2.918   3.146   3.244   3.376   3.391   3.423   3.493
  4.151   4.252   4.279   4.417   4.540
 --------------------------------------------------------------
 
          Ground-State Mulliken Net Atomic Charges

     Atom                 Charge (a.u.)    Spin (a.u.)
  --------------------------------------------------------
      1 Cl                   -0.220977       0.758190
      2 Cl                   -0.057087       0.473940
      3 C                     0.005331       0.819441
      4 C                    -0.294263      -0.043135
      5 C                    -0.355682      -0.060671
      6 H                     0.140082      -0.036154
      7 H                     0.168441       0.004060
      8 H                     0.198919       0.008230
      9 H                     0.153000       0.050064
     10 H                     0.137455       0.022245
     11 H                     0.124781       0.003788
  --------------------------------------------------------
  Sum of atomic charges =     0.000000
  Sum of spin   charges =     2.000000

 -----------------------------------------------------------------
                    Cartesian Multipole Moments
 -----------------------------------------------------------------
    Charge (ESU x 10^10)
                -0.0000
    Dipole Moment (Debye)
         X      -0.6242      Y      -5.0684      Z      -0.4523
       Tot       5.1266
    Quadrupole Moments (Debye-Ang)
        XX     -44.6371     XY       0.2249     YY     -54.3399
        XZ      -0.6435     YZ       0.5511     ZZ     -43.2925
    Octopole Moments (Debye-Ang^2)
       XXX     -13.1751    XXY     -40.2708    XYY      -3.0934
       YYY    -154.9631    XXZ      11.0070    XYZ       2.8919
       YYZ      16.2680    XZZ      -2.3394    YZZ     -40.7689
       ZZZ      30.5531
    Hexadecapole Moments (Debye-Ang^3)
      XXXX    -234.7115   XXXY     -17.7996   XXYY    -230.5484
      XYYY     -17.0646   YYYY   -1290.0622   XXXZ      -2.4991
      XXYZ      28.7722   XYYZ       1.9892   YYYZ      93.3310
      XXZZ     -63.3141   XYZZ      -7.4133   YYZZ    -228.5542
      XZZZ      -3.4831   YZZZ      83.4506   ZZZZ    -139.0326
 -----------------------------------------------------------------
 Calculating analytic gradient of the SCF energy
 Gradient of SCF Energy
            1           2           3           4           5           6
    1   0.0002238  -0.0000530  -0.0001149   0.0008571  -0.0000945  -0.0000189
    2  -0.0005628  -0.0000906   0.0001946   0.0001103  -0.0000845  -0.0000304
    3  -0.0000398   0.0005079   0.0003775  -0.0003211   0.0001282  -0.0000722
            7           8           9          10          11
    1   0.0000282  -0.0008917   0.0000416   0.0000035   0.0000188
    2   0.0003278   0.0001719  -0.0000261   0.0000307  -0.0000410
    3  -0.0000916  -0.0003006  -0.0000549  -0.0000594  -0.0000740
 Max gradient component =       8.917E-04
 RMS gradient           =       2.897E-04
 Gradient time:  CPU 8.81 s  wall 0.74 s
 Geometry Optimization Parameters
   NAtoms,    NIC,     NZ,  NCons,   NDum,   NFix, NCnnct, MaxDiis
       11      71       0       1       0       0       0       0

 Cartesian Hessian Update
 Hessian Updated using BFGS Update


** CONSTRAINED OPTIMIZATION IN DELOCALIZED INTERNAL COORDINATES **
   Searching for a Minimum

   Optimization Cycle:   4

                       Coordinates (Angstroms)
     ATOM                X               Y               Z
      1  Cl       -0.5302189487    3.2501606377   -0.4823262586
      2  Cl        1.2849524318    1.2476959292   -0.0021288200
      3  C        -0.7323082515   -0.7342742382   -0.1934638035
      4  C         0.1433668066   -0.0253946361   -1.0788635893
      5  C        -0.3503415231   -1.9831385898    0.5182772398
      6  H        -1.6629512137   -0.2458714398    0.0843491061
      7  H         0.9250955737   -0.6092236308   -1.5601259148
      8  H        -0.3322002980    0.6996553642   -1.7340565532
      9  H        -0.0913599621   -1.7680308766    1.5665998379
     10  H        -1.1860134388   -2.6920974397    0.5484618147
     11  H         0.5122748238   -2.4740790801    0.0580809408
   Point Group: c1    Number of degrees of freedom:    27


   Energy is  -1038.236092560

              Constraints and their Current Values
                                        Value     Constraint
   Distance(Angs):        1   3             4.000000     4.000000
 Hessian Updated using BFGS Update

 26 Hessian modes will be used to form the next step
  Hessian Eigenvalues:
     0.033431    0.041200    0.045007    0.045299    0.046045    0.065591
     0.077988    0.092196    0.094466    0.098705    0.115488    0.141339
     0.150254    0.158932    0.160000    0.160006    0.160785    0.222005
     0.335571    0.337407    0.340912    0.343600    0.350182    0.351382
     0.354876    0.479879

 Minimum Search - Taking Simple RFO Step
 Searching for Lamda that Minimizes Along All modes
 Value Taken    Lamda =  -0.00001762
 Step Taken.  Stepsize is  0.019889

                             Maximum     Tolerance    Cnvgd?
         Gradient           0.000597      0.000300      NO
         Displacement       0.013315      0.001200      NO
         Energy change     -0.000131      0.000001      NO


 New Cartesian Coordinates Obtained by Inverse Iteration

 Displacement from previous Coordinates is:  0.020554
 ----------------------------------------------------------------
             Standard Nuclear Orientation (Angstroms)
    I     Atom           X                Y                Z
 ----------------------------------------------------------------
    1      Cl     -0.5334737978     3.2506136187    -0.4806774314
    2      Cl      1.2874822021     1.2511285308    -0.0076325966
    3      C      -0.7330855234    -0.7340094982    -0.1926901747
    4      C       0.1437198825    -0.0257046021    -1.0777910096
    5      C      -0.3509037173    -1.9833505560     0.5178734173
    6      H      -1.6634958330    -0.2453659688     0.0855462026
    7      H       0.9242002555    -0.6130929786    -1.5570781784
    8      H      -0.3277728695     0.7007311750    -1.7338719098
    9      H      -0.0921474311    -1.7692778682     1.5664748821
   10      H      -1.1861612832    -2.6929037840     0.5474080838
   11      H       0.5119341153    -2.4733660687     0.0572427148
 ----------------------------------------------------------------
 Nuclear Repulsion Energy =   254.2967801299 hartrees
 There are       30 alpha and       28 beta electrons

                       Distance Matrix (Angstroms)
             Cl(  1)   Cl(  2)   C (  3)   C (  4)   C (  5)   H (  6)
   Cl(  2)  2.745468
   C (  3)  4.000000  2.838611
   C (  4)  3.398440  2.020825  1.433139
   C (  5)  5.331493  3.663648  1.487218  2.573553
   H (  6)  3.717450  3.310053  1.087130  2.160471  2.220449
   H (  7)  4.267515  2.451138  2.150063  1.088068  2.794445  3.087006
   H (  8)  2.848633  2.427321  2.144295  1.086488  3.503596  2.447353
   H (  9)  5.439201  3.674785  2.139449  3.176133  1.101066  2.642838
   H ( 10)  6.066989  4.688536  2.142496  3.394673  1.096355  2.536061
   H ( 11)  5.843473  3.804937  2.153579  2.723037  1.093977  3.114046
             H (  7)   H (  8)   H (  9)   H ( 10)
   H (  8)  1.823411
   H (  9)  3.482285  4.129014
   H ( 10)  3.634295  4.178256  1.757398
   H ( 11)  2.497321  3.740066  1.771563  1.781007
 
 Applying Cartesian multipole field
    Component          Value
    ---------          -----
     (2,0,0)        1.00000E-11
     (0,2,0)        2.00000E-11
     (0,0,2)       -3.00000E-11
 Nucleus-field energy     =     0.0000000172 hartrees
 Requested basis set is 6-31G(d,p)
 There are 40 shells and 113 basis functions
 A cutoff of  1.0D-14 yielded    750 shell pairs
 There are      6102 function pairs
 Smallest overlap matrix eigenvalue = 5.71E-03
 Guess from superposition of atomic densities
 Warning:  Energy on first SCF cycle will be non-variational
 SAD guess density has 58.000000 electrons

 -----------------------------------------------------------------------
  General SCF calculation program by
  Eric Jon Sundstrom, Paul Horn, Yuezhi Mao, Dmitri Zuev, Alec White,
  David Stuck, Shaama M.S., Shane Yost, Joonho Lee, David Small,
  Daniel Levine, Susi Lehtola, Hugh Burton, Evgeny Epifanovsky
 -----------------------------------------------------------------------
 Exchange:     0.2000 Hartree-Fock + 0.0800 Slater + 0.7200 B88
 Correlation:  0.1900 VWN1RPA + 0.8100 LYP
 Using SG-1 standard quadrature grid
 using 12 threads for integral computing
 -------------------------------------------------------
 OpenMP Integral computing Module                
 Release: version 1.0, May 2013, Q-Chem Inc. Pittsburgh 
 -------------------------------------------------------
 -------------------------------------------------------
 OpenMP BLAS3 based DFT computing Module                
 Release: version 1.0, May 2013, Q-Chem Inc. Pittsburgh 
 -------------------------------------------------------
 A unrestricted SCF calculation will be
 performed using DIIS
 SCF converges when DIIS error is below 1.0e-06
 Alpha HF Exchange    Energy =  -7.26248741475927
 Beta HF Exchange     Energy =  -7.26248741475927
 DFT Correlation      Energy =  -2.75578995874401
 DFT Exchange         Energy = -57.31276300162530
 One-Electron (alpha) Energy = -965.41750341760326
 One-Electron (beta)  Energy = -965.41750341760326
 Total Coulomb        Energy = 712.57449339309153
 ---------------------------------------
  Cycle       Energy         DIIS error
 ---------------------------------------
    1   -1038.5572610849      2.60e-02  
 Alpha HF Exchange    Energy =  -7.39623750083841
 Beta HF Exchange     Energy =  -7.17187940049621
 DFT Correlation      Energy =  -2.77463130586371
 DFT Exchange         Energy = -57.83389826114136
 One-Electron (alpha) Energy = -984.87872849020914
 One-Electron (beta)  Energy = -952.04567029865598
 Total Coulomb        Energy = 719.64571582125438
    2   -1038.1585492889      3.01e-03  
 Alpha HF Exchange    Energy =  -7.35324612970612
 Beta HF Exchange     Energy =  -7.14130117659029
 DFT Correlation      Energy =  -2.75341352314423
 DFT Exchange         Energy = -57.48976815491658
 One-Electron (alpha) Energy = -982.45132168658699
 One-Electron (beta)  Energy = -950.15888105174633
 Total Coulomb        Energy = 714.92717111817444
    3   -1038.1239804574      3.78e-03  
 Alpha HF Exchange    Energy =  -7.36994422385560
 Beta HF Exchange     Energy =  -7.14551323842140
 DFT Correlation      Energy =  -2.76172280514324
 DFT Exchange         Energy = -57.59760807764050
 One-Electron (alpha) Energy = -983.18184208337311
 One-Electron (beta)  Energy = -950.38675044213880
 Total Coulomb        Energy = 715.91466392074256
    4   -1038.2319368028      6.79e-04  
 Alpha HF Exchange    Energy =  -7.37620193913777
 Beta HF Exchange     Energy =  -7.15331253775841
 DFT Correlation      Energy =  -2.76290357474695
 DFT Exchange         Energy = -57.64783402403932
 One-Electron (alpha) Energy = -983.66579370275292
 One-Electron (beta)  Energy = -950.88412939874593
 Total Coulomb        Energy = 716.95827119706212
    5   -1038.2351238330      3.26e-04  
 Alpha HF Exchange    Energy =  -7.37597086214045
 Beta HF Exchange     Energy =  -7.15195609241783
 DFT Correlation      Energy =  -2.76251352287031
 DFT Exchange         Energy = -57.64167994608763
 One-Electron (alpha) Energy = -983.59521962597887
 One-Electron (beta)  Energy = -950.77243367136168
 Total Coulomb        Energy = 716.76696125099716
    6   -1038.2360323228      8.03e-05  
 Alpha HF Exchange    Energy =  -7.37567620323892
 Beta HF Exchange     Energy =  -7.15185173632638
 DFT Correlation      Energy =  -2.76232427601618
 DFT Exchange         Energy = -57.63923542426055
 One-Electron (alpha) Energy = -983.56016150245966
 One-Electron (beta)  Energy = -950.74926479729743
 Total Coulomb        Energy = 716.70563981300131
    7   -1038.2360939795      2.99e-05  
 Alpha HF Exchange    Energy =  -7.37587850990881
 Beta HF Exchange     Energy =  -7.15204344500542
 DFT Correlation      Energy =  -2.76231360195505
 DFT Exchange         Energy = -57.64059443538424
 One-Electron (alpha) Energy = -983.57173760705450
 One-Electron (beta)  Energy = -950.76032222352353
 Total Coulomb        Energy = 716.73000600556281
    8   -1038.2361036702      1.24e-05  
[...]

 Minimum Search - Taking Simple RFO Step
 Searching for Lamda that Minimizes Along All modes
 Value Taken    Lamda =   0.00000000
 Step Taken.  Stepsize is  0.011762

                             Maximum     Tolerance    Cnvgd?
         Gradient           0.000113      0.000300     YES
         Displacement       0.006782      0.001200      NO
         Energy change     -0.000001      0.000001      NO


 New Cartesian Coordinates Obtained by Inverse Iteration

 Displacement from previous Coordinates is:  0.012770
 ----------------------------------------------------------------
             Standard Nuclear Orientation (Angstroms)
    I     Atom           X                Y                Z
 ----------------------------------------------------------------
    1      Cl     -0.5601048926     3.2591156843    -0.4240360068
    2      Cl      1.2925662686     1.2557512745    -0.0360115634
    3      C      -0.7295266026    -0.7308506030    -0.1971699737
    4      C       0.1502147500    -0.0364645377    -1.0892638260
    5      C      -0.3536267625    -1.9779064774     0.5208509791
    6      H      -1.6553580029    -0.2335097887     0.0809155070
    7      H       0.9314745425    -0.6330444400    -1.5558726493
    8      H      -0.3144980821     0.6800921782    -1.7600905754
    9      H      -0.1010180053    -1.7604441935     1.5702075099
   10      H      -1.1904887616    -2.6858135548     0.5483234402
   11      H       0.5106615485    -2.4715235420     0.0669511583
 ----------------------------------------------------------------
 Nuclear Repulsion Energy =   253.8119938186 hartrees
 There are       30 alpha and       28 beta electrons

                       Distance Matrix (Angstroms)
             Cl(  1)   Cl(  2)   C (  3)   C (  4)   C (  5)   H (  6)
   Cl(  2)  2.756161
   C (  3)  4.000000  2.839264
   C (  4)  3.436267  2.020923  1.432462
   C (  5)  5.325584  3.671048  1.487280  2.572066
   H (  6)  3.694995  3.304819  1.087126  2.160611  2.220578
   H (  7)  4.319117  2.451105  2.148154  1.088117  2.787996  3.087136
   H (  8)  2.914915  2.426208  2.146096  1.086011  3.502739  2.453951
   H (  9)  5.420678  3.690454  2.139792  3.179310  1.101022  2.639222
   H ( 10)  6.056819  4.694991  2.142458  3.390904  1.096460  2.539364
   H ( 11)  5.850456  3.809797  2.153548  2.719608  1.093927  3.114569
             H (  7)   H (  8)   H (  9)   H ( 10)
   H (  8)  1.821670
   H (  9)  3.479863  4.134329
   H ( 10)  3.625497  4.174381  1.757129
   H ( 11)  2.488101  3.735191  1.771882  1.780885
 
 Applying Cartesian multipole field
    Component          Value
    ---------          -----
     (2,0,0)        1.00000E-11
     (0,2,0)        2.00000E-11
     (0,0,2)       -3.00000E-11
 Nucleus-field energy     =     0.0000000173 hartrees
 Requested basis set is 6-31G(d,p)
 There are 40 shells and 113 basis functions
 A cutoff of  1.0D-14 yielded    750 shell pairs
 There are      6102 function pairs
 Smallest overlap matrix eigenvalue = 5.69E-03
 Guess from superposition of atomic densities
 Warning:  Energy on first SCF cycle will be non-variational
 SAD guess density has 58.000000 electrons

 -----------------------------------------------------------------------
  General SCF calculation program by
  Eric Jon Sundstrom, Paul Horn, Yuezhi Mao, Dmitri Zuev, Alec White,
  David Stuck, Shaama M.S., Shane Yost, Joonho Lee, David Small,
  Daniel Levine, Susi Lehtola, Hugh Burton, Evgeny Epifanovsky
 -----------------------------------------------------------------------
 Exchange:     0.2000 Hartree-Fock + 0.0800 Slater + 0.7200 B88
 Correlation:  0.1900 VWN1RPA + 0.8100 LYP
 Using SG-1 standard quadrature grid
 using 12 threads for integral computing
 -------------------------------------------------------
 OpenMP Integral computing Module                
 Release: version 1.0, May 2013, Q-Chem Inc. Pittsburgh 
 -------------------------------------------------------
 -------------------------------------------------------
 OpenMP BLAS3 based DFT computing Module                
 Release: version 1.0, May 2013, Q-Chem Inc. Pittsburgh 
 -------------------------------------------------------
 A unrestricted SCF calculation will be
 performed using DIIS
 SCF converges when DIIS error is below 1.0e-06
 Alpha HF Exchange    Energy =  -7.26231773365988
 Beta HF Exchange     Energy =  -7.26231773365988
 DFT Correlation      Energy =  -2.75554886397629
 DFT Exchange         Energy = -57.31242361278288
 One-Electron (alpha) Energy = -964.93223696262555
 One-Electron (beta)  Energy = -964.93223696262555
 Total Coulomb        Energy = 712.08917503911255
 ---------------------------------------
  Cycle       Energy         DIIS error
 ---------------------------------------
    1   -1038.5559129943      2.60e-02  
 Alpha HF Exchange    Energy =  -7.39621469777178
 Beta HF Exchange     Energy =  -7.17174675519819
 DFT Correlation      Energy =  -2.77443734239150
 DFT Exchange         Energy = -57.83352354343130
 One-Electron (alpha) Energy = -984.38433130211774
 One-Electron (beta)  Energy = -951.57546274882907
 Total Coulomb        Energy = 719.16557428852605
    2   -1038.1581482653      3.01e-03  
 Alpha HF Exchange    Energy =  -7.35309634604839
 Beta HF Exchange     Energy =  -7.14126610791597
 DFT Correlation      Energy =  -2.75316597032513
 DFT Exchange         Energy = -57.48892857962876
 One-Electron (alpha) Energy = -981.95036928693844
 One-Electron (beta)  Energy = -949.68894340381394
 Total Coulomb        Energy = 714.44058968759578
    3   -1038.1231861711      3.79e-03  
 Alpha HF Exchange    Energy =  -7.36985129541004
 Beta HF Exchange     Energy =  -7.14540779535352
 DFT Correlation      Energy =  -2.76149137391636
 DFT Exchange         Energy = -57.59683017145666
 One-Electron (alpha) Energy = -982.68268214565592
 One-Electron (beta)  Energy = -949.91407244876450
 Total Coulomb        Energy = 715.42637700719433
    4   -1038.2319643874      6.78e-04  
 Alpha HF Exchange    Energy =  -7.37614936291228
 Beta HF Exchange     Energy =  -7.15327738484191
 DFT Correlation      Energy =  -2.76268117928281
 DFT Exchange         Energy = -57.64743398192330
 One-Electron (alpha) Energy = -983.16964056722372
 One-Electron (beta)  Energy = -950.41484827654290
 Total Coulomb        Energy = 716.47690412656448
    5   -1038.2351327902      3.29e-04  
 Alpha HF Exchange    Energy =  -7.37591311983141
 Beta HF Exchange     Energy =  -7.15190558424079
 DFT Correlation      Energy =  -2.76229136547999
 DFT Exchange         Energy = -57.64121272024747
 One-Electron (alpha) Energy = -983.09838702715797
 One-Electron (beta)  Energy = -950.30215635160528
 Total Coulomb        Energy = 716.28381489586729
    6   -1038.2360574368      8.08e-05  
 Alpha HF Exchange    Energy =  -7.37561573893185
 Beta HF Exchange     Energy =  -7.15180605705921
 DFT Correlation      Energy =  -2.76210084618444
 DFT Exchange         Energy = -57.63876525837993
 One-Electron (alpha) Energy = -983.06314635631975
 One-Electron (beta)  Energy = -950.27899488262619
 Total Coulomb        Energy = 716.22231570343263
    7   -1038.2361196001      3.02e-05  
 Alpha HF Exchange    Energy =  -7.37581847652593
 Beta HF Exchange     Energy =  -7.15200021945007
 DFT Correlation      Energy =  -2.76209007744315
 DFT Exchange         Energy = -57.64013275517029
 One-Electron (alpha) Energy = -983.07469401924004
 One-Electron (beta)  Energy = -950.29010479530336
 Total Coulomb        Energy = 716.24671705414494
    8   -1038.2361294531      1.24e-05  
 Alpha HF Exchange    Energy =  -7.37584822724140
 Beta HF Exchange     Energy =  -7.15203759524119
 DFT Correlation      Energy =  -2.76207650923323
 DFT Exchange         Energy = -57.64028562021875
 One-Electron (alpha) Energy = -983.07271845738796
 One-Electron (beta)  Energy = -950.29197879641526
 Total Coulomb        Energy = 716.24682057575501
    9   -1038.2361307941      5.50e-06  
 Alpha HF Exchange    Energy =  -7.37582386867399
 Beta HF Exchange     Energy =  -7.15203529452337
 DFT Correlation      Energy =  -2.76206829233570
 DFT Exchange         Energy = -57.64017415493230
 One-Electron (alpha) Energy = -983.07061197808514
 One-Electron (beta)  Energy = -950.29124251948258
 Total Coulomb        Energy = 716.24383115358478
   10   -1038.2361311185      1.62e-06  
 Alpha HF Exchange    Energy =  -7.37583128324652
 Beta HF Exchange     Energy =  -7.15204115290621
 DFT Correlation      Energy =  -2.76206837982018
 DFT Exchange         Energy = -57.64022600560020
 One-Electron (alpha) Energy = -983.07093367608979
 One-Electron (beta)  Energy = -950.29202226978339
 Total Coulomb        Energy = 716.24499774859942
   11   -1038.2361311829      8.44e-07  Convergence criterion met
 ---------------------------------------
 SCF time:   CPU 28.36s  wall 2.00s 
<S^2> =          2.009765735
 Alpha HF Exchange    Energy =  -7.37583128324652
 Beta HF Exchange     Energy =  -7.15204115290621
 DFT Correlation      Energy =  -2.76206837982018
 DFT Exchange         Energy = -57.64022600560020
 One-Electron (alpha) Energy = -983.07093367608979
 One-Electron (beta)  Energy = -950.29202226978339
 Total Coulomb        Energy = 716.24499774859942
 Nuclear repulsion Energy = 253.81199383592602
 SCF   energy in the final basis set =    -1038.2361311829
 Total energy in the final basis set =    -1038.2361311829
 
 --------------------------------------------------------------
 
                    Orbital Energies (a.u.)
 --------------------------------------------------------------
 
 Alpha MOs
 -- Occupied --
*******-101.526 -10.268 -10.247 -10.214  -9.475  -9.439  -7.239
 -7.234  -7.228  -7.210  -7.192  -7.192  -0.864  -0.809  -0.775
 -0.720  -0.607  -0.510  -0.467  -0.455  -0.414  -0.409  -0.397
 -0.371  -0.328  -0.294  -0.290  -0.286  -0.243
 -- Virtual --
 -0.020   0.084   0.099   0.120   0.139   0.146   0.155   0.236
  0.287   0.354   0.385   0.408   0.438   0.447   0.470   0.495
  0.503   0.509   0.527   0.541   0.573   0.599   0.638   0.672
  0.697   0.718   0.767   0.815   0.826   0.836   0.849   0.869
  0.872   0.876   0.884   0.892   0.900   0.907   0.923   0.942
  1.003   1.056   1.137   1.245   1.272   1.362   1.416   1.492
  1.627   1.753   1.788   1.842   1.871   1.972   2.010   2.049
  2.072   2.083   2.138   2.239   2.319   2.319   2.397   2.404
  2.510   2.546   2.633   2.685   2.767   2.819   2.840   2.913
  3.142   3.240   3.374   3.386   3.422   3.489   4.133   4.235
  4.267   4.416   4.529
 
 Beta MOs
 -- Occupied --
*******-101.520 -10.269 -10.235 -10.215  -9.471  -9.434  -7.231
 -7.226  -7.225  -7.193  -7.189  -7.188  -0.845  -0.787  -0.736
 -0.713  -0.593  -0.505  -0.462  -0.437  -0.407  -0.394  -0.389
 -0.325  -0.318  -0.281  -0.277
 -- Virtual --
 -0.171  -0.125   0.009   0.087   0.101   0.124   0.145   0.154
  0.160   0.244   0.293   0.364   0.399   0.419   0.446   0.456
  0.474   0.510   0.512   0.524   0.539   0.574   0.581   0.620
  0.654   0.682   0.707   0.728   0.780   0.823   0.835   0.846
  0.871   0.887   0.894   0.896   0.905   0.913   0.916   0.922
  0.938   0.957   1.028   1.080   1.149   1.258   1.287   1.385
  1.422   1.492   1.632   1.771   1.795   1.857   1.881   1.994
  2.014   2.054   2.077   2.086   2.152   2.243   2.320   2.331
  2.406   2.415   2.519   2.558   2.638   2.693   2.770   2.823
  2.845   2.917   3.146   3.243   3.378   3.391   3.423   3.493
  4.150   4.250   4.280   4.416   4.540
 --------------------------------------------------------------
 
          Ground-State Mulliken Net Atomic Charges

     Atom                 Charge (a.u.)    Spin (a.u.)
  --------------------------------------------------------
      1 Cl                   -0.219559       0.760804
      2 Cl                   -0.058609       0.471871
      3 C                     0.005858       0.818864
      4 C                    -0.294551      -0.043568
      5 C                    -0.355955      -0.060669
      6 H                     0.140712      -0.036063
      7 H                     0.168138       0.003946
      8 H                     0.198562       0.008599
      9 H                     0.153073       0.049905
     10 H                     0.137704       0.022774
     11 H                     0.124628       0.003538
  --------------------------------------------------------
  Sum of atomic charges =     0.000000
  Sum of spin   charges =     2.000000

 -----------------------------------------------------------------
                    Cartesian Multipole Moments
 -----------------------------------------------------------------
    Charge (ESU x 10^10)
                 0.0000
    Dipole Moment (Debye)
         X      -0.6076      Y      -5.0836      Z      -0.5030
       Tot       5.1445
    Quadrupole Moments (Debye-Ang)
        XX     -44.6775     XY       0.2737     YY     -54.3328
        XZ      -0.6517     YZ       0.4217     ZZ     -43.2279
    Octopole Moments (Debye-Ang^2)
       XXX     -12.4660    XXY     -40.4631    XYY      -2.6707
       YYY    -155.4806    XXZ      10.8041    XYZ       2.8174
       YYZ      15.6185    XZZ      -2.0962    YZZ     -40.9413
       ZZZ      29.5926
    Hexadecapole Moments (Debye-Ang^3)
      XXXX    -238.5905   XXXY     -14.8138   XXYY    -231.6061
      XYYY     -13.5727   YYYY   -1294.5436   XXXZ       0.0358
      XXYZ      27.0128   XYYZ       2.3069   YYYZ      86.7331
      XXZZ     -63.7402   XYZZ      -6.1434   YYZZ    -229.0431
      XZZZ      -0.9394   YZZZ      77.2799   ZZZZ    -135.8032
 -----------------------------------------------------------------
 Calculating analytic gradient of the SCF energy
 Gradient of SCF Energy
            1           2           3           4           5           6
    1   0.0000080   0.0000967   0.0000152  -0.0000969   0.0000004   0.0000132
    2   0.0001808   0.0000283  -0.0001685  -0.0000654  -0.0000314   0.0000115
    3   0.0000830   0.0000977   0.0001100  -0.0001516  -0.0000419   0.0000427
            7           8           9          10          11
    1  -0.0000059  -0.0000592   0.0000289   0.0000042  -0.0000047
    2   0.0000442   0.0000641  -0.0000444  -0.0000114  -0.0000079
    3   0.0000074  -0.0000113  -0.0000349  -0.0000364  -0.0000646
 Max gradient component =       1.808E-04
 RMS gradient           =       6.987E-05
 Gradient time:  CPU 9.19 s  wall 0.79 s
 Geometry Optimization Parameters
   NAtoms,    NIC,     NZ,  NCons,   NDum,   NFix, NCnnct, MaxDiis
       11      71       0       1       0       0       0       0

 Cartesian Hessian Update
 Hessian Updated using BFGS Update


** CONSTRAINED OPTIMIZATION IN DELOCALIZED INTERNAL COORDINATES **
   Searching for a Minimum

   Optimization Cycle:  12

                       Coordinates (Angstroms)
     ATOM                X               Y               Z
      1  Cl       -0.5601048926    3.2591156843   -0.4240360068
      2  Cl        1.2925662686    1.2557512745   -0.0360115634
      3  C        -0.7295266026   -0.7308506030   -0.1971699737
      4  C         0.1502147500   -0.0364645377   -1.0892638260
      5  C        -0.3536267625   -1.9779064774    0.5208509791
      6  H        -1.6553580029   -0.2335097887    0.0809155070
      7  H         0.9314745425   -0.6330444400   -1.5558726493
      8  H        -0.3144980821    0.6800921782   -1.7600905754
      9  H        -0.1010180053   -1.7604441935    1.5702075099
     10  H        -1.1904887616   -2.6858135548    0.5483234402
     11  H         0.5106615485   -2.4715235420    0.0669511583
   Point Group: c1    Number of degrees of freedom:    27


   Energy is  -1038.236131183

              Constraints and their Current Values
                                        Value     Constraint
   Distance(Angs):        1   3             4.000000     4.000000
 Hessian Updated using BFGS Update

 26 Hessian modes will be used to form the next step
  Hessian Eigenvalues:
     0.001690    0.017857    0.043670    0.044449    0.045191    0.051924
     0.077821    0.092168    0.093202    0.094471    0.115576    0.136333
     0.145516    0.159096    0.160001    0.160050    0.160750    0.221512
     0.335569    0.337381    0.340929    0.343662    0.350157    0.351376
     0.352580    0.464143

 Minimum Search - Taking Simple RFO Step
 Searching for Lamda that Minimizes Along All modes
 Value Taken    Lamda =   0.00000000
 Step Taken.  Stepsize is  0.004841

                             Maximum     Tolerance    Cnvgd?
         Gradient           0.000105      0.000300     YES
         Displacement       0.002485      0.001200      NO
         Energy change     -0.000000      0.000001     YES


                       Distance Matrix (Angstroms)
             Cl(  1)   Cl(  2)   C (  3)   C (  4)   C (  5)   H (  6)
   Cl(  2)  2.756161
   C (  3)  4.000000  2.839264
   C (  4)  3.436267  2.020923  1.432462
   C (  5)  5.325584  3.671048  1.487280  2.572066
   H (  6)  3.694995  3.304819  1.087126  2.160611  2.220578
   H (  7)  4.319117  2.451105  2.148154  1.088117  2.787996  3.087136
   H (  8)  2.914915  2.426208  2.146096  1.086011  3.502739  2.453951
   H (  9)  5.420678  3.690454  2.139792  3.179310  1.101022  2.639222
   H ( 10)  6.056819  4.694991  2.142458  3.390904  1.096460  2.539364
   H ( 11)  5.850456  3.809797  2.153548  2.719608  1.093927  3.114569
             H (  7)   H (  8)   H (  9)   H ( 10)
   H (  8)  1.821670
   H (  9)  3.479863  4.134329
   H ( 10)  3.625497  4.174381  1.757129
   H ( 11)  2.488101  3.735191  1.771882  1.780885
 
 Final energy is   -1038.23613118292     


 ******************************
 **  OPTIMIZATION CONVERGED  **
 ******************************

                       Coordinates (Angstroms)
     ATOM                X               Y               Z
      1  Cl       -0.5601048926    3.2591156843   -0.4240360068
      2  Cl        1.2925662686    1.2557512745   -0.0360115634
      3  C        -0.7295266026   -0.7308506030   -0.1971699737
      4  C         0.1502147500   -0.0364645377   -1.0892638260
      5  C        -0.3536267625   -1.9779064774    0.5208509791
      6  H        -1.6553580029   -0.2335097887    0.0809155070
      7  H         0.9314745425   -0.6330444400   -1.5558726493
      8  H        -0.3144980821    0.6800921782   -1.7600905754
      9  H        -0.1010180053   -1.7604441935    1.5702075099
     10  H        -1.1904887616   -2.6858135548    0.5483234402
     11  H         0.5106615485   -2.4715235420    0.0669511583

Z-matrix Print:
$molecule
0 3
Cl
C  1 2.020923
H  2 1.086011 1 98.158730
H  2 1.088117 1 99.683752 3 116.014586 0
C  2 1.432462 1 109.423058 3 -121.582377 0
H  5 1.087126 2 117.423622 1 83.304588 0
C  5 1.487280 2 123.496733 1 -86.948856 0
H  7 1.093927 5 112.192626 2 -18.237754 0
H  7 1.096460 5 111.133392 2 -140.285266 0
H  7 1.101022 5 110.640265 2 102.007962 0
Cl 1 2.756161 2 90.655161 3 30.160614 0
$end

PES scan, value:    4.0000 energy: -1038.2361311829
------- Summary of potential scan: ------ 
    4.0000     -1038.2361311829
----------------------------------------- 
Archival summary:
1\1\hpc0332\JobtypUnspecified\ProcedureUnspecified\6-31G**\l236(3)\knomura\TueMar1203:20:102019TueMar1203:20:102019\0\\#,JobtypUnspecified,ProcedureUnspecified,6-31G**,\\0,3\Cl\C,1,2.02092\H,2,1.08601,1,98.1587\H,2,1.08812,1,99.6838,3,116.015,0\C,2,1.43246,1,109.423,3,-121.582,0\H,5,1.08713,2,117.424,1,83.3046,0\C,5,1.48728,2,123.497,1,-86.9489,0\H,7,1.09393,5,112.193,2,-18.2378,0\H,7,1.09646,5,111.133,2,-140.285,0\H,7,1.10102,5,110.64,2,102.008,0\Cl,1,2.75616,2,90.6552,3,30.1606,0\\\@

 Total job time:  43.62s(wall), 505.56s(cpu) 
 Tue Mar 12 03:20:10 2019

        *************************************************************
        *                                                           *
        *  Thank you very much for using Q-Chem.  Have a nice day.  *
        *                                                           *
        *************************************************************


