
Running Job 1 of 1 halogens/Flourine/02/F_3.xyz.data/inputs/bond_singlet_2.1.in
qchem halogens/Flourine/02/F_3.xyz.data/inputs/bond_singlet_2.1.in_29824.0 /staging/scratch/2868761/qchem29824/ 1
/usr/usc/qchem/5.1.1/exe/qcprog.exe_s halogens/Flourine/02/F_3.xyz.data/inputs/bond_singlet_2.1.in_29824.0 /staging/scratch/2868761/qchem29824/
Check license passed

                  Welcome to Q-Chem
     A Quantum Leap Into The Future Of Chemistry


 Q-Chem 5.1, Q-Chem, Inc., Pleasanton, CA (2018)

 Yihan Shao,  Zhengting Gan,  E. Epifanovsky,  A. T. B. Gilbert,  M. Wormit,  
 J. Kussmann,  A. W. Lange,  A. Behn,  Jia Deng,  Xintian Feng,  D. Ghosh,  
 M. Goldey,  P. R. Horn,  L. D. Jacobson,  I. Kaliman,  T. Kus,  A. Landau,  
 Jie Liu,  E. I. Proynov,  R. M. Richard,  R. P. Steele,  E. J. Sundstrom,  
 H. L. Woodcock III,  P. M. Zimmerman,  D. Zuev,  B. Albrecht,  E. Alguire,  
 S. A. Baeppler,  D. Barton,  Z. Benda,  Y. A. Bernard,  E. J. Berquist,  
 K. B. Bravaya,  H. Burton,  D. Casanova,  Chun-Min Chang,  Yunqing Chen,  
 A. Chien,  K. D. Closser,  M. P. Coons,  S. Coriani,  S. Dasgupta,  
 A. L. Dempwolff,  M. Diedenhofen,  Hainam Do,  R. G. Edgar,  Po-Tung Fang,  
 S. Faraji,  S. Fatehi,  Qingguo Feng,  K. D. Fenk,  J. Fosso-Tande,  
 Qinghui Ge,  A. Ghysels,  G. Gidofalvi,  J. Gomes,  J. Gonthier,  A. Gunina,  
 D. Hait,  M. W. D. Hanson-Heine,  P. H. P. Harbach,  A. W. Hauser,  
 J. E. Herr,  E. G. Hohenstein,  Z. C. Holden,  Kerwin Hui,  B. C. Huynh,  
 T.-C. Jagau,  Hyunjun Ji,  B. Kaduk,  K. Khistyaev,  Jaehoon Kim,  
 P. Klunzinger,  K. Koh,  D. Kosenkov,  L. Koulias,  T. Kowalczyk,  
 C. M. Krauter,  A. Kunitsa,  Ka Un Lao,  A. Laurent,  K. V. Lawler,  
 Joonho Lee,  D. Lefrancois,  S. Lehtola,  D. S. Levine,  Yi-Pei Li,  
 You-Sheng Lin,  Fenglai Liu,  E. Livshits,  A. Luenser,  P. Manohar,  
 E. Mansoor,  S. F. Manzer,  Shan-Ping Mao,  Yuezhi Mao,  N. Mardirossian,  
 A. V. Marenich,  T. Markovich,  L. A. Martinez-Martinez,  S. A. Maurer,  
 N. J. Mayhall,  S. C. McKenzie,  J.-M. Mewes,  A. F. Morrison,  
 J. W. Mullinax,  K. Nanda,  T. S. Nguyen-Beck,  R. Olivares-Amaya,  
 J. A. Parkhill,  T. M. Perrine,  F. Plasser,  P. Pokhilko,  S. Prager,  
 A. Prociuk,  E. Ramos,  D. R. Rehn,  F. Rob,  M. Schneider,  N. Sergueev,  
 S. M. Sharada,  S. Sharma,  D. W. Small,  T. Stauch,  T. Stein,  
 Yu-Chuan Su,  A. J. W. Thom,  A. Tkatchenko,  T. Tsuchimochi,  N. M. Tubman,  
 L. Vogt,  M. L. Vidal,  O. Vydrov,  M. A. Watson,  J. Wenzel,  
 M. de Wergifosse,  T. A. Wesolowski,  A. White,  J. Witte,  A. Yamada,  
 Jun Yang,  K. Yao,  S. Yeganeh,  S. R. Yost,  Zhi-Qiang You,  A. Zech,  
 Igor Ying Zhang,  Xing Zhang,  Yan Zhao,  Ying Zhu,  B. R. Brooks,  
 G. K. L. Chan,  C. J. Cramer,  M. S. Gordon,  W. J. Hehre,  A. Klamt,  
 M. W. Schmidt,  C. D. Sherrill,  D. G. Truhlar,  A. Aspuru-Guzik,  R. Baer,  
 A. T. Bell,  N. A. Besley,  Jeng-Da Chai,  A. E. DePrince, III,  
 R. A. DiStasio Jr.,  A. Dreuw,  B. D. Dunietz,  T. R. Furlani,  
 Chao-Ping Hsu,  Yousung Jung,  Jing Kong,  D. S. Lambrecht,  WanZhen Liang,  
 C. Ochsenfeld,  V. A. Rassolov,  L. V. Slipchenko,  J. E. Subotnik,  
 T. Van Voorhis,  J. M. Herbert,  A. I. Krylov,  P. M. W. Gill,  M. Head-Gordon

 Contributors to earlier versions of Q-Chem not listed above: 
 R. D. Adamson,  B. Austin,  J. Baker,  G. J. O. Beran,  K. Brandhorst,  
 S. T. Brown,  E. F. C. Byrd,  A. K. Chakraborty,  C.-L. Cheng,  
 Siu Hung Chien,  D. M. Chipman,  D. L. Crittenden,  H. Dachsel,  
 R. J. Doerksen,  A. D. Dutoi,  L. Fusti-Molnar,  W. A. Goddard III,  
 A. Golubeva-Zadorozhnaya,  S. R. Gwaltney,  G. Hawkins,  A. Heyden,  
 S. Hirata,  G. Kedziora,  F. J. Keil,  C. Kelley,  Jihan Kim,  R. A. King,  
 R. Z. Khaliullin,  P. P. Korambath,  W. Kurlancheek,  A. M. Lee,  M. S. Lee,  
 S. V. Levchenko,  Ching Yeh Lin,  D. Liotard,  R. C. Lochan,  I. Lotan,  
 P. E. Maslen,  N. Nair,  D. P. O'Neill,  D. Neuhauser,  E. Neuscamman,  
 C. M. Oana,  R. Olson,  B. Peters,  R. Peverati,  P. A. Pieniazek,  
 Y. M. Rhee,  J. Ritchie,  M. A. Rohrdanz,  E. Rosta,  N. J. Russ,  
 H. F. Schaefer III,  N. E. Schultz,  N. Shenvi,  A. C. Simmonett,  A. Sodt,  
 D. Stuck,  K. S. Thanthiriwatte,  V. Vanovschi,  Tao Wang,  A. Warshel,  
 C. F. Williams,  Q. Wu,  X. Xu,  W. Zhang

 Please cite Q-Chem as follows:
 Y. Shao et al., Mol. Phys. 113, 184-215 (2015)
 DOI: 10.1080/00268976.2014.952696

 Q-Chem 5.1.1 for Intel X86 EM64T Linux

 Parts of Q-Chem use Armadillo 8.300.2 (Tropical Shenanigans).
 http://arma.sourceforge.net/

 Q-Chem begins on Wed Mar 13 15:05:56 2019  

Host: 
0

     Scratch files written to /staging/scratch/2868761/qchem29824//
 Aug318 |scratch|qcdevops|jenkins|workspace|build_RNUM 6013   
Processing $rem in /usr/usc/qchem/5.1.1/config/preferences.
 MEM_TOTAL  2000 
Input Ideriv = 2
Curr. Ideriv = -1
Max.  Ideriv = 2

Checking the input file for inconsistencies... 	...done.

--------------------------------------------------------------
User input:
--------------------------------------------------------------

$comment
potential surface scanner
$end

$rem
JOBTYPE  PES_SCAN
UNRESTRICTED TRUE
SYM_IGNORE  TRUE
GEOM_OPT_MAX_CYCLES 400
SCF_MAX_CYCLES 400
METHOD   B3LYP
BASIS   6-31G**
PDB_PRINT 2
SCF_CONVERGENCE 6
THRESH 14
SCF_PRINT 1
$end
$molecule
0 1
F 1.448591 0.994117 0.319175
C -0.677088 -0.684991 0.258439
C 0.666804 -0.716209 -0.361703
C -1.495827 0.543037 -0.146772
H -0.565135 -0.741914 1.345610
H -1.184039 -1.617387 -0.048671
H 1.421918 -1.385155 0.037633
H 0.759600 -0.485170 -1.418671
H -2.462149 0.556856 0.364411
H -0.923906 1.432791 0.119911
H -1.681868 0.559226 -1.226158
$end
$scan
stre 1 3 2.100000 2.101000 0.100000
$end
--------------------------------------------------------------
 ----------------------------------------------------------------
             Standard Nuclear Orientation (Angstroms)
    I     Atom           X                Y                Z
 ----------------------------------------------------------------
    1      F       1.4485910000     0.9941170000     0.3191750000
    2      C      -0.6770880000    -0.6849910000     0.2584390000
    3      C       0.6668040000    -0.7162090000    -0.3617030000
    4      C      -1.4958270000     0.5430370000    -0.1467720000
    5      H      -0.5651350000    -0.7419140000     1.3456100000
    6      H      -1.1840390000    -1.6173870000    -0.0486710000
    7      H       1.4219180000    -1.3851550000     0.0376330000
    8      H       0.7596000000    -0.4851700000    -1.4186710000
    9      H      -2.4621490000     0.5568560000     0.3644110000
   10      H      -0.9239060000     1.4327910000     0.1199110000
   11      H      -1.6818680000     0.5592260000    -1.2261580000
 ----------------------------------------------------------------
 Nuclear Repulsion Energy =   121.8540296887 hartrees
 There are       17 alpha and       17 beta electrons
 Requested basis set is 6-31G(d,p)
 There are 37 shells and 95 basis functions

 Total QAlloc Memory Limit   2000 MB
 Mega-Array Size       188 MB
 MEM_STATIC part       192 MB
A total of 1 constraints
  
            1
    1   1.0100000
    2   1.0100000
    3   3.0100000
    4   2.1000000
    5   2.1010000
    6   0.1000000
    7   0.0000000
    8   0.0000000
    9   0.0000000
   10   0.0000000

                       Distance Matrix (Angstroms)
             F (  1)   C (  2)   C (  3)   C (  4)   H (  5)   H (  6)
   C (  2)  2.709539
   C (  3)  2.000000  1.480404
   C (  4)  3.014992  1.530550  2.511746
   H (  5)  2.849994  1.094401  2.105529  2.178185
   H (  6)  3.726393  1.104843  2.082242  2.185010  1.758839
   H (  7)  2.396020  2.223693  1.084968  3.502166  2.464334  2.617707
   H (  8)  2.383927  2.217363  1.085897  2.786016  3.076051  2.633733
   H (  9)  3.935369  2.177121  3.455182  1.093287  2.499643  2.555687
   H ( 10)  2.420926  2.136612  2.716710  1.090814  2.521983  3.065889
   H ( 11)  3.518090  2.182129  2.808964  1.095421  3.090962  2.524273
             H (  7)   H (  8)   H (  9)   H ( 10)
   H (  8)  1.835609
   H (  9)  4.354787  3.826861
   H ( 10)  3.667490  2.979933  1.786962
   H ( 11)  3.874438  2.662441  1.771653  1.774690
 
 A cutoff of  1.0D-14 yielded    692 shell pairs
 There are      4649 function pairs
 
 -------------------------------------------------------
 OpenMP Integral Computing Module                       
 Release: version 1.0, May 2013, Q-Chem Inc. Pittsburgh 
 -------------------------------------------------------
 Integral Job Info:
 Integral job number is                      11
 Integral operator is                         1
 short-range coefficients                     0
 long-range coefficients              100000000
 Omega coefficients                           0
 if combine SR and LR in K                    0
 Integral screening is                        0
 Integral computing path is                   2
 max size of driver memory is            800000
 size of driver memory is                593474
 size of scratch memory is              2361544
 max col of scratch BK array               1296
 max len of scratch array in speh3          155
 max len of scratch index in speh4           18
 max int batch size is                      520
 min int batch size is                       52
 fixed nKL is                                52
 max L of basis functions is                  2
 order of int derivative is                   0
 number of shells is                         37
 number of basis is                          95
 number of cartesian basis is                95
 number of contracted shell pairs           692
 number of primitive shell pairs           2431
 maxK2 (contraction) of shell pair           36
 max number of K2 of shell pair               1
 max number of CS2 of shell pair             58
 max number of PS2 of shell pair            228
 mem total for path MDJ                  514716
 -------------------------------------------------------
 Smallest overlap matrix eigenvalue = 5.65E-03

 Scale SEOQF with 1.000000e-01/1.000000e-01/1.000000e+00

 Standard Electronic Orientation quadrupole field applied
 Nucleus-field energy     =    -0.0000000047 hartrees
 Guess from superposition of atomic densities
 Warning:  Energy on first SCF cycle will be non-variational
 SAD guess density has 34.000000 electrons

 -----------------------------------------------------------------------
  General SCF calculation program by
  Eric Jon Sundstrom, Paul Horn, Yuezhi Mao, Dmitri Zuev, Alec White,
  David Stuck, Shaama M.S., Shane Yost, Joonho Lee, David Small,
  Daniel Levine, Susi Lehtola, Hugh Burton, Evgeny Epifanovsky
 -----------------------------------------------------------------------
 Exchange:     0.2000 Hartree-Fock + 0.0800 Slater + 0.7200 B88
 Correlation:  0.1900 VWN1RPA + 0.8100 LYP
 Using SG-1 standard quadrature grid
 using 12 threads for integral computing
 -------------------------------------------------------
 OpenMP Integral computing Module                
 Release: version 1.0, May 2013, Q-Chem Inc. Pittsburgh 
 -------------------------------------------------------
 -------------------------------------------------------
 OpenMP BLAS3 based DFT computing Module                
 Release: version 1.0, May 2013, Q-Chem Inc. Pittsburgh 
 -------------------------------------------------------
 A unrestricted SCF calculation will be
 performed using DIIS
 SCF converges when DIIS error is below 1.0e-06
 Alpha HF Exchange    Energy =  -2.78452490087043
 Beta HF Exchange     Energy =  -2.78452490087043
 DFT Correlation      Energy =  -1.43506088017871
 DFT Exchange         Energy = -21.83112416605715
 One-Electron (alpha) Energy = -267.94076634523935
 One-Electron (beta)  Energy = -267.94076634523935
 Total Coulomb        Energy = 224.41177161125327
 ---------------------------------------
  Cycle       Energy         DIIS error
 ---------------------------------------
    1    -218.4509662432      2.97e-02  
 Alpha HF Exchange    Energy =  -2.84523834288641
 Beta HF Exchange     Energy =  -2.84523834288641
 DFT Correlation      Energy =  -1.46557995442270
 DFT Exchange         Energy = -22.58835348594225
 One-Electron (alpha) Energy = -271.80276468334660
 One-Electron (beta)  Energy = -271.80276468334671
 Total Coulomb        Energy = 233.32027045690620
    2    -218.1756393519      5.53e-03  
 Alpha HF Exchange    Energy =  -2.72832683935465
 Beta HF Exchange     Energy =  -2.72832683935465
 DFT Correlation      Energy =  -1.43317394760811
 DFT Exchange         Energy = -21.69275413009440
 One-Electron (alpha) Energy = -266.92412650259126
 One-Electron (beta)  Energy = -266.92412650259126
 Total Coulomb        Energy = 222.94455348836550
    3    -217.6322515892      1.31e-02  
 Alpha HF Exchange    Energy =  -2.79529017816865
 Beta HF Exchange     Energy =  -2.79529017816865
 DFT Correlation      Energy =  -1.44758334576142
 DFT Exchange         Energy = -22.19548492312516
 One-Electron (alpha) Energy = -269.39387104538275
 One-Electron (beta)  Energy = -269.39387104538287
 Total Coulomb        Energy = 227.89219765880219
    4    -218.2751633732      2.59e-03  
 Alpha HF Exchange    Energy =  -2.79587502752509
 Beta HF Exchange     Energy =  -2.79587502752509
 DFT Correlation      Energy =  -1.45201032163032
 DFT Exchange         Energy = -22.22299428042479
 One-Electron (alpha) Energy = -269.91121005558693
 One-Electron (beta)  Energy = -269.91121005558693
 Total Coulomb        Energy = 228.92934656883534
    5    -218.3057985154      5.19e-04  
 Alpha HF Exchange    Energy =  -2.79643122648063
 Beta HF Exchange     Energy =  -2.79643122648063
 DFT Correlation      Energy =  -1.45167424736415
 DFT Exchange         Energy = -22.22630575335378
 One-Electron (alpha) Energy = -269.86943960971161
 One-Electron (beta)  Energy = -269.86943960971143
 Total Coulomb        Energy = 228.84907753643435
    6    -218.3066144526      1.92e-04  
 Alpha HF Exchange    Energy =  -2.79653068804690
 Beta HF Exchange     Energy =  -2.79653068804690
 DFT Correlation      Energy =  -1.45162224004888
 DFT Exchange         Energy = -22.22600934610702
 One-Electron (alpha) Energy = -269.86508480399345
 One-Electron (beta)  Energy = -269.86508480399351
 Total Coulomb        Energy = 228.84006149250214
    7    -218.3067713937      5.91e-05  
 Alpha HF Exchange    Energy =  -2.79675521329466
 Beta HF Exchange     Energy =  -2.79675521329466
 DFT Correlation      Energy =  -1.45166486075355
 DFT Exchange         Energy = -22.22756606058477
 One-Electron (alpha) Energy = -269.87327897530980
 One-Electron (beta)  Energy = -269.87327897530969
 Total Coulomb        Energy = 228.85848627955340
    8    -218.3067833350      1.78e-05  
 Alpha HF Exchange    Energy =  -2.79684021927869
 Beta HF Exchange     Energy =  -2.79684021927869
 DFT Correlation      Energy =  -1.45167527422532
 DFT Exchange         Energy = -22.22811704656975
 One-Electron (alpha) Energy = -269.87497105421630
 One-Electron (beta)  Energy = -269.87497105421647
 Total Coulomb        Energy = 228.86260062962776
    9    -218.3067845541      1.33e-06  
 Alpha HF Exchange    Energy =  -2.79684618754548
 Beta HF Exchange     Energy =  -2.79684618754548
 DFT Correlation      Energy =  -1.45167605500201
 DFT Exchange         Energy = -22.22815523471517
 One-Electron (alpha) Energy = -269.87513398225934
 One-Electron (beta)  Energy = -269.87513398225940
 Total Coulomb        Energy = 228.86297738365016
   10    -218.3067845616      2.68e-07  Convergence criterion met
 ---------------------------------------
 SCF time:   CPU 21.86s  wall 2.00s 
<S^2> =          0.000000000
 Alpha HF Exchange    Energy =  -2.79684618754548
 Beta HF Exchange     Energy =  -2.79684618754548
 DFT Correlation      Energy =  -1.45167605500201
 DFT Exchange         Energy = -22.22815523471517
 One-Electron (alpha) Energy = -269.87513398225934
 One-Electron (beta)  Energy = -269.87513398225940
 Total Coulomb        Energy = 228.86297738365016
 Nuclear repulsion Energy = 121.85402968403440
 SCF   energy in the final basis set =     -218.3067845616
 Total energy in the final basis set =     -218.3067845616
 
 --------------------------------------------------------------
 
                    Orbital Energies (a.u.)
 --------------------------------------------------------------
 
 Alpha MOs
 -- Occupied --
-24.587 -10.284 -10.214 -10.182  -1.016  -0.812  -0.698  -0.606
 -0.489  -0.466  -0.436  -0.378  -0.370  -0.362  -0.314  -0.282
 -0.281
 -- Virtual --
 -0.066   0.087   0.123   0.126   0.144   0.164   0.175   0.199
  0.217   0.251   0.483   0.499   0.532   0.543   0.556   0.638
  0.649   0.693   0.771   0.796   0.831   0.861   0.877   0.891
  0.910   0.937   0.973   1.118   1.224   1.251   1.296   1.367
  1.411   1.481   1.516   1.625   1.655   1.730   1.757   1.813
  1.866   1.906   1.931   1.964   1.997   2.007   2.043   2.066
  2.078   2.106   2.116   2.180   2.250   2.286   2.367   2.378
  2.417   2.481   2.525   2.616   2.645   2.693   2.753   2.799
  2.865   2.877   2.909   3.185   3.237   3.274   3.391   3.426
  3.487   3.530   3.779   4.289   4.443   4.614
 
 Beta MOs
 -- Occupied --
-24.587 -10.284 -10.214 -10.182  -1.016  -0.812  -0.698  -0.606
 -0.489  -0.466  -0.436  -0.378  -0.370  -0.362  -0.314  -0.282
 -0.281
 -- Virtual --
 -0.066   0.087   0.123   0.126   0.144   0.164   0.175   0.199
  0.217   0.251   0.483   0.499   0.532   0.543   0.556   0.638
  0.649   0.693   0.771   0.796   0.831   0.861   0.877   0.891
  0.910   0.937   0.973   1.118   1.224   1.251   1.296   1.367
  1.411   1.481   1.516   1.625   1.655   1.730   1.757   1.813
  1.866   1.906   1.931   1.964   1.997   2.007   2.043   2.066
  2.078   2.106   2.116   2.180   2.250   2.286   2.367   2.378
  2.417   2.481   2.525   2.616   2.645   2.693   2.753   2.799
  2.865   2.877   2.909   3.185   3.237   3.274   3.391   3.426
  3.487   3.530   3.779   4.289   4.443   4.614
 --------------------------------------------------------------
 
          Ground-State Mulliken Net Atomic Charges

     Atom                 Charge (a.u.)    Spin (a.u.)
  --------------------------------------------------------
      1 F                    -0.401873       0.000000
      2 C                    -0.204856      -0.000000
      3 C                    -0.005749      -0.000000
      4 C                    -0.322451       0.000000
      5 H                     0.141862      -0.000000
      6 H                     0.117744       0.000000
      7 H                     0.153830       0.000000
      8 H                     0.154845       0.000000
      9 H                     0.105804      -0.000000
     10 H                     0.158682      -0.000000
     11 H                     0.102162      -0.000000
  --------------------------------------------------------
  Sum of atomic charges =    -0.000000
  Sum of spin   charges =     0.000000

 -----------------------------------------------------------------
                    Cartesian Multipole Moments
 -----------------------------------------------------------------
    Charge (ESU x 10^10)
                 0.0000
    Dipole Moment (Debye)
         X      -1.9522      Y      -3.1490      Z      -1.0389
       Tot       3.8480
    Quadrupole Moments (Debye-Ang)
        XX     -27.4129     XY      -3.6827     YY     -25.0103
        XZ      -1.4809     YZ      -0.2486     ZZ     -23.8422
    Octopole Moments (Debye-Ang^2)
       XXX       7.3037    XXY      -5.1547    XYY       3.1475
       YYY      -1.6324    XXZ      -0.5470    XYZ      -0.5778
       YYZ       0.1132    XZZ       4.1754    YZZ      -0.3944
       ZZZ      -0.5432
    Hexadecapole Moments (Debye-Ang^3)
      XXXX    -248.4493   XXXY      -8.3855   XXYY     -61.9383
      XYYY      -2.8429   YYYY    -122.2292   XXXZ      -5.9993
      XXYZ      -1.6514   XYYZ      -0.7395   YYYZ      -2.3947
      XXZZ     -49.6149   XYZZ      -0.8290   YYZZ     -30.6883
      XZZZ      -3.8755   YZZZ      -3.5672   ZZZZ     -50.8931
 -----------------------------------------------------------------
 Calculating analytic gradient of the SCF energy
 Gradient of SCF Energy
            1           2           3           4           5           6
    1   0.0292861  -0.0000809  -0.0291592  -0.0000274   0.0000345   0.0000039
    2   0.0639764  -0.0000488  -0.0640658  -0.0000032   0.0001019   0.0000021
    3   0.0254608  -0.0000701  -0.0254958   0.0000028   0.0000310   0.0000966
            7           8           9          10          11
    1  -0.0000329  -0.0000080  -0.0000173   0.0000021  -0.0000008
    2  -0.0000674   0.0000675   0.0000494  -0.0000089  -0.0000033
    3  -0.0000388   0.0000202  -0.0000027   0.0000030  -0.0000068
 Max gradient component =       6.407E-02
 RMS gradient           =       1.843E-02
 Gradient time:  CPU 7.47 s  wall 0.68 s
 Geometry Optimization Parameters
   NAtoms,    NIC,     NZ,  NCons,   NDum,   NFix, NCnnct, MaxDiis
       11      68       0       1       0       0       0       0


** CONSTRAINED OPTIMIZATION IN DELOCALIZED INTERNAL COORDINATES **
   Searching for a Minimum

   Optimization Cycle:   1

                       Coordinates (Angstroms)
     ATOM                X               Y               Z
      1  F         1.4485910000    0.9941170000    0.3191750000
      2  C        -0.6770880000   -0.6849910000    0.2584390000
      3  C         0.6668040000   -0.7162090000   -0.3617030000
      4  C        -1.4958270000    0.5430370000   -0.1467720000
      5  H        -0.5651350000   -0.7419140000    1.3456100000
      6  H        -1.1840390000   -1.6173870000   -0.0486710000
      7  H         1.4219180000   -1.3851550000    0.0376330000
      8  H         0.7596000000   -0.4851700000   -1.4186710000
      9  H        -2.4621490000    0.5568560000    0.3644110000
     10  H        -0.9239060000    1.4327910000    0.1199110000
     11  H        -1.6818680000    0.5592260000   -1.2261580000
   Point Group: c1    Number of degrees of freedom:    27


   Energy is   -218.306784562

              Constraints and their Current Values
                                        Value     Constraint
   Distance(Angs):        1   3             2.000000     2.100000

 Attempting to Generate Delocalized Internal Coordinates

   Using Lagrange Multiplier Algorithm


 28 Hessian modes will be used to form the next step
  Hessian Eigenvalues:
    -0.956661    0.045000    0.045000    0.067897    0.068750    0.077953
     0.082966    0.085196    0.090025    0.104352    0.132480    0.160000
     0.160000    0.160000    0.160000    0.160000    0.219273    0.220593
     0.293727    0.331522    0.341936    0.343089    0.344355    0.345234
     0.347187    0.352912    0.354007    1.045302

 Minimum Search - Taking P-RFO Step
 Searching for Lamda that Maximizes Along the Constraint modes Only
 Value Taken    Lamda =   0.03572371
 Searching for Lamda that Minimizes Along All other modes
 Value Taken    Lamda =  -0.00557686
 Step Taken.  Stepsize is  0.183812

                             Maximum     Tolerance    Cnvgd?
         Gradient            0.188972       0.000300      NO
         Displacement        0.183794       0.001200      NO
         Energy change     *********       0.000001      NO


 New Cartesian Coordinates Obtained by Inverse Iteration

 Displacement from previous Coordinates is:  0.169262
 ----------------------------------------------------------------
             Standard Nuclear Orientation (Angstroms)
    I     Atom           X                Y                Z
 ----------------------------------------------------------------
    1      F       1.4882528985     1.0626506507     0.3437562481
    2      C      -0.6821264657    -0.6914028013     0.2563750661
    3      C       0.6601080765    -0.7284321686    -0.3666637665
    4      C      -1.4963502068     0.5398893176    -0.1477864584
    5      H      -0.5682188026    -0.7484326436     1.3433051711
    6      H      -1.1936032571    -1.6218226634    -0.0493559102
    7      H       1.4135402194    -1.3998277790     0.0317262729
    8      H       0.7514553333    -0.4990248545    -1.4241214392
    9      H      -2.4614339012     0.5578697906     0.3655406890
   10      H      -0.9200842712     1.4273767105     0.1171921103
   11      H      -1.6846386230     0.5563574411    -1.2267639832
 ----------------------------------------------------------------
 Nuclear Repulsion Energy =   120.4507216339 hartrees
 There are       17 alpha and       17 beta electrons

                       Distance Matrix (Angstroms)
             F (  1)   C (  2)   C (  3)   C (  4)   H (  5)   H (  6)
   C (  2)  2.791932
   C (  3)  2.097260  1.480251
   C (  4)  3.069650  1.530486  2.511346
   H (  5)  2.916881  1.094369  2.105512  2.178200
   H (  6)  3.814877  1.104881  2.082085  2.185027  1.758812
   H (  7)  2.483293  2.223545  1.084964  3.501741  2.464127  2.617834
   H (  8)  2.471253  2.217258  1.085905  2.785858  3.076100  2.633231
   H (  9)  3.981872  2.176817  3.454666  1.093259  2.499342  2.555502
   H ( 10)  2.446312  2.136638  2.716365  1.090839  2.522164  3.065969
   H ( 11)  3.576326  2.182118  2.808611  1.095407  3.090975  2.524257
             H (  7)   H (  8)   H (  9)   H ( 10)
   H (  8)  1.835564
   H (  9)  4.354243  3.826562
   H ( 10)  3.666905  2.980053  1.787030
   H ( 11)  3.874167  2.662205  1.771679  1.774665
 
 Applying Cartesian multipole field
    Component          Value
    ---------          -----
     (2,0,0)        1.00000E-11
     (0,2,0)        2.00000E-11
     (0,0,2)       -3.00000E-10
 Nucleus-field energy     =    -0.0000000047 hartrees
 Requested basis set is 6-31G(d,p)
 There are 37 shells and 95 basis functions
 A cutoff of  1.0D-14 yielded    691 shell pairs
 There are      4648 function pairs
 Smallest overlap matrix eigenvalue = 5.73E-03
 Guess from superposition of atomic densities
 Warning:  Energy on first SCF cycle will be non-variational
 SAD guess density has 34.000000 electrons

 -----------------------------------------------------------------------
  General SCF calculation program by
  Eric Jon Sundstrom, Paul Horn, Yuezhi Mao, Dmitri Zuev, Alec White,
  David Stuck, Shaama M.S., Shane Yost, Joonho Lee, David Small,
  Daniel Levine, Susi Lehtola, Hugh Burton, Evgeny Epifanovsky
 -----------------------------------------------------------------------
 Exchange:     0.2000 Hartree-Fock + 0.0800 Slater + 0.7200 B88
 Correlation:  0.1900 VWN1RPA + 0.8100 LYP
 Using SG-1 standard quadrature grid
 using 12 threads for integral computing
 -------------------------------------------------------
 OpenMP Integral computing Module                
 Release: version 1.0, May 2013, Q-Chem Inc. Pittsburgh 
 -------------------------------------------------------
 -------------------------------------------------------
 OpenMP BLAS3 based DFT computing Module                
 Release: version 1.0, May 2013, Q-Chem Inc. Pittsburgh 
 -------------------------------------------------------
 A unrestricted SCF calculation will be
 performed using DIIS
 SCF converges when DIIS error is below 1.0e-06
 Alpha HF Exchange    Energy =  -2.78235407563617
 Beta HF Exchange     Energy =  -2.78235407563617
 DFT Correlation      Energy =  -1.43355934802248
 DFT Exchange         Energy = -21.82649538128157
 One-Electron (alpha) Energy = -266.54007501919835
 One-Electron (beta)  Energy = -266.54007501919835
 Total Coulomb        Energy = 223.02218113895526
 ---------------------------------------
  Cycle       Energy         DIIS error
 ---------------------------------------
    1    -218.4320101508      2.95e-02  
 Alpha HF Exchange    Energy =  -2.84713005383338
 Beta HF Exchange     Energy =  -2.84713005383338
 DFT Correlation      Energy =  -1.46462678294489
 DFT Exchange         Energy = -22.59983347851228
 One-Electron (alpha) Energy = -270.44345228610399
 One-Electron (beta)  Energy = -270.44345228610382
 Total Coulomb        Energy = 232.04878450987653
    2    -218.1461188023      5.79e-03  
 Alpha HF Exchange    Energy =  -2.72331738105943
 Beta HF Exchange     Energy =  -2.72331738105942
 DFT Correlation      Energy =  -1.43045971167165
 DFT Exchange         Energy = -21.64298887666309
 One-Electron (alpha) Energy = -265.28534808987945
 One-Electron (beta)  Energy = -265.28534808987934
 Total Coulomb        Energy = 221.30090921767325
    3    -217.3391486834      1.49e-02  
 Alpha HF Exchange    Energy =  -2.79408171573293
 Beta HF Exchange     Energy =  -2.79408171573294
 DFT Correlation      Energy =  -1.44585812062783
 DFT Exchange         Energy = -22.18605590343078
 One-Electron (alpha) Energy = -267.93991131515901
 One-Electron (beta)  Energy = -267.93991131515907
 Total Coulomb        Energy = 226.39569055845291
    4    -218.2534878982      2.84e-03  
 Alpha HF Exchange    Energy =  -2.79436768726609
 Beta HF Exchange     Energy =  -2.79436768726609
 DFT Correlation      Energy =  -1.45084196695028
 DFT Exchange         Energy = -22.21720152939132
 One-Electron (alpha) Energy = -268.52531544948653
 One-Electron (beta)  Energy = -268.52531544948647
 Total Coulomb        Energy = 227.56507958357622
    5    -218.2916085571      6.62e-04  
 Alpha HF Exchange    Energy =  -2.79464600684468
 Beta HF Exchange     Energy =  -2.79464600684467
 DFT Correlation      Energy =  -1.45031994787116
 DFT Exchange         Energy = -22.21824684701221
 One-Electron (alpha) Energy = -268.45939895543523
 One-Electron (beta)  Energy = -268.45939895543501
 Total Coulomb        Energy = 227.43305391129391
    6    -218.2928811790      2.80e-04  
 Alpha HF Exchange    Energy =  -2.79488559682346
 Beta HF Exchange     Energy =  -2.79488559682346
 DFT Correlation      Energy =  -1.45027622310923
 DFT Exchange         Energy = -22.21856797658430
 One-Electron (alpha) Energy = -268.45704809382772
 One-Electron (beta)  Energy = -268.45704809382778
 Total Coulomb        Energy = 227.42878908021152
    7    -218.2932008716      1.08e-04  
 Alpha HF Exchange    Energy =  -2.79526728736361
 Beta HF Exchange     Energy =  -2.79526728736361
 DFT Correlation      Energy =  -1.45034007874235
 DFT Exchange         Energy = -22.22111849503841
 One-Electron (alpha) Energy = -268.46902444533936
 One-Electron (beta)  Energy = -268.46902444533941
 Total Coulomb        Energy = 227.45607954313323
    8    -218.2932408669      3.85e-05  
 Alpha HF Exchange    Energy =  -2.79545511013622
 Beta HF Exchange     Energy =  -2.79545511013622
 DFT Correlation      Energy =  -1.45036210877749
 DFT Exchange         Energy = -22.22231261143580
 One-Electron (alpha) Energy = -268.47268168271620
 One-Electron (beta)  Energy = -268.47268168271620
 Total Coulomb        Energy = 227.46497993120360
    9    -218.2932467455      1.91e-06  
 Alpha HF Exchange    Energy =  -2.79546206666013
 Beta HF Exchange     Energy =  -2.79546206666013
 DFT Correlation      Energy =  -1.45036278420901
 DFT Exchange         Energy = -22.22235476363609
 One-Electron (alpha) Energy = -268.47286640591017
 One-Electron (beta)  Energy = -268.47286640591011
 Total Coulomb        Energy = 227.46540610282381
   10    -218.2932467610      5.64e-07  Convergence criterion met
 ---------------------------------------
 SCF time:   CPU 21.52s  wall 2.00s 
<S^2> =         -0.000000000
 Alpha HF Exchange    Energy =  -2.79546206666013
 Beta HF Exchange     Energy =  -2.79546206666013
 DFT Correlation      Energy =  -1.45036278420901
 DFT Exchange         Energy = -22.22235476363609
 One-Electron (alpha) Energy = -268.47286640591017
 One-Electron (beta)  Energy = -268.47286640591011
 Total Coulomb        Energy = 227.46540610282381
 Nuclear repulsion Energy = 120.45072162917927
 SCF   energy in the final basis set =     -218.2932467610
 Total energy in the final basis set =     -218.2932467610
 
 --------------------------------------------------------------
 
                    Orbital Energies (a.u.)
 --------------------------------------------------------------
 
 Alpha MOs
 -- Occupied --
-24.579 -10.288 -10.217 -10.184  -1.006  -0.816  -0.700  -0.609
 -0.492  -0.468  -0.438  -0.380  -0.372  -0.364  -0.303  -0.275
 -0.274
 -- Virtual --
 -0.082   0.085   0.121   0.123   0.143   0.162   0.173   0.198
  0.214   0.249   0.479   0.497   0.535   0.541   0.554   0.632
  0.646   0.691   0.764   0.791   0.828   0.858   0.875   0.890
  0.909   0.932   0.964   1.113   1.211   1.258   1.290   1.361
  1.398   1.479   1.512   1.611   1.652   1.724   1.774   1.818
  1.867   1.908   1.941   1.971   1.994   2.003   2.042   2.063
  2.070   2.097   2.111   2.166   2.242   2.278   2.335   2.376
  2.405   2.447   2.505   2.612   2.638   2.689   2.749   2.795
  2.857   2.875   2.904   3.183   3.232   3.270   3.387   3.422
  3.483   3.525   3.751   4.276   4.439   4.610
 
 Beta MOs
 -- Occupied --
-24.579 -10.288 -10.217 -10.184  -1.006  -0.816  -0.700  -0.609
 -0.492  -0.468  -0.438  -0.380  -0.372  -0.364  -0.303  -0.275
 -0.274
 -- Virtual --
 -0.082   0.085   0.121   0.123   0.143   0.162   0.173   0.198
  0.214   0.249   0.479   0.497   0.535   0.541   0.554   0.632
  0.646   0.691   0.764   0.791   0.828   0.858   0.875   0.890
  0.909   0.932   0.964   1.113   1.211   1.258   1.290   1.361
  1.398   1.479   1.512   1.611   1.652   1.724   1.774   1.818
  1.867   1.908   1.941   1.971   1.994   2.003   2.042   2.063
  2.070   2.097   2.111   2.166   2.242   2.278   2.335   2.376
  2.405   2.447   2.505   2.612   2.638   2.689   2.749   2.795
  2.857   2.875   2.904   3.183   3.232   3.270   3.387   3.422
  3.483   3.525   3.751   4.276   4.439   4.610
 --------------------------------------------------------------
 
          Ground-State Mulliken Net Atomic Charges

     Atom                 Charge (a.u.)    Spin (a.u.)
  --------------------------------------------------------
      1 F                    -0.404957       0.000000
      2 C                    -0.209195       0.000000
      3 C                    -0.018056      -0.000000
      4 C                    -0.323229       0.000000
      5 H                     0.145605      -0.000000
      6 H                     0.122779      -0.000000
      7 H                     0.157333      -0.000000
      8 H                     0.158271      -0.000000
      9 H                     0.106781      -0.000000
     10 H                     0.161807      -0.000000
     11 H                     0.102862      -0.000000
  --------------------------------------------------------
  Sum of atomic charges =    -0.000000
  Sum of spin   charges =     0.000000

 -----------------------------------------------------------------
                    Cartesian Multipole Moments
 -----------------------------------------------------------------
    Charge (ESU x 10^10)
                -0.0000
    Dipole Moment (Debye)
         X      -2.1575      Y      -3.4110      Z      -1.1183
       Tot       4.1881
    Quadrupole Moments (Debye-Ang)
        XX     -27.6601     XY      -4.0221     YY     -25.1291
        XZ      -1.6142     YZ      -0.3167     ZZ     -23.8039
    Octopole Moments (Debye-Ang^2)
       XXX       6.0696    XXY      -6.0065    XYY       2.5091
       YYY      -2.9028    XXZ      -0.8093    XYZ      -0.6814
       YYZ      -0.0977    XZZ       3.9561    YZZ      -0.7327
       ZZZ      -0.8516
    Hexadecapole Moments (Debye-Ang^3)
      XXXX    -252.8419   XXXY     -11.7170   XXYY     -63.7334
      XYYY      -5.8100   YYYY    -127.2427   XXXZ      -7.1099
      XXYZ      -2.1358   XYYZ      -1.1737   YYYZ      -3.3938
      XXZZ     -50.3230   XYZZ      -1.7199   YYZZ     -31.6046
      XZZZ      -4.7560   YZZZ      -4.4360   ZZZZ     -51.1840
 -----------------------------------------------------------------
 Calculating analytic gradient of the SCF energy
 Gradient of SCF Energy
            1           2           3           4           5           6
    1   0.0291718  -0.0025480  -0.0245779   0.0004051   0.0001805  -0.0003907
    2   0.0613765  -0.0029745  -0.0557033  -0.0002200   0.0003260   0.0004530
    3   0.0243982  -0.0007895  -0.0228255   0.0001954  -0.0000532   0.0005124
            7           8           9          10          11
    1  -0.0009951  -0.0008136  -0.0000038  -0.0004441   0.0000156
    2  -0.0015924  -0.0017851   0.0000823   0.0000330   0.0000045
    3  -0.0008301  -0.0004614   0.0000045  -0.0001233  -0.0000276
 Max gradient component =       6.138E-02
 RMS gradient           =       1.694E-02
 Gradient time:  CPU 7.41 s  wall 0.65 s
 Geometry Optimization Parameters
   NAtoms,    NIC,     NZ,  NCons,   NDum,   NFix, NCnnct, MaxDiis
       11      68       0       1       0       0       0       0

 Cartesian Hessian Update
 Hessian Updated using BFGS Update
**WARNING** Hereditary positive definiteness endangered


** CONSTRAINED OPTIMIZATION IN DELOCALIZED INTERNAL COORDINATES **
   Searching for a Minimum

   Optimization Cycle:   2

                       Coordinates (Angstroms)
     ATOM                X               Y               Z
      1  F         1.4882528985    1.0626506507    0.3437562481
      2  C        -0.6821264657   -0.6914028013    0.2563750661
      3  C         0.6601080765   -0.7284321686   -0.3666637665
      4  C        -1.4963502068    0.5398893176   -0.1477864584
      5  H        -0.5682188026   -0.7484326436    1.3433051711
      6  H        -1.1936032571   -1.6218226634   -0.0493559102
      7  H         1.4135402194   -1.3998277790    0.0317262729
      8  H         0.7514553333   -0.4990248545   -1.4241214392
      9  H        -2.4614339012    0.5578697906    0.3655406890
     10  H        -0.9200842712    1.4273767105    0.1171921103
     11  H        -1.6846386230    0.5563574411   -1.2267639832
   Point Group: c1    Number of degrees of freedom:    27


   Energy is   -218.293246761

              Constraints and their Current Values
                                        Value     Constraint
   Distance(Angs):        1   3             2.097260     2.100000
 Hessian Updated using BFGS Update
**WARNING** Hereditary positive definiteness endangered

   Using Lagrange Multiplier Algorithm


 25 Hessian modes will be used to form the next step
  Hessian Eigenvalues:
    -1.007472    0.042509    0.045000    0.047497    0.067903    0.077945
     0.082947    0.085193    0.089686    0.103972    0.131358    0.157097
     0.159999    0.209968    0.219277    0.293696    0.331083    0.336744
     0.341936    0.343092    0.344355    0.347171    0.352912    0.354007
     0.993308

 Minimum Search - Taking P-RFO Step
 Searching for Lamda that Maximizes Along the Constraint modes Only
 Value Taken    Lamda =   0.00004517
 Searching for Lamda that Minimizes Along All other modes
 Value Taken    Lamda =  -0.00056116
 Step Taken.  Stepsize is  0.085358

                             Maximum     Tolerance    Cnvgd?
         Gradient            0.014531       0.000300      NO
         Displacement        0.065830       0.001200      NO
         Energy change      0.013538       0.000001      NO


 New Cartesian Coordinates Obtained by Inverse Iteration

 Displacement from previous Coordinates is:  0.108383
 ----------------------------------------------------------------
             Standard Nuclear Orientation (Angstroms)
    I     Atom           X                Y                Z
 ----------------------------------------------------------------
    1      F       1.4435992846     1.0656847935     0.3430624659
    2      C      -0.6817264191    -0.6948058504     0.2566031921
    3      C       0.6508584140    -0.7428147946    -0.3716940638
    4      C      -1.4883820162     0.5417392430    -0.1479477847
    5      H      -0.5654596226    -0.7508834060     1.3435104071
    6      H      -1.1937881229    -1.6265166209    -0.0475290876
    7      H       1.4203357852    -1.3915804220     0.0335554267
    8      H       0.7516732671    -0.4952289317    -1.4241614936
    9      H      -2.4517196759     0.5686740749     0.3682482657
   10      H      -0.8993213138     1.4218941876     0.1159691409
   11      H      -1.6791685804     0.5590387265    -1.2264124688
 ----------------------------------------------------------------
 Nuclear Repulsion Energy =   120.9159367221 hartrees
 There are       17 alpha and       17 beta electrons

                       Distance Matrix (Angstroms)
             F (  1)   C (  2)   C (  3)   C (  4)   H (  5)   H (  6)
   C (  2)  2.761125
   C (  3)  2.099997  1.474057
   C (  4)  3.018630  1.530816  2.505293
   H (  5)  2.887410  1.094546  2.102718  2.178786
   H (  6)  3.788974  1.105798  2.070926  2.190480  1.759693
   H (  7)  2.476790  2.225738  1.084997  3.497329  2.463708  2.625912
   H (  8)  2.457294  2.217980  1.085887  2.778826  3.075745  2.638134
   H (  9)  3.926979  2.177550  3.448697  1.093254  2.500069  2.564006
   H ( 10)  2.380700  2.132497  2.706813  1.091475  2.517793  3.066961
   H ( 11)  3.531518  2.183198  2.802569  1.095347  3.092046  2.530220
             H (  7)   H (  8)   H (  9)   H ( 10)
   H (  8)  1.837252
   H (  9)  4.352865  3.821825
   H ( 10)  3.647361  2.961950  1.789293
   H ( 11)  3.872901  2.656986  1.771968  1.776139
 
 Applying Cartesian multipole field
    Component          Value
    ---------          -----
     (2,0,0)        1.00000E-11
     (0,2,0)        2.00000E-11
     (0,0,2)       -3.00000E-10
 Nucleus-field energy     =    -0.0000000048 hartrees
 Requested basis set is 6-31G(d,p)
 There are 37 shells and 95 basis functions
 A cutoff of  1.0D-14 yielded    691 shell pairs
 There are      4648 function pairs
 Smallest overlap matrix eigenvalue = 5.68E-03
 Guess from superposition of atomic densities
 Warning:  Energy on first SCF cycle will be non-variational
 SAD guess density has 34.000000 electrons

 -----------------------------------------------------------------------
  General SCF calculation program by
  Eric Jon Sundstrom, Paul Horn, Yuezhi Mao, Dmitri Zuev, Alec White,
  David Stuck, Shaama M.S., Shane Yost, Joonho Lee, David Small,
  Daniel Levine, Susi Lehtola, Hugh Burton, Evgeny Epifanovsky
 -----------------------------------------------------------------------
 Exchange:     0.2000 Hartree-Fock + 0.0800 Slater + 0.7200 B88
 Correlation:  0.1900 VWN1RPA + 0.8100 LYP
 Using SG-1 standard quadrature grid
 using 12 threads for integral computing
 -------------------------------------------------------
 OpenMP Integral computing Module                
 Release: version 1.0, May 2013, Q-Chem Inc. Pittsburgh 
 -------------------------------------------------------
 -------------------------------------------------------
 OpenMP BLAS3 based DFT computing Module                
 Release: version 1.0, May 2013, Q-Chem Inc. Pittsburgh 
 -------------------------------------------------------
 A unrestricted SCF calculation will be
 performed using DIIS
 SCF converges when DIIS error is below 1.0e-06
 Alpha HF Exchange    Energy =  -2.78304610285619
 Beta HF Exchange     Energy =  -2.78304610285619
 DFT Correlation      Energy =  -1.43394649934857
 DFT Exchange         Energy = -21.82783085672321
 One-Electron (alpha) Energy = -267.00322184238757
 One-Electron (beta)  Energy = -267.00322184238757
 Total Coulomb        Energy = 223.47963608802880
 ---------------------------------------
  Cycle       Energy         DIIS error
 ---------------------------------------
    1    -218.4387404411      2.96e-02  
 Alpha HF Exchange    Energy =  -2.84767145616119
 Beta HF Exchange     Energy =  -2.84767145616120
 DFT Correlation      Energy =  -1.46505344876218
 DFT Exchange         Energy = -22.60341468168539
 One-Electron (alpha) Energy = -270.93549355179437
 One-Electron (beta)  Energy = -270.93549355179454
 Total Coulomb        Energy = 232.57402660696977
    2    -218.1448348220      5.81e-03  
 Alpha HF Exchange    Energy =  -2.72283105100275
 Beta HF Exchange     Energy =  -2.72283105100275
 DFT Correlation      Energy =  -1.43064979798087
 DFT Exchange         Energy = -21.63911818782751
 One-Electron (alpha) Energy = -265.68690977062101
 One-Electron (beta)  Energy = -265.68690977062101
 Total Coulomb        Energy = 221.66022825928232
    3    -217.3130846524      1.51e-02  
 Alpha HF Exchange    Energy =  -2.79451078334704
 Beta HF Exchange     Energy =  -2.79451078334704
 DFT Correlation      Energy =  -1.44623620120350
 DFT Exchange         Energy = -22.18872619100339
 One-Electron (alpha) Energy = -268.41365708185430
 One-Electron (beta)  Energy = -268.41365708185413
 Total Coulomb        Energy = 226.88305485299628
    4    -218.2523065522      2.87e-03  
 Alpha HF Exchange    Energy =  -2.79471921937359
 Beta HF Exchange     Energy =  -2.79471921937359
 DFT Correlation      Energy =  -1.45126066235262
 DFT Exchange         Energy = -22.21985787827913
 One-Electron (alpha) Energy = -269.00143704737729
 One-Electron (beta)  Energy = -269.00143704737724
 Total Coulomb        Energy = 228.05608284529865
    5    -218.2914115114      6.62e-04  
 Alpha HF Exchange    Energy =  -2.79490684821057
 Beta HF Exchange     Energy =  -2.79490684821057
 DFT Correlation      Energy =  -1.45071228801710
 DFT Exchange         Energy = -22.22030015113005
 One-Electron (alpha) Energy = -268.93124330715665
 One-Electron (beta)  Energy = -268.93124330715648
 Total Coulomb        Energy = 227.91470519668428
    6    -218.2926708358      2.86e-04  
 Alpha HF Exchange    Energy =  -2.79515744544640
 Beta HF Exchange     Energy =  -2.79515744544640
 DFT Correlation      Energy =  -1.45066915627212
 DFT Exchange         Energy = -22.22065408608494
 One-Electron (alpha) Energy = -268.92950314585926
 One-Electron (beta)  Energy = -268.92950314585937
 Total Coulomb        Energy = 227.91170349711595
    7    -218.2930042105      1.11e-04  
 Alpha HF Exchange    Energy =  -2.79554851876398
 Beta HF Exchange     Energy =  -2.79554851876398
 DFT Correlation      Energy =  -1.45073451375058
 DFT Exchange         Energy = -22.22326083795810
 One-Electron (alpha) Energy = -268.94188445203429
 One-Electron (beta)  Energy = -268.94188445203417
 Total Coulomb        Energy = 227.93987826398038
    8    -218.2930463119      4.02e-05  
 Alpha HF Exchange    Energy =  -2.79574481681716
 Beta HF Exchange     Energy =  -2.79574481681716
 DFT Correlation      Energy =  -1.45075738632474
 DFT Exchange         Energy = -22.22450448547668
 One-Electron (alpha) Energy = -268.94575541362582
 One-Electron (beta)  Energy = -268.94575541362593
 Total Coulomb        Energy = 227.94927288707902
    9    -218.2930527282      2.01e-06  
 Alpha HF Exchange    Energy =  -2.79575280060466
 Beta HF Exchange     Energy =  -2.79575280060466
 DFT Correlation      Energy =  -1.45075824786511
 DFT Exchange         Energy = -22.22455332822228
 One-Electron (alpha) Energy = -268.94599036944174
 One-Electron (beta)  Energy = -268.94599036944169
 Total Coulomb        Energy = 227.94980845322783
   10    -218.2930527456      5.49e-07  Convergence criterion met
 ---------------------------------------
 SCF time:   CPU 21.53s  wall 1.00s 
<S^2> =          0.000000000
 Alpha HF Exchange    Energy =  -2.79575280060466
 Beta HF Exchange     Energy =  -2.79575280060466
 DFT Correlation      Energy =  -1.45075824786511
 DFT Exchange         Energy = -22.22455332822228
 One-Electron (alpha) Energy = -268.94599036944174
 One-Electron (beta)  Energy = -268.94599036944169
 Total Coulomb        Energy = 227.94980845322783
 Nuclear repulsion Energy = 120.91593671738919
 SCF   energy in the final basis set =     -218.2930527456
 Total energy in the final basis set =     -218.2930527456
 
 --------------------------------------------------------------
 
                    Orbital Energies (a.u.)
 --------------------------------------------------------------
 
 Alpha MOs
 -- Occupied --
-24.577 -10.288 -10.217 -10.183  -1.005  -0.817  -0.700  -0.609
 -0.493  -0.468  -0.439  -0.380  -0.371  -0.364  -0.301  -0.274
 -0.272
 -- Virtual --
 -0.083   0.086   0.121   0.122   0.143   0.162   0.174   0.200
  0.217   0.251   0.478   0.498   0.535   0.543   0.554   0.634
  0.645   0.692   0.766   0.792   0.828   0.861   0.876   0.890
  0.910   0.934   0.965   1.114   1.213   1.258   1.294   1.369
  1.403   1.471   1.515   1.613   1.651   1.723   1.777   1.821
  1.868   1.910   1.944   1.973   1.995   2.008   2.042   2.062
  2.068   2.094   2.115   2.165   2.244   2.280   2.333   2.379
  2.410   2.452   2.506   2.609   2.643   2.691   2.745   2.798
  2.857   2.875   2.906   3.184   3.232   3.268   3.391   3.423
  3.484   3.526   3.759   4.285   4.439   4.612
 
 Beta MOs
 -- Occupied --
-24.577 -10.288 -10.217 -10.183  -1.005  -0.817  -0.700  -0.609
 -0.493  -0.468  -0.439  -0.380  -0.371  -0.364  -0.301  -0.274
 -0.272
 -- Virtual --
 -0.083   0.086   0.121   0.122   0.143   0.162   0.174   0.200
  0.217   0.251   0.478   0.498   0.535   0.543   0.554   0.634
  0.645   0.692   0.766   0.792   0.828   0.861   0.876   0.890
  0.910   0.934   0.965   1.114   1.213   1.258   1.294   1.369
  1.403   1.471   1.515   1.613   1.651   1.723   1.777   1.821
  1.868   1.910   1.944   1.973   1.995   2.008   2.042   2.062
  2.068   2.094   2.115   2.165   2.244   2.280   2.333   2.379
  2.410   2.452   2.506   2.609   2.643   2.691   2.745   2.798
  2.857   2.875   2.906   3.184   3.232   3.268   3.391   3.423
  3.484   3.526   3.759   4.285   4.439   4.612
 --------------------------------------------------------------
 
          Ground-State Mulliken Net Atomic Charges

     Atom                 Charge (a.u.)    Spin (a.u.)
  --------------------------------------------------------
      1 F                    -0.408159       0.000000
      2 C                    -0.207040       0.000000
      3 C                    -0.019324       0.000000
      4 C                    -0.323759      -0.000000
      5 H                     0.146006      -0.000000
      6 H                     0.121492      -0.000000
      7 H                     0.158795      -0.000000
      8 H                     0.160183       0.000000
      9 H                     0.105986       0.000000
     10 H                     0.163743       0.000000
     11 H                     0.102076       0.000000
  --------------------------------------------------------
  Sum of atomic charges =     0.000000
  Sum of spin   charges =     0.000000

 -----------------------------------------------------------------
                    Cartesian Multipole Moments
 -----------------------------------------------------------------
    Charge (ESU x 10^10)
                 0.0000
    Dipole Moment (Debye)
         X      -2.0645      Y      -3.4448      Z      -1.1255
       Tot       4.1707
    Quadrupole Moments (Debye-Ang)
        XX     -27.4637     XY      -3.9984     YY     -25.1548
        XZ      -1.6085     YZ      -0.3261     ZZ     -23.7789
    Octopole Moments (Debye-Ang^2)
       XXX       7.3069    XXY      -5.7904    XYY       2.7535
       YYY      -2.7883    XXZ      -0.7283    XYZ      -0.6799
       YYZ      -0.0867    XZZ       4.1797    YZZ      -0.6819
       ZZZ      -0.7793
    Hexadecapole Moments (Debye-Ang^3)
      XXXX    -246.6210   XXXY     -10.9826   XXYY     -62.9452
      XYYY      -5.2309   YYYY    -128.3994   XXXZ      -6.7342
      XXYZ      -2.1494   XYYZ      -1.0818   YYYZ      -3.4812
      XXZZ     -49.3934   XYZZ      -1.5380   YYZZ     -31.7939
      XZZZ      -4.5462   YZZZ      -4.5676   ZZZZ     -51.2323
 -----------------------------------------------------------------
 Calculating analytic gradient of the SCF energy
 Gradient of SCF Energy
            1           2           3           4           5           6
    1   0.0262662   0.0003355  -0.0277262   0.0003121  -0.0000341   0.0007328
    2   0.0605764  -0.0005732  -0.0596867  -0.0003151   0.0003706  -0.0000619
    3   0.0240507  -0.0005962  -0.0230822  -0.0000612   0.0002140   0.0000355
            7           8           9          10          11
    1  -0.0000820   0.0000890   0.0000029   0.0001035   0.0000003
    2  -0.0005339  -0.0003957   0.0001476   0.0004011   0.0000709
    3  -0.0004806  -0.0001849   0.0000181   0.0000865   0.0000003
 Max gradient component =       6.058E-02
 RMS gradient           =       1.724E-02
 Gradient time:  CPU 7.44 s  wall 0.67 s
 Geometry Optimization Parameters
   NAtoms,    NIC,     NZ,  NCons,   NDum,   NFix, NCnnct, MaxDiis
       11      68       0       1       0       0       0       0

 Cartesian Hessian Update
 Hessian Updated using BFGS Update


** CONSTRAINED OPTIMIZATION IN DELOCALIZED INTERNAL COORDINATES **
   Searching for a Minimum

   Optimization Cycle:   3

                       Coordinates (Angstroms)
     ATOM                X               Y               Z
      1  F         1.4435992846    1.0656847935    0.3430624659
      2  C        -0.6817264191   -0.6948058504    0.2566031921
      3  C         0.6508584140   -0.7428147946   -0.3716940638
      4  C        -1.4883820162    0.5417392430   -0.1479477847
      5  H        -0.5654596226   -0.7508834060    1.3435104071
      6  H        -1.1937881229   -1.6265166209   -0.0475290876
      7  H         1.4203357852   -1.3915804220    0.0335554267
      8  H         0.7516732671   -0.4952289317   -1.4241614936
      9  H        -2.4517196759    0.5686740749    0.3682482657
     10  H        -0.8993213138    1.4218941876    0.1159691409
     11  H        -1.6791685804    0.5590387265   -1.2264124688
   Point Group: c1    Number of degrees of freedom:    27


   Energy is   -218.293052746

              Constraints and their Current Values
                                        Value     Constraint
   Distance(Angs):        1   3             2.099997     2.100000
 Hessian Updated using BFGS Update

   Using Lagrange Multiplier Algorithm


 26 Hessian modes will be used to form the next step
  Hessian Eigenvalues:
    -1.008177    0.036152    0.045001    0.046621    0.067931    0.078240
     0.082983    0.085192    0.089968    0.105141    0.136277    0.157660
     0.159994    0.160755    0.217507    0.228196    0.293700    0.330786
     0.341935    0.343039    0.344354    0.346798    0.352810    0.353950
     0.363124    0.993033

 Minimum Search - Taking P-RFO Step
 Searching for Lamda that Maximizes Along the Constraint modes Only
 Value Taken    Lamda =   0.00000001
 Searching for Lamda that Minimizes Along All other modes
 Value Taken    Lamda =  -0.00002541
 Step Taken.  Stepsize is  0.016229

                             Maximum     Tolerance    Cnvgd?
         Gradient            0.001129       0.000300      NO
         Displacement        0.009338       0.001200      NO
         Energy change      0.000194       0.000001      NO


 New Cartesian Coordinates Obtained by Inverse Iteration

 Displacement from previous Coordinates is:  0.020252
 ----------------------------------------------------------------
             Standard Nuclear Orientation (Angstroms)
    I     Atom           X                Y                Z
 ----------------------------------------------------------------
    1      F       1.4485128020     1.0636978037     0.3410651625
    2      C      -0.6820857573    -0.6940065638     0.2561030031
    3      C       0.6524274026    -0.7439591324    -0.3721139464
    4      C      -1.4901483198     0.5418243311    -0.1478687247
    5      H      -0.5652010629    -0.7519869152     1.3425730160
    6      H      -1.1984065963    -1.6239690488    -0.0480538585
    7      H       1.4224135469    -1.3899021925     0.0363558368
    8      H       0.7550133173    -0.4935540554    -1.4235922263
    9      H      -2.4529375970     0.5672939138     0.3693831981
   10      H      -0.9008171188     1.4212754877     0.1155243228
   11      H      -1.6818696168     0.5584873719    -1.2261717834
 ----------------------------------------------------------------
 Nuclear Repulsion Energy =   120.8500643604 hartrees
 There are       17 alpha and       17 beta electrons

                       Distance Matrix (Angstroms)
             F (  1)   C (  2)   C (  3)   C (  4)   H (  5)   H (  6)
   C (  2)  2.763366
   C (  3)  2.100000  1.475831
   C (  4)  3.024423  1.530829  2.508816
   H (  5)  2.890462  1.094276  2.103054  2.179654
   H (  6)  3.792249  1.106313  2.074854  2.187633  1.759302
   H (  7)  2.472586  2.227437  1.084882  3.499789  2.462468  2.632605
   H (  8)  2.453567  2.219642  1.085741  2.782127  3.075943  2.643065
   H (  9)  3.933006  2.177069  3.451448  1.093234  2.500230  2.559245
   H ( 10)  2.387065  2.131202  2.708985  1.090927  2.518205  3.064120
   H ( 11)  3.537056  2.182990  2.806194  1.095341  3.092368  2.526819
             H (  7)   H (  8)   H (  9)   H ( 10)
   H (  8)  1.838562
   H (  9)  4.354293  3.825063
   H ( 10)  3.647792  2.962638  1.789639
   H ( 11)  3.876438  2.661609  1.772123  1.776118
 
 Applying Cartesian multipole field
    Component          Value
    ---------          -----
     (2,0,0)        1.00000E-11
     (0,2,0)        2.00000E-11
     (0,0,2)       -3.00000E-10
 Nucleus-field energy     =    -0.0000000047 hartrees
 Requested basis set is 6-31G(d,p)
 There are 37 shells and 95 basis functions
 A cutoff of  1.0D-14 yielded    691 shell pairs
 There are      4648 function pairs
 Smallest overlap matrix eigenvalue = 5.69E-03
 Guess from superposition of atomic densities
 Warning:  Energy on first SCF cycle will be non-variational
 SAD guess density has 34.000000 electrons

 -----------------------------------------------------------------------
  General SCF calculation program by
  Eric Jon Sundstrom, Paul Horn, Yuezhi Mao, Dmitri Zuev, Alec White,
  David Stuck, Shaama M.S., Shane Yost, Joonho Lee, David Small,
  Daniel Levine, Susi Lehtola, Hugh Burton, Evgeny Epifanovsky
 -----------------------------------------------------------------------
 Exchange:     0.2000 Hartree-Fock + 0.0800 Slater + 0.7200 B88
 Correlation:  0.1900 VWN1RPA + 0.8100 LYP
 Using SG-1 standard quadrature grid
 using 12 threads for integral computing
 -------------------------------------------------------
 OpenMP Integral computing Module                
 Release: version 1.0, May 2013, Q-Chem Inc. Pittsburgh 
 -------------------------------------------------------
 -------------------------------------------------------
 OpenMP BLAS3 based DFT computing Module                
 Release: version 1.0, May 2013, Q-Chem Inc. Pittsburgh 
 -------------------------------------------------------
 A unrestricted SCF calculation will be
 performed using DIIS
 SCF converges when DIIS error is below 1.0e-06
 Alpha HF Exchange    Energy =  -2.78283592449776
 Beta HF Exchange     Energy =  -2.78283592449776
 DFT Correlation      Energy =  -1.43387899971070
 DFT Exchange         Energy = -21.82743954526917
 One-Electron (alpha) Energy = -266.93792827140805
 One-Electron (beta)  Energy = -266.93792827140805
 Total Coulomb        Energy = 223.41604699720017
 ---------------------------------------
  Cycle       Energy         DIIS error
 ---------------------------------------
    1    -218.4367355839      2.96e-02  
 Alpha HF Exchange    Energy =  -2.84763550452223
 Beta HF Exchange     Energy =  -2.84763550452223
 DFT Correlation      Energy =  -1.46498646991688
 DFT Exchange         Energy = -22.60309236457140
 One-Electron (alpha) Energy = -270.86895579502328
 One-Electron (beta)  Energy = -270.86895579502340
 Total Coulomb        Energy = 232.50649626916129
    2    -218.1447008087      5.82e-03  
 Alpha HF Exchange    Energy =  -2.72279560505466
 Beta HF Exchange     Energy =  -2.72279560505467
 DFT Correlation      Energy =  -1.43059152998303
 DFT Exchange         Energy = -21.63873905533244
 One-Electron (alpha) Energy = -265.62236472649619
 One-Electron (beta)  Energy = -265.62236472649624
 Total Coulomb        Energy = 221.59932621541660
    3    -217.3102606773      1.51e-02  
 Alpha HF Exchange    Energy =  -2.79445820362381
 Beta HF Exchange     Energy =  -2.79445820362380
 DFT Correlation      Energy =  -1.44617589241364
 DFT Exchange         Energy = -22.18833536550672
 One-Electron (alpha) Energy = -268.34919023654754
 One-Electron (beta)  Energy = -268.34919023654743
 Total Coulomb        Energy = 226.81941268601207
    4    -218.2523310966      2.87e-03  
 Alpha HF Exchange    Energy =  -2.79466351654248
 Beta HF Exchange     Energy =  -2.79466351654248
 DFT Correlation      Energy =  -1.45120046200083
 DFT Exchange         Energy = -22.21947947870527
 One-Electron (alpha) Energy = -268.93630894784599
 One-Electron (beta)  Energy = -268.93630894784582
 Total Coulomb        Energy = 227.99114212680800
    5    -218.2914183870      6.64e-04  
 Alpha HF Exchange    Energy =  -2.79485002292943
 Beta HF Exchange     Energy =  -2.79485002292943
 DFT Correlation      Energy =  -1.45065070591551
 DFT Exchange         Energy = -22.21991134819681
 One-Electron (alpha) Energy = -268.86604381262146
 One-Electron (beta)  Energy = -268.86604381262151
 Total Coulomb        Energy = 227.84960188261380
    6    -218.2926834869      2.87e-04  
 Alpha HF Exchange    Energy =  -2.79509987667690
 Beta HF Exchange     Energy =  -2.79509987667690
 DFT Correlation      Energy =  -1.45060707306635
 DFT Exchange         Energy = -22.22025367296989
 One-Electron (alpha) Energy = -268.86425412215419
 One-Electron (beta)  Energy = -268.86425412215419
 Total Coulomb        Energy = 227.84648489249957
    7    -218.2930194955      1.12e-04  
 Alpha HF Exchange    Energy =  -2.79549268605924
 Beta HF Exchange     Energy =  -2.79549268605924
 DFT Correlation      Energy =  -1.45067259899781
 DFT Exchange         Energy = -22.22287051628138
 One-Electron (alpha) Energy = -268.87666287413231
 One-Electron (beta)  Energy = -268.87666287413242
 Total Coulomb        Energy = 227.87472784157933
    8    -218.2930620384      4.03e-05  
 Alpha HF Exchange    Energy =  -2.79569002160988
 Beta HF Exchange     Energy =  -2.79569002160987
 DFT Correlation      Energy =  -1.45069559653800
 DFT Exchange         Energy = -22.22412066640733
 One-Electron (alpha) Energy = -268.88055890944099
 One-Electron (beta)  Energy = -268.88055890944088
 Total Coulomb        Energy = 227.88418125891772
    9    -218.2930685104      2.00e-06  
 Alpha HF Exchange    Energy =  -2.79569783055488
 Beta HF Exchange     Energy =  -2.79569783055488
 DFT Correlation      Energy =  -1.45069641996781
 DFT Exchange         Energy = -22.22416823821665
 One-Electron (alpha) Energy = -268.88078638180116
 One-Electron (beta)  Energy = -268.88078638180116
 Total Coulomb        Energy = 227.88470019951927
   10    -218.2930685277      5.59e-07  Convergence criterion met
 ---------------------------------------
 SCF time:   CPU 21.47s  wall 2.00s 
<S^2> =         -0.000000000
 Alpha HF Exchange    Energy =  -2.79569783055488
 Beta HF Exchange     Energy =  -2.79569783055488
 DFT Correlation      Energy =  -1.45069641996781
 DFT Exchange         Energy = -22.22416823821665
 One-Electron (alpha) Energy = -268.88078638180116
 One-Electron (beta)  Energy = -268.88078638180116
 Total Coulomb        Energy = 227.88470019951927
 Nuclear repulsion Energy = 120.85006435569143
 SCF   energy in the final basis set =     -218.2930685277
 Total energy in the final basis set =     -218.2930685277
 
 --------------------------------------------------------------
 
                    Orbital Energies (a.u.)
 --------------------------------------------------------------
 
 Alpha MOs
 -- Occupied --
-24.577 -10.288 -10.217 -10.183  -1.004  -0.816  -0.700  -0.609
 -0.493  -0.467  -0.439  -0.380  -0.371  -0.364  -0.301  -0.273
 -0.272
 -- Virtual --
 -0.083   0.086   0.121   0.122   0.143   0.162   0.173   0.200
  0.216   0.250   0.479   0.497   0.535   0.543   0.554   0.634
  0.645   0.692   0.766   0.792   0.827   0.860   0.876   0.890
  0.911   0.934   0.965   1.114   1.213   1.258   1.293   1.368
  1.403   1.470   1.516   1.614   1.652   1.722   1.777   1.820
  1.868   1.908   1.944   1.973   1.995   2.008   2.042   2.062
  2.068   2.095   2.114   2.164   2.244   2.281   2.332   2.378
  2.411   2.453   2.507   2.609   2.643   2.691   2.744   2.798
  2.856   2.876   2.906   3.185   3.233   3.268   3.391   3.423
  3.483   3.527   3.759   4.283   4.439   4.612
 
 Beta MOs
 -- Occupied --
-24.577 -10.288 -10.217 -10.183  -1.004  -0.816  -0.700  -0.609
 -0.493  -0.467  -0.439  -0.380  -0.371  -0.364  -0.301  -0.273
 -0.272
 -- Virtual --
 -0.083   0.086   0.121   0.122   0.143   0.162   0.173   0.200
  0.216   0.250   0.479   0.497   0.535   0.543   0.554   0.634
  0.645   0.692   0.766   0.792   0.827   0.860   0.876   0.890
  0.911   0.934   0.965   1.114   1.213   1.258   1.293   1.368
  1.403   1.470   1.516   1.614   1.652   1.722   1.777   1.820
  1.868   1.908   1.944   1.973   1.995   2.008   2.042   2.062
  2.068   2.095   2.114   2.164   2.244   2.281   2.332   2.378
  2.411   2.453   2.507   2.609   2.643   2.691   2.744   2.798
  2.856   2.876   2.906   3.185   3.233   3.268   3.391   3.423
  3.483   3.527   3.759   4.283   4.439   4.612
 --------------------------------------------------------------
 
          Ground-State Mulliken Net Atomic Charges

     Atom                 Charge (a.u.)    Spin (a.u.)
  --------------------------------------------------------
      1 F                    -0.408461      -0.000000
      2 C                    -0.207222       0.000000
      3 C                    -0.019823      -0.000000
      4 C                    -0.323658      -0.000000
      5 H                     0.145885       0.000000
      6 H                     0.121462       0.000000
      7 H                     0.159283       0.000000
      8 H                     0.160507       0.000000
      9 H                     0.106191       0.000000
     10 H                     0.163615       0.000000
     11 H                     0.102223       0.000000
  --------------------------------------------------------
  Sum of atomic charges =    -0.000000
  Sum of spin   charges =     0.000000

 -----------------------------------------------------------------
                    Cartesian Multipole Moments
 -----------------------------------------------------------------
    Charge (ESU x 10^10)
                -0.0000
    Dipole Moment (Debye)
         X      -2.0735      Y      -3.4410      Z      -1.1225
       Tot       4.1713
    Quadrupole Moments (Debye-Ang)
        XX     -27.4653     XY      -4.0047     YY     -25.1632
        XZ      -1.6045     YZ      -0.3290     ZZ     -23.7754
    Octopole Moments (Debye-Ang^2)
       XXX       7.1729    XXY      -5.8187    XYY       2.7467
       YYY      -2.7286    XXZ      -0.7174    XYZ      -0.6826
       YYZ      -0.0613    XZZ       4.1684    YZZ      -0.6669
       ZZZ      -0.7505
    Hexadecapole Moments (Debye-Ang^3)
      XXXX    -247.4277   XXXY     -11.0202   XXYY     -63.0534
      XYYY      -5.2247   YYYY    -128.2981   XXXZ      -6.7119
      XXYZ      -2.1445   XYYZ      -1.0611   YYYZ      -3.4591
      XXZZ     -49.4994   XYZZ      -1.5384   YYZZ     -31.7541
      XZZZ      -4.5248   YZZZ      -4.5434   ZZZZ     -51.1731
 -----------------------------------------------------------------
 Calculating analytic gradient of the SCF energy
 Gradient of SCF Energy
            1           2           3           4           5           6
    1   0.0265155   0.0000369  -0.0267807  -0.0001001   0.0000162   0.0001869
    2   0.0604430   0.0002105  -0.0602534  -0.0000963   0.0002124  -0.0001307
    3   0.0239191  -0.0000074  -0.0235386  -0.0000356   0.0000330  -0.0000215
            7           8           9          10          11
    1   0.0000259   0.0000785  -0.0000390   0.0000716  -0.0000117
    2  -0.0003023  -0.0001171   0.0000783  -0.0000758   0.0000314
    3  -0.0002920  -0.0000768  -0.0000005   0.0000358  -0.0000155
 Max gradient component =       6.044E-02
 RMS gradient           =       1.726E-02
 Gradient time:  CPU 7.31 s  wall 0.63 s
 Geometry Optimization Parameters
   NAtoms,    NIC,     NZ,  NCons,   NDum,   NFix, NCnnct, MaxDiis
       11      68       0       1       0       0       0       0

 Cartesian Hessian Update
 Hessian Updated using BFGS Update


** CONSTRAINED OPTIMIZATION IN DELOCALIZED INTERNAL COORDINATES **
   Searching for a Minimum

   Optimization Cycle:   4

                       Coordinates (Angstroms)
     ATOM                X               Y               Z
      1  F         1.4485128020    1.0636978037    0.3410651625
      2  C        -0.6820857573   -0.6940065638    0.2561030031
      3  C         0.6524274026   -0.7439591324   -0.3721139464
      4  C        -1.4901483198    0.5418243311   -0.1478687247
      5  H        -0.5652010629   -0.7519869152    1.3425730160
      6  H        -1.1984065963   -1.6239690488   -0.0480538585
      7  H         1.4224135469   -1.3899021925    0.0363558368
      8  H         0.7550133173   -0.4935540554   -1.4235922263
      9  H        -2.4529375970    0.5672939138    0.3693831981
     10  H        -0.9008171188    1.4212754877    0.1155243228
     11  H        -1.6818696168    0.5584873719   -1.2261717834
   Point Group: c1    Number of degrees of freedom:    27


   Energy is   -218.293068528

              Constraints and their Current Values
                                        Value     Constraint
   Distance(Angs):        1   3             2.100000     2.100000
 Hessian Updated using BFGS Update

 25 Hessian modes will be used to form the next step
  Hessian Eigenvalues:
     0.027960    0.044999    0.047610    0.068213    0.077193    0.082621
     0.085219    0.089294    0.102784    0.125924    0.156377    0.159423
     0.160000    0.163657    0.204495    0.234073    0.293710    0.331155
     0.341897    0.343037    0.344164    0.346388    0.352419    0.353480
     0.387857

 Minimum Search - Taking Simple RFO Step
 Searching for Lamda that Minimizes Along All modes
 Value Taken    Lamda =  -0.00000696
 Step Taken.  Stepsize is  0.012872

                             Maximum     Tolerance    Cnvgd?
         Gradient           0.000370      0.000300      NO
         Displacement       0.007294      0.001200      NO
         Energy change     -0.000016      0.000001      NO


 New Cartesian Coordinates Obtained by Inverse Iteration

 Displacement from previous Coordinates is:  0.012463
 ----------------------------------------------------------------
             Standard Nuclear Orientation (Angstroms)
    I     Atom           X                Y                Z
 ----------------------------------------------------------------
    1      F       1.4499878285     1.0634295560     0.3385098868
    2      C      -0.6824545116    -0.6945727111     0.2558086807
    3      C       0.6525504842    -0.7445370400    -0.3723701824
    4      C      -1.4898402179     0.5419293739    -0.1476396250
    5      H      -0.5654797728    -0.7544037810     1.3420865897
    6      H      -1.2014725048    -1.6230275742    -0.0485226444
    7      H       1.4230756190    -1.3875972604     0.0390914268
    8      H       0.7557353829    -0.4924993754    -1.4232514331
    9      H      -2.4523679621     0.5664104789     0.3699643488
   10      H      -0.9010563931     1.4218117238     0.1153944530
   11      H      -1.6817769522     0.5582576096    -1.2258675009
 ----------------------------------------------------------------
 Nuclear Repulsion Energy =   120.8379687230 hartrees
 There are       17 alpha and       17 beta electrons

                       Distance Matrix (Angstroms)
             F (  1)   C (  2)   C (  3)   C (  4)   H (  5)   H (  6)
   C (  2)  2.764909
   C (  3)  2.100000  1.476260
   C (  4)  3.025044  1.530875  2.509051
   H (  5)  2.893751  1.094195  2.103107  2.180414
   H (  6)  3.794349  1.106357  2.077023  2.186325  1.758632
   H (  7)  2.469394  2.227219  1.084682  3.499003  2.460301  2.636543
   H (  8)  2.450858  2.220015  1.085597  2.782056  3.075922  2.645494
   H (  9)  3.934005  2.176167  3.451110  1.093148  2.499984  2.556073
   H ( 10)  2.388645  2.132272  2.710106  1.090892  2.520575  3.064011
   H ( 11)  3.537008  2.182566  2.806210  1.095300  3.092505  2.524844
             H (  7)   H (  8)   H (  9)   H ( 10)
   H (  8)  1.839834
   H (  9)  4.352779  3.824767
   H ( 10)  3.646943  2.962596  1.789716
   H ( 11)  3.876414  2.661676  1.772161  1.776016
 
 Applying Cartesian multipole field
    Component          Value
    ---------          -----
     (2,0,0)        1.00000E-11
     (0,2,0)        2.00000E-11
     (0,0,2)       -3.00000E-10
 Nucleus-field energy     =    -0.0000000047 hartrees
 Requested basis set is 6-31G(d,p)
 There are 37 shells and 95 basis functions
 A cutoff of  1.0D-14 yielded    691 shell pairs
 There are      4648 function pairs
 Smallest overlap matrix eigenvalue = 5.69E-03
 Guess from superposition of atomic densities
 Warning:  Energy on first SCF cycle will be non-variational
 SAD guess density has 34.000000 electrons

 -----------------------------------------------------------------------
  General SCF calculation program by
  Eric Jon Sundstrom, Paul Horn, Yuezhi Mao, Dmitri Zuev, Alec White,
  David Stuck, Shaama M.S., Shane Yost, Joonho Lee, David Small,
  Daniel Levine, Susi Lehtola, Hugh Burton, Evgeny Epifanovsky
 -----------------------------------------------------------------------
 Exchange:     0.2000 Hartree-Fock + 0.0800 Slater + 0.7200 B88
 Correlation:  0.1900 VWN1RPA + 0.8100 LYP
 Using SG-1 standard quadrature grid
 using 12 threads for integral computing
 -------------------------------------------------------
 OpenMP Integral computing Module                
 Release: version 1.0, May 2013, Q-Chem Inc. Pittsburgh 
 -------------------------------------------------------
 -------------------------------------------------------
 OpenMP BLAS3 based DFT computing Module                
 Release: version 1.0, May 2013, Q-Chem Inc. Pittsburgh 
 -------------------------------------------------------
 A unrestricted SCF calculation will be
 performed using DIIS
 SCF converges when DIIS error is below 1.0e-06
 Alpha HF Exchange    Energy =  -2.78280344096404
 Beta HF Exchange     Energy =  -2.78280344096404
 DFT Correlation      Energy =  -1.43387006195556
 DFT Exchange         Energy = -21.82738829943170
 One-Electron (alpha) Energy = -266.92578663696213
 One-Electron (beta)  Energy = -266.92578663696213
 Total Coulomb        Energy = 223.40410814434159
 ---------------------------------------
  Cycle       Energy         DIIS error
 ---------------------------------------
    1    -218.4363616546      2.96e-02  
 Alpha HF Exchange    Energy =  -2.84765765200684
 Beta HF Exchange     Energy =  -2.84765765200684
 DFT Correlation      Energy =  -1.46498091446476
 DFT Exchange         Energy = -22.60322428323043
 One-Electron (alpha) Energy = -270.85704464474998
 One-Electron (beta)  Energy = -270.85704464474998
 Total Coulomb        Energy = 232.49498956922974
    2    -218.1446515037      5.82e-03  
 Alpha HF Exchange    Energy =  -2.72280931096881
 Beta HF Exchange     Energy =  -2.72280931096881
 DFT Correlation      Energy =  -1.43058879207088
 DFT Exchange         Energy = -21.63878657420899
 One-Electron (alpha) Energy = -265.61077429250298
 One-Electron (beta)  Energy = -265.61077429250304
 Total Coulomb        Energy = 221.58940181679552
    3    -217.3091720381      1.51e-02  
 Alpha HF Exchange    Energy =  -2.79447003996758
 Beta HF Exchange     Energy =  -2.79447003996758
 DFT Correlation      Energy =  -1.44617139209714
 DFT Exchange         Energy = -22.18840094020112
 One-Electron (alpha) Energy = -268.33760744276714
 One-Electron (beta)  Energy = -268.33760744276708
 Total Coulomb        Energy = 226.80845748511385
    4    -218.2523010944      2.87e-03  
 Alpha HF Exchange    Energy =  -2.79467180694654
 Beta HF Exchange     Energy =  -2.79467180694654
 DFT Correlation      Energy =  -1.45119682189127
 DFT Exchange         Energy = -22.21954588373746
 One-Electron (alpha) Energy = -268.92466897113007
 One-Electron (beta)  Energy = -268.92466897112996
 Total Coulomb        Energy = 227.98003648567581
    5    -218.2914190578      6.64e-04  
 Alpha HF Exchange    Energy =  -2.79485726347213
 Beta HF Exchange     Energy =  -2.79485726347213
 DFT Correlation      Energy =  -1.45064647919344
 DFT Exchange         Energy = -22.21997051096972
 One-Electron (alpha) Energy = -268.85434905237724
 One-Electron (beta)  Energy = -268.85434905237707
 Total Coulomb        Energy = 227.83837460062034
    6    -218.2926863030      2.87e-04  
 Alpha HF Exchange    Energy =  -2.79510720209192
 Beta HF Exchange     Energy =  -2.79510720209191
 DFT Correlation      Energy =  -1.45060268039034
 DFT Exchange         Energy = -22.22031013085181
 One-Electron (alpha) Energy = -268.85254101712570
 One-Electron (beta)  Energy = -268.85254101712547
 Total Coulomb        Energy = 227.83521699076539
    7    -218.2930235406      1.12e-04  
 Alpha HF Exchange    Energy =  -2.79550066481723
 Beta HF Exchange     Energy =  -2.79550066481722
 DFT Correlation      Energy =  -1.45066826778772
 DFT Exchange         Energy = -22.22293080242520
 One-Electron (alpha) Energy = -268.86496356609246
 One-Electron (beta)  Energy = -268.86496356609240
 Total Coulomb        Energy = 227.86349256728235
    8    -218.2930662465      4.04e-05  
 Alpha HF Exchange    Energy =  -2.79569848827946
 Beta HF Exchange     Energy =  -2.79569848827946
 DFT Correlation      Energy =  -1.45069130796886
 DFT Exchange         Energy = -22.22418384328308
 One-Electron (alpha) Energy = -268.86886824393844
 One-Electron (beta)  Energy = -268.86886824393821
 Total Coulomb        Energy = 227.87296714989745
    9    -218.2930727475      2.00e-06  
 Alpha HF Exchange    Energy =  -2.79570622889405
 Beta HF Exchange     Energy =  -2.79570622889405
 DFT Correlation      Energy =  -1.45069212028878
 DFT Exchange         Energy = -22.22423095017968
 One-Electron (alpha) Energy = -268.86909376211145
 One-Electron (beta)  Energy = -268.86909376211139
 Total Coulomb        Energy = 227.87348156957617
   10    -218.2930727646      5.62e-07  Convergence criterion met
 ---------------------------------------
 SCF time:   CPU 22.07s  wall 1.00s 
<S^2> =          0.000000000
 Alpha HF Exchange    Energy =  -2.79570622889405
 Beta HF Exchange     Energy =  -2.79570622889405
 DFT Correlation      Energy =  -1.45069212028878
 DFT Exchange         Energy = -22.22423095017968
 One-Electron (alpha) Energy = -268.86909376211145
 One-Electron (beta)  Energy = -268.86909376211139
 Total Coulomb        Energy = 227.87348156957617
 Nuclear repulsion Energy = 120.83796871828984
 SCF   energy in the final basis set =     -218.2930727646
 Total energy in the final basis set =     -218.2930727646
 
 --------------------------------------------------------------
 
                    Orbital Energies (a.u.)
 --------------------------------------------------------------
 
 Alpha MOs
 -- Occupied --
-24.577 -10.288 -10.217 -10.183  -1.004  -0.816  -0.700  -0.609
 -0.493  -0.467  -0.439  -0.380  -0.371  -0.364  -0.301  -0.273
 -0.272
 -- Virtual --
 -0.083   0.086   0.121   0.122   0.143   0.163   0.173   0.200
  0.216   0.250   0.479   0.497   0.535   0.543   0.554   0.634
  0.644   0.691   0.766   0.792   0.827   0.860   0.876   0.890
  0.911   0.935   0.965   1.114   1.213   1.258   1.293   1.368
  1.404   1.469   1.516   1.615   1.652   1.721   1.778   1.820
  1.868   1.907   1.944   1.973   1.995   2.007   2.042   2.062
  2.068   2.095   2.114   2.164   2.243   2.281   2.332   2.378
  2.412   2.454   2.507   2.609   2.643   2.691   2.744   2.798
  2.855   2.876   2.906   3.185   3.234   3.268   3.392   3.423
  3.483   3.527   3.759   4.283   4.439   4.612
 
 Beta MOs
 -- Occupied --
-24.577 -10.288 -10.217 -10.183  -1.004  -0.816  -0.700  -0.609
 -0.493  -0.467  -0.439  -0.380  -0.371  -0.364  -0.301  -0.273
 -0.272
[...]
   Point Group: c1    Number of degrees of freedom:    27


   Energy is   -218.293077951

              Constraints and their Current Values
                                        Value     Constraint
   Distance(Angs):        1   3             2.100000     2.100000
 Hessian Updated using BFGS Update

 26 Hessian modes will be used to form the next step
  Hessian Eigenvalues:
     0.003245    0.035060    0.045060    0.069367    0.077706    0.083224
     0.085197    0.089322    0.103971    0.132067    0.159254    0.159587
     0.160279    0.163429    0.167313    0.212064    0.234373    0.294441
     0.333995    0.342032    0.343308    0.345378    0.347449    0.352927
     0.354181    0.397443

 Minimum Search - Taking Simple RFO Step
 Searching for Lamda that Minimizes Along All modes
 Value Taken    Lamda =  -0.00000155
 Step Taken.  Stepsize is  0.015882

                             Maximum     Tolerance    Cnvgd?
         Gradient           0.000172      0.000300     YES
         Displacement       0.010295      0.001200      NO
         Energy change     -0.000002      0.000001      NO


 New Cartesian Coordinates Obtained by Inverse Iteration

 Displacement from previous Coordinates is:  0.017715
 ----------------------------------------------------------------
             Standard Nuclear Orientation (Angstroms)
    I     Atom           X                Y                Z
 ----------------------------------------------------------------
    1      F       1.4461939701     1.0721059269     0.3198331322
    2      C      -0.6839187842    -0.6975407602     0.2549674816
    3      C       0.6524734702    -0.7456673558    -0.3698827977
    4      C      -1.4876861330     0.5433337413    -0.1440048993
    5      H      -0.5723326132    -0.7645430998     1.3414581343
    6      H      -1.2036507624    -1.6222104933    -0.0583708460
    7      H       1.4271804803    -1.3779229948     0.0502119560
    8      H       0.7549937629    -0.5052965862    -1.4235065131
    9      H      -2.4522674423     0.5663133657     0.3699953097
   10      H      -0.8981787912     1.4207541940     0.1253102834
   11      H      -1.6759061572     0.5658750621    -1.2228072409
 ----------------------------------------------------------------
 Nuclear Repulsion Energy =   120.8503041964 hartrees
 There are       17 alpha and       17 beta electrons

                       Distance Matrix (Angstroms)
             F (  1)   C (  2)   C (  3)   C (  4)   H (  5)   H (  6)
   C (  2)  2.770061
   C (  3)  2.100000  1.476041
   C (  4)  3.017018  1.531336  2.508551
   H (  5)  2.914009  1.094259  2.104565  2.180600
   H (  6)  3.797902  1.106036  2.076190  2.185770  1.758885
   H (  7)  2.464893  2.227462  1.084619  3.496483  2.457967  2.644379
   H (  8)  2.450549  2.219167  1.085547  2.786820  3.077992  2.635788
   H (  9)  3.931456  2.176606  3.450816  1.093225  2.499815  2.555813
   H ( 10)  2.378125  2.133048  2.709819  1.090833  2.522046  3.063770
   H ( 11)  3.519022  2.182676  2.805169  1.095331  3.092466  2.523223
             H (  7)   H (  8)   H (  9)   H ( 10)
   H (  8)  1.839880
   H (  9)  4.351142  3.827731
   H ( 10)  3.639441  2.973463  1.790288
   H ( 11)  3.876606  2.664013  1.771936  1.775697
 
 Applying Cartesian multipole field
    Component          Value
    ---------          -----
     (2,0,0)        1.00000E-11
     (0,2,0)        2.00000E-11
     (0,0,2)       -3.00000E-10
 Nucleus-field energy     =    -0.0000000046 hartrees
 Requested basis set is 6-31G(d,p)
 There are 37 shells and 95 basis functions
 A cutoff of  1.0D-14 yielded    691 shell pairs
 There are      4648 function pairs
 Smallest overlap matrix eigenvalue = 5.69E-03
 Guess from superposition of atomic densities
 Warning:  Energy on first SCF cycle will be non-variational
 SAD guess density has 34.000000 electrons

 -----------------------------------------------------------------------
  General SCF calculation program by
  Eric Jon Sundstrom, Paul Horn, Yuezhi Mao, Dmitri Zuev, Alec White,
  David Stuck, Shaama M.S., Shane Yost, Joonho Lee, David Small,
  Daniel Levine, Susi Lehtola, Hugh Burton, Evgeny Epifanovsky
 -----------------------------------------------------------------------
 Exchange:     0.2000 Hartree-Fock + 0.0800 Slater + 0.7200 B88
 Correlation:  0.1900 VWN1RPA + 0.8100 LYP
 Using SG-1 standard quadrature grid
 using 12 threads for integral computing
 -------------------------------------------------------
 OpenMP Integral computing Module                
 Release: version 1.0, May 2013, Q-Chem Inc. Pittsburgh 
 -------------------------------------------------------
 -------------------------------------------------------
 OpenMP BLAS3 based DFT computing Module                
 Release: version 1.0, May 2013, Q-Chem Inc. Pittsburgh 
 -------------------------------------------------------
 A unrestricted SCF calculation will be
 performed using DIIS
 SCF converges when DIIS error is below 1.0e-06
 Alpha HF Exchange    Energy =  -2.78280798953226
 Beta HF Exchange     Energy =  -2.78280798953226
 DFT Correlation      Energy =  -1.43388827157275
 DFT Exchange         Energy = -21.82741503815621
 One-Electron (alpha) Energy = -266.93802984867187
 One-Electron (beta)  Energy = -266.93802984867187
 Total Coulomb        Energy = 223.41629881520066
 ---------------------------------------
  Cycle       Energy         DIIS error
 ---------------------------------------
    1    -218.4363759791      2.96e-02  
 Alpha HF Exchange    Energy =  -2.84763737512461
 Beta HF Exchange     Energy =  -2.84763737512461
 DFT Correlation      Energy =  -1.46498453495947
 DFT Exchange         Energy = -22.60308983896709
 One-Electron (alpha) Energy = -270.86787877464764
 One-Electron (beta)  Energy = -270.86787877464769
 Total Coulomb        Energy = 232.50393591673895
    2    -218.1448665649      5.81e-03  
 Alpha HF Exchange    Energy =  -2.72291120958710
 Beta HF Exchange     Energy =  -2.72291120958710
 DFT Correlation      Energy =  -1.43065331413253
 DFT Exchange         Energy = -21.63964385652126
 One-Electron (alpha) Energy = -265.62869418262392
 One-Electron (beta)  Energy = -265.62869418262380
 Total Coulomb        Energy = 221.61191729194974
    3    -217.3112864713      1.51e-02  
 Alpha HF Exchange    Energy =  -2.79447294565613
 Beta HF Exchange     Energy =  -2.79447294565613
 DFT Correlation      Energy =  -1.44619094677698
 DFT Exchange         Energy = -22.18845260361340
 One-Electron (alpha) Energy = -268.35002555184224
 One-Electron (beta)  Energy = -268.35002555184229
 Total Coulomb        Energy = 226.82100995984882
    4    -218.2523263937      2.87e-03  
 Alpha HF Exchange    Energy =  -2.79468280187098
 Beta HF Exchange     Energy =  -2.79468280187099
 DFT Correlation      Energy =  -1.45121497565890
 DFT Exchange         Energy = -22.21962697969141
 One-Electron (alpha) Energy = -268.93696902136270
 One-Electron (beta)  Energy = -268.93696902136287
 Total Coulomb        Energy = 227.99241201046146
    5    -218.2914293995      6.63e-04  
 Alpha HF Exchange    Energy =  -2.79487330420574
 Beta HF Exchange     Energy =  -2.79487330420574
 DFT Correlation      Energy =  -1.45066748266140
 DFT Exchange         Energy = -22.22009957222120
 One-Electron (alpha) Energy = -268.86703924303401
 One-Electron (beta)  Energy = -268.86703924303401
 Total Coulomb        Energy = 227.85159470485877
    6    -218.2926932526      2.87e-04  
 Alpha HF Exchange    Energy =  -2.79511928433543
 Beta HF Exchange     Energy =  -2.79511928433543
 DFT Correlation      Energy =  -1.45062246429909
 DFT Exchange         Energy = -22.22040827365365
 One-Electron (alpha) Energy = -268.86502535473642
 One-Electron (beta)  Energy = -268.86502535473630
 Total Coulomb        Energy = 227.84798577627379
    7    -218.2930300479      1.11e-04  
 Alpha HF Exchange    Energy =  -2.79551134324240
 Beta HF Exchange     Energy =  -2.79551134324241
 DFT Correlation      Energy =  -1.45068780452309
 DFT Exchange         Energy = -22.22301976310211
 One-Electron (alpha) Energy = -268.87742765267797
 One-Electron (beta)  Energy = -268.87742765267814
 Total Coulomb        Energy = 227.87620890302549
    8    -218.2930724646      4.03e-05  
 Alpha HF Exchange    Energy =  -2.79570827119058
 Beta HF Exchange     Energy =  -2.79570827119057
 DFT Correlation      Energy =  -1.45071067712120
 DFT Exchange         Energy = -22.22426694843082
 One-Electron (alpha) Energy = -268.88130397802803
 One-Electron (beta)  Energy = -268.88130397802757
 Total Coulomb        Energy = 227.88561900845855
    9    -218.2930789237      2.00e-06  
 Alpha HF Exchange    Energy =  -2.79571627578363
 Beta HF Exchange     Energy =  -2.79571627578363
 DFT Correlation      Energy =  -1.45071154100237
 DFT Exchange         Energy = -22.22431585946939
 One-Electron (alpha) Energy = -268.88154089154489
 One-Electron (beta)  Energy = -268.88154089154489
 Total Coulomb        Energy = 227.88615860232872
   10    -218.2930789409      5.49e-07  Convergence criterion met
 ---------------------------------------
 SCF time:   CPU 21.66s  wall 2.00s 
<S^2> =          0.000000000
 Alpha HF Exchange    Energy =  -2.79571627578363
 Beta HF Exchange     Energy =  -2.79571627578363
 DFT Correlation      Energy =  -1.45071154100237
 DFT Exchange         Energy = -22.22431585946939
 One-Electron (alpha) Energy = -268.88154089154489
 One-Electron (beta)  Energy = -268.88154089154489
 Total Coulomb        Energy = 227.88615860232872
 Nuclear repulsion Energy = 120.85030419187363
 SCF   energy in the final basis set =     -218.2930789409
 Total energy in the final basis set =     -218.2930789409
 
 --------------------------------------------------------------
 
                    Orbital Energies (a.u.)
 --------------------------------------------------------------
 
 Alpha MOs
 -- Occupied --
-24.577 -10.288 -10.217 -10.183  -1.004  -0.816  -0.700  -0.609
 -0.493  -0.467  -0.439  -0.380  -0.371  -0.363  -0.301  -0.273
 -0.272
 -- Virtual --
 -0.083   0.085   0.121   0.122   0.144   0.163   0.173   0.200
  0.217   0.250   0.479   0.498   0.535   0.543   0.553   0.634
  0.643   0.691   0.766   0.792   0.827   0.860   0.876   0.890
  0.912   0.935   0.966   1.114   1.214   1.256   1.294   1.370
  1.404   1.469   1.515   1.616   1.651   1.719   1.779   1.820
  1.868   1.906   1.945   1.973   1.996   2.007   2.042   2.061
  2.067   2.095   2.114   2.164   2.242   2.281   2.332   2.378
  2.413   2.453   2.507   2.609   2.643   2.691   2.744   2.797
  2.857   2.876   2.906   3.185   3.234   3.268   3.393   3.423
  3.482   3.528   3.759   4.282   4.439   4.612
 
 Beta MOs
 -- Occupied --
-24.577 -10.288 -10.217 -10.183  -1.004  -0.816  -0.700  -0.609
 -0.493  -0.467  -0.439  -0.380  -0.371  -0.363  -0.301  -0.273
 -0.272
 -- Virtual --
 -0.083   0.085   0.121   0.122   0.144   0.163   0.173   0.200
  0.217   0.250   0.479   0.498   0.535   0.543   0.553   0.634
  0.643   0.691   0.766   0.792   0.827   0.860   0.876   0.890
  0.912   0.935   0.966   1.114   1.214   1.256   1.294   1.370
  1.404   1.469   1.515   1.616   1.651   1.719   1.779   1.820
  1.868   1.906   1.945   1.973   1.996   2.007   2.042   2.061
  2.067   2.095   2.114   2.164   2.242   2.281   2.332   2.378
  2.413   2.453   2.507   2.609   2.643   2.691   2.744   2.797
  2.857   2.876   2.906   3.185   3.234   3.268   3.393   3.423
  3.482   3.528   3.759   4.282   4.439   4.612
 --------------------------------------------------------------
 
          Ground-State Mulliken Net Atomic Charges

     Atom                 Charge (a.u.)    Spin (a.u.)
  --------------------------------------------------------
      1 F                    -0.408614       0.000000
      2 C                    -0.208132       0.000000
      3 C                    -0.019927       0.000000
      4 C                    -0.323020      -0.000000
      5 H                     0.144670      -0.000000
      6 H                     0.122080      -0.000000
      7 H                     0.159874      -0.000000
      8 H                     0.160714      -0.000000
      9 H                     0.105907       0.000000
     10 H                     0.164066       0.000000
     11 H                     0.102382       0.000000
  --------------------------------------------------------
  Sum of atomic charges =     0.000000
  Sum of spin   charges =     0.000000

 -----------------------------------------------------------------
                    Cartesian Multipole Moments
 -----------------------------------------------------------------
    Charge (ESU x 10^10)
                 0.0000
    Dipole Moment (Debye)
         X      -2.0699      Y      -3.4593      Z      -1.0822
       Tot       4.1740
    Quadrupole Moments (Debye-Ang)
        XX     -27.4351     XY      -4.0157     YY     -25.2020
        XZ      -1.5248     YZ      -0.2961     ZZ     -23.7533
    Octopole Moments (Debye-Ang^2)
       XXX       7.2480    XXY      -5.8801    XYY       2.6796
       YYY      -2.7781    XXZ      -0.5498    XYZ      -0.6469
       YYZ       0.0395    XZZ       4.2137    YZZ      -0.6976
       ZZZ      -0.5574
    Hexadecapole Moments (Debye-Ang^3)
      XXXX    -246.9746   XXXY     -11.2176   XXYY     -63.1780
      XYYY      -5.4122   YYYY    -129.2316   XXXZ      -5.9845
      XXYZ      -2.0268   XYYZ      -0.8113   YYYZ      -3.1690
      XXZZ     -49.3123   XYZZ      -1.6093   YYZZ     -31.7440
      XZZZ      -3.9755   YZZZ      -4.2593   ZZZZ     -50.6309
 -----------------------------------------------------------------
 Calculating analytic gradient of the SCF energy
 Gradient of SCF Energy
            1           2           3           4           5           6
    1   0.0265368  -0.0000268  -0.0265796   0.0000883   0.0000131   0.0000108
    2   0.0606513  -0.0001747  -0.0606966   0.0000242   0.0000412   0.0000434
    3   0.0229830  -0.0001699  -0.0230114   0.0000346   0.0000353   0.0000878
            7           8           9          10          11
    1   0.0000034  -0.0000064  -0.0000197  -0.0000054  -0.0000145
    2   0.0000322   0.0000344   0.0000240   0.0000248  -0.0000041
    3   0.0000306   0.0000214  -0.0000146   0.0000082  -0.0000049
 Max gradient component =       6.070E-02
 RMS gradient           =       1.726E-02
 Gradient time:  CPU 7.44 s  wall 0.66 s
 Geometry Optimization Parameters
   NAtoms,    NIC,     NZ,  NCons,   NDum,   NFix, NCnnct, MaxDiis
       11      68       0       1       0       0       0       0

 Cartesian Hessian Update
 Hessian Updated using BFGS Update


** CONSTRAINED OPTIMIZATION IN DELOCALIZED INTERNAL COORDINATES **
   Searching for a Minimum

   Optimization Cycle:   9

                       Coordinates (Angstroms)
     ATOM                X               Y               Z
      1  F         1.4461939701    1.0721059269    0.3198331322
      2  C        -0.6839187842   -0.6975407602    0.2549674816
      3  C         0.6524734702   -0.7456673558   -0.3698827977
      4  C        -1.4876861330    0.5433337413   -0.1440048993
      5  H        -0.5723326132   -0.7645430998    1.3414581343
      6  H        -1.2036507624   -1.6222104933   -0.0583708460
      7  H         1.4271804803   -1.3779229948    0.0502119560
      8  H         0.7549937629   -0.5052965862   -1.4235065131
      9  H        -2.4522674423    0.5663133657    0.3699953097
     10  H        -0.8981787912    1.4207541940    0.1253102834
     11  H        -1.6759061572    0.5658750621   -1.2228072409
   Point Group: c1    Number of degrees of freedom:    27


   Energy is   -218.293078941

              Constraints and their Current Values
                                        Value     Constraint
   Distance(Angs):        1   3             2.100000     2.100000
 Hessian Updated using BFGS Update

 26 Hessian modes will be used to form the next step
  Hessian Eigenvalues:
     0.003379    0.031577    0.044987    0.064617    0.077739    0.082390
     0.085113    0.089214    0.103422    0.132922    0.158238    0.159648
     0.160767    0.161826    0.165297    0.189347    0.233602    0.294250
     0.331558    0.341994    0.342994    0.344858    0.347055    0.352842
     0.354091    0.388785

 Minimum Search - Taking Simple RFO Step
 Searching for Lamda that Minimizes Along All modes
 Value Taken    Lamda =   0.00000000
 Step Taken.  Stepsize is  0.004242

                             Maximum     Tolerance    Cnvgd?
         Gradient           0.000111      0.000300     YES
         Displacement       0.002601      0.001200      NO
         Energy change     -0.000001      0.000001     YES


                       Distance Matrix (Angstroms)
             F (  1)   C (  2)   C (  3)   C (  4)   H (  5)   H (  6)
   C (  2)  2.770061
   C (  3)  2.100000  1.476041
   C (  4)  3.017018  1.531336  2.508551
   H (  5)  2.914009  1.094259  2.104565  2.180600
   H (  6)  3.797902  1.106036  2.076190  2.185770  1.758885
   H (  7)  2.464893  2.227462  1.084619  3.496483  2.457967  2.644379
   H (  8)  2.450549  2.219167  1.085547  2.786820  3.077992  2.635788
   H (  9)  3.931456  2.176606  3.450816  1.093225  2.499815  2.555813
   H ( 10)  2.378125  2.133048  2.709819  1.090833  2.522046  3.063770
   H ( 11)  3.519022  2.182676  2.805169  1.095331  3.092466  2.523223
             H (  7)   H (  8)   H (  9)   H ( 10)
   H (  8)  1.839880
   H (  9)  4.351142  3.827731
   H ( 10)  3.639441  2.973463  1.790288
   H ( 11)  3.876606  2.664013  1.771936  1.775697
 
 Final energy is   -218.293078940926     


 ******************************
 **  OPTIMIZATION CONVERGED  **
 ******************************

                       Coordinates (Angstroms)
     ATOM                X               Y               Z
      1  F         1.4461939701    1.0721059269    0.3198331322
      2  C        -0.6839187842   -0.6975407602    0.2549674816
      3  C         0.6524734702   -0.7456673558   -0.3698827977
      4  C        -1.4876861330    0.5433337413   -0.1440048993
      5  H        -0.5723326132   -0.7645430998    1.3414581343
      6  H        -1.2036507624   -1.6222104933   -0.0583708460
      7  H         1.4271804803   -1.3779229948    0.0502119560
      8  H         0.7549937629   -0.5052965862   -1.4235065131
      9  H        -2.4522674423    0.5663133657    0.3699953097
     10  H        -0.8981787912    1.4207541940    0.1253102834
     11  H        -1.6759061572    0.5658750621   -1.2228072409

Z-matrix Print:
$molecule
0 1
C 
H  1 1.094259
H  1 1.106036 2 106.141779
C  1 1.476041 2 109.026192 3 -113.967929 0
H  4 1.084619 1 120.114676 2 36.582574 0
H  4 1.085547 1 119.285769 2 -168.560122 0
C  1 1.531336 2 111.212621 3 120.729705 0
H  7 1.090833 1 107.686539 2 66.023567 0
H  7 1.093225 1 110.956007 2 -54.546141 0
H  7 1.095331 1 111.313933 2 -175.005827 0
F  4 2.100000 1 100.075359 2 -66.666037 0
$end

PES scan, value:    2.1000 energy: -218.2930789409
------- Summary of potential scan: ------ 
    2.1000      -218.2930789409
----------------------------------------- 
Archival summary:
1\1\hpc0244\JobtypUnspecified\ProcedureUnspecified\6-31G**\137\knomura\WedMar1315:06:222019WedMar1315:06:222019\0\\#,JobtypUnspecified,ProcedureUnspecified,6-31G**,\\0,1\C\H,1,1.09426\H,1,1.10604,2,106.142\C,1,1.47604,2,109.026,3,-113.968,0\H,4,1.08462,1,120.115,2,36.5826,0\H,4,1.08555,1,119.286,2,-168.56,0\C,1,1.53134,2,111.213,3,120.73,0\H,7,1.09083,1,107.687,2,66.0236,0\H,7,1.09323,1,110.956,2,-54.5461,0\H,7,1.09533,1,111.314,2,-175.006,0\F,4,2.1,1,100.075,2,-66.666,0\\\@

 Total job time:  26.24s(wall), 299.54s(cpu) 
 Wed Mar 13 15:06:22 2019

        *************************************************************
        *                                                           *
        *  Thank you very much for using Q-Chem.  Have a nice day.  *
        *                                                           *
        *************************************************************


