
Running Job 1 of 1 halogens/Flourine/02/F_3.xyz.data/inputs/bond_singlet_2.8.in
qchem halogens/Flourine/02/F_3.xyz.data/inputs/bond_singlet_2.8.in_30042.0 /staging/scratch/2868761/qchem30042/ 1
/usr/usc/qchem/5.1.1/exe/qcprog.exe_s halogens/Flourine/02/F_3.xyz.data/inputs/bond_singlet_2.8.in_30042.0 /staging/scratch/2868761/qchem30042/
Check license passed

                  Welcome to Q-Chem
     A Quantum Leap Into The Future Of Chemistry


 Q-Chem 5.1, Q-Chem, Inc., Pleasanton, CA (2018)

 Yihan Shao,  Zhengting Gan,  E. Epifanovsky,  A. T. B. Gilbert,  M. Wormit,  
 J. Kussmann,  A. W. Lange,  A. Behn,  Jia Deng,  Xintian Feng,  D. Ghosh,  
 M. Goldey,  P. R. Horn,  L. D. Jacobson,  I. Kaliman,  T. Kus,  A. Landau,  
 Jie Liu,  E. I. Proynov,  R. M. Richard,  R. P. Steele,  E. J. Sundstrom,  
 H. L. Woodcock III,  P. M. Zimmerman,  D. Zuev,  B. Albrecht,  E. Alguire,  
 S. A. Baeppler,  D. Barton,  Z. Benda,  Y. A. Bernard,  E. J. Berquist,  
 K. B. Bravaya,  H. Burton,  D. Casanova,  Chun-Min Chang,  Yunqing Chen,  
 A. Chien,  K. D. Closser,  M. P. Coons,  S. Coriani,  S. Dasgupta,  
 A. L. Dempwolff,  M. Diedenhofen,  Hainam Do,  R. G. Edgar,  Po-Tung Fang,  
 S. Faraji,  S. Fatehi,  Qingguo Feng,  K. D. Fenk,  J. Fosso-Tande,  
 Qinghui Ge,  A. Ghysels,  G. Gidofalvi,  J. Gomes,  J. Gonthier,  A. Gunina,  
 D. Hait,  M. W. D. Hanson-Heine,  P. H. P. Harbach,  A. W. Hauser,  
 J. E. Herr,  E. G. Hohenstein,  Z. C. Holden,  Kerwin Hui,  B. C. Huynh,  
 T.-C. Jagau,  Hyunjun Ji,  B. Kaduk,  K. Khistyaev,  Jaehoon Kim,  
 P. Klunzinger,  K. Koh,  D. Kosenkov,  L. Koulias,  T. Kowalczyk,  
 C. M. Krauter,  A. Kunitsa,  Ka Un Lao,  A. Laurent,  K. V. Lawler,  
 Joonho Lee,  D. Lefrancois,  S. Lehtola,  D. S. Levine,  Yi-Pei Li,  
 You-Sheng Lin,  Fenglai Liu,  E. Livshits,  A. Luenser,  P. Manohar,  
 E. Mansoor,  S. F. Manzer,  Shan-Ping Mao,  Yuezhi Mao,  N. Mardirossian,  
 A. V. Marenich,  T. Markovich,  L. A. Martinez-Martinez,  S. A. Maurer,  
 N. J. Mayhall,  S. C. McKenzie,  J.-M. Mewes,  A. F. Morrison,  
 J. W. Mullinax,  K. Nanda,  T. S. Nguyen-Beck,  R. Olivares-Amaya,  
 J. A. Parkhill,  T. M. Perrine,  F. Plasser,  P. Pokhilko,  S. Prager,  
 A. Prociuk,  E. Ramos,  D. R. Rehn,  F. Rob,  M. Schneider,  N. Sergueev,  
 S. M. Sharada,  S. Sharma,  D. W. Small,  T. Stauch,  T. Stein,  
 Yu-Chuan Su,  A. J. W. Thom,  A. Tkatchenko,  T. Tsuchimochi,  N. M. Tubman,  
 L. Vogt,  M. L. Vidal,  O. Vydrov,  M. A. Watson,  J. Wenzel,  
 M. de Wergifosse,  T. A. Wesolowski,  A. White,  J. Witte,  A. Yamada,  
 Jun Yang,  K. Yao,  S. Yeganeh,  S. R. Yost,  Zhi-Qiang You,  A. Zech,  
 Igor Ying Zhang,  Xing Zhang,  Yan Zhao,  Ying Zhu,  B. R. Brooks,  
 G. K. L. Chan,  C. J. Cramer,  M. S. Gordon,  W. J. Hehre,  A. Klamt,  
 M. W. Schmidt,  C. D. Sherrill,  D. G. Truhlar,  A. Aspuru-Guzik,  R. Baer,  
 A. T. Bell,  N. A. Besley,  Jeng-Da Chai,  A. E. DePrince, III,  
 R. A. DiStasio Jr.,  A. Dreuw,  B. D. Dunietz,  T. R. Furlani,  
 Chao-Ping Hsu,  Yousung Jung,  Jing Kong,  D. S. Lambrecht,  WanZhen Liang,  
 C. Ochsenfeld,  V. A. Rassolov,  L. V. Slipchenko,  J. E. Subotnik,  
 T. Van Voorhis,  J. M. Herbert,  A. I. Krylov,  P. M. W. Gill,  M. Head-Gordon

 Contributors to earlier versions of Q-Chem not listed above: 
 R. D. Adamson,  B. Austin,  J. Baker,  G. J. O. Beran,  K. Brandhorst,  
 S. T. Brown,  E. F. C. Byrd,  A. K. Chakraborty,  C.-L. Cheng,  
 Siu Hung Chien,  D. M. Chipman,  D. L. Crittenden,  H. Dachsel,  
 R. J. Doerksen,  A. D. Dutoi,  L. Fusti-Molnar,  W. A. Goddard III,  
 A. Golubeva-Zadorozhnaya,  S. R. Gwaltney,  G. Hawkins,  A. Heyden,  
 S. Hirata,  G. Kedziora,  F. J. Keil,  C. Kelley,  Jihan Kim,  R. A. King,  
 R. Z. Khaliullin,  P. P. Korambath,  W. Kurlancheek,  A. M. Lee,  M. S. Lee,  
 S. V. Levchenko,  Ching Yeh Lin,  D. Liotard,  R. C. Lochan,  I. Lotan,  
 P. E. Maslen,  N. Nair,  D. P. O'Neill,  D. Neuhauser,  E. Neuscamman,  
 C. M. Oana,  R. Olson,  B. Peters,  R. Peverati,  P. A. Pieniazek,  
 Y. M. Rhee,  J. Ritchie,  M. A. Rohrdanz,  E. Rosta,  N. J. Russ,  
 H. F. Schaefer III,  N. E. Schultz,  N. Shenvi,  A. C. Simmonett,  A. Sodt,  
 D. Stuck,  K. S. Thanthiriwatte,  V. Vanovschi,  Tao Wang,  A. Warshel,  
 C. F. Williams,  Q. Wu,  X. Xu,  W. Zhang

 Please cite Q-Chem as follows:
 Y. Shao et al., Mol. Phys. 113, 184-215 (2015)
 DOI: 10.1080/00268976.2014.952696

 Q-Chem 5.1.1 for Intel X86 EM64T Linux

 Parts of Q-Chem use Armadillo 8.300.2 (Tropical Shenanigans).
 http://arma.sourceforge.net/

 Q-Chem begins on Wed Mar 13 15:09:54 2019  

Host: 
0

     Scratch files written to /staging/scratch/2868761/qchem30042//
 Aug318 |scratch|qcdevops|jenkins|workspace|build_RNUM 6013   
Processing $rem in /usr/usc/qchem/5.1.1/config/preferences.
 MEM_TOTAL  2000 
Input Ideriv = 2
Curr. Ideriv = -1
Max.  Ideriv = 2

Checking the input file for inconsistencies... 	...done.

--------------------------------------------------------------
User input:
--------------------------------------------------------------

$comment
potential surface scanner
$end

$rem
JOBTYPE  PES_SCAN
UNRESTRICTED TRUE
SYM_IGNORE  TRUE
GEOM_OPT_MAX_CYCLES 400
SCF_MAX_CYCLES 400
METHOD   B3LYP
BASIS   6-31G**
PDB_PRINT 2
SCF_CONVERGENCE 6
THRESH 14
SCF_PRINT 1
$end
$molecule
0 1
F 1.351930 1.593293 0.287878
C -0.714631 -0.776263 0.237164
C 0.596044 -0.907964 -0.392083
C -1.420482 0.547532 -0.117383
H -0.634762 -0.917550 1.318506
H -1.313021 -1.629928 -0.147328
H 1.434043 -1.382883 0.107712
H 0.727859 -0.652287 -1.439231
H -2.371839 0.621596 0.415866
H -0.727777 1.347355 0.163885
H -1.620464 0.612299 -1.191784
$end
$scan
stre 1 3 2.800000 2.801000 0.100000
$end
--------------------------------------------------------------
 ----------------------------------------------------------------
             Standard Nuclear Orientation (Angstroms)
    I     Atom           X                Y                Z
 ----------------------------------------------------------------
    1      F       1.3519300000     1.5932930000     0.2878780000
    2      C      -0.7146310000    -0.7762630000     0.2371640000
    3      C       0.5960440000    -0.9079640000    -0.3920830000
    4      C      -1.4204820000     0.5475320000    -0.1173830000
    5      H      -0.6347620000    -0.9175500000     1.3185060000
    6      H      -1.3130210000    -1.6299280000    -0.1473280000
    7      H       1.4340430000    -1.3828830000     0.1077120000
    8      H       0.7278590000    -0.6522870000    -1.4392310000
    9      H      -2.3718390000     0.6215960000     0.4158660000
   10      H      -0.7277770000     1.3473550000     0.1638850000
   11      H      -1.6204640000     0.6122990000    -1.1917840000
 ----------------------------------------------------------------
 Nuclear Repulsion Energy =   116.1087684382 hartrees
 There are       17 alpha and       17 beta electrons
 Requested basis set is 6-31G(d,p)
 There are 37 shells and 95 basis functions

 Total QAlloc Memory Limit   2000 MB
 Mega-Array Size       188 MB
 MEM_STATIC part       192 MB
A total of 1 constraints
  
            1
    1   1.0100000
    2   1.0100000
    3   3.0100000
    4   2.8000000
    5   2.8010000
    6   0.1000000
    7   0.0000000
    8   0.0000000
    9   0.0000000
   10   0.0000000

                       Distance Matrix (Angstroms)
             F (  1)   C (  2)   C (  3)   C (  4)   H (  5)   H (  6)
   C (  2)  3.144526
   C (  3)  2.699999  1.459851
   C (  4)  2.990672  1.541545  2.502060
   H (  5)  3.363550  1.093454  2.107389  2.196724
   H (  6)  4.204821  1.111147  2.055643  2.180316  1.765273
   H (  7)  2.982755  2.236414  1.085166  3.453329  2.441825  2.769916
   H (  8)  2.900862  2.215050  1.085940  2.793245  3.087428  2.605760
   H (  9)  3.850588  2.175381  3.435210  1.093124  2.490214  2.551008
   H ( 10)  2.097866  2.124923  2.673587  1.094837  2.543933  3.050177
   H ( 11)  3.462207  2.188728  2.804216  1.094772  3.100581  2.492587
             H (  7)   H (  8)   H (  9)   H ( 10)
   H (  8)  1.850810
   H (  9)  4.312497  3.830443
   H ( 10)  3.482933  2.947444  1.814707
   H ( 11)  3.872913  2.678624  1.774596  1.781863
 
 A cutoff of  1.0D-14 yielded    689 shell pairs
 There are      4641 function pairs
 
 -------------------------------------------------------
 OpenMP Integral Computing Module                       
 Release: version 1.0, May 2013, Q-Chem Inc. Pittsburgh 
 -------------------------------------------------------
 Integral Job Info:
 Integral job number is                      11
 Integral operator is                         1
 short-range coefficients                     0
 long-range coefficients              100000000
 Omega coefficients                           0
 if combine SR and LR in K                    0
 Integral screening is                        0
 Integral computing path is                   2
 max size of driver memory is            800000
 size of driver memory is                593474
 size of scratch memory is              2361544
 max col of scratch BK array               1296
 max len of scratch array in speh3          155
 max len of scratch index in speh4           18
 max int batch size is                      520
 min int batch size is                       52
 fixed nKL is                                52
 max L of basis functions is                  2
 order of int derivative is                   0
 number of shells is                         37
 number of basis is                          95
 number of cartesian basis is                95
 number of contracted shell pairs           689
 number of primitive shell pairs           2393
 maxK2 (contraction) of shell pair           36
 max number of K2 of shell pair               1
 max number of CS2 of shell pair             58
 max number of PS2 of shell pair            240
 mem total for path MDJ                  514716
 -------------------------------------------------------
 Smallest overlap matrix eigenvalue = 5.86E-03

 Scale SEOQF with 1.000000e-01/1.000000e-01/1.000000e+00

 Standard Electronic Orientation quadrupole field applied
 Nucleus-field energy     =    -0.0000000034 hartrees
 Guess from superposition of atomic densities
 Warning:  Energy on first SCF cycle will be non-variational
 SAD guess density has 34.000000 electrons

 -----------------------------------------------------------------------
  General SCF calculation program by
  Eric Jon Sundstrom, Paul Horn, Yuezhi Mao, Dmitri Zuev, Alec White,
  David Stuck, Shaama M.S., Shane Yost, Joonho Lee, David Small,
  Daniel Levine, Susi Lehtola, Hugh Burton, Evgeny Epifanovsky
 -----------------------------------------------------------------------
 Exchange:     0.2000 Hartree-Fock + 0.0800 Slater + 0.7200 B88
 Correlation:  0.1900 VWN1RPA + 0.8100 LYP
 Using SG-1 standard quadrature grid
 using 12 threads for integral computing
 -------------------------------------------------------
 OpenMP Integral computing Module                
 Release: version 1.0, May 2013, Q-Chem Inc. Pittsburgh 
 -------------------------------------------------------
 -------------------------------------------------------
 OpenMP BLAS3 based DFT computing Module                
 Release: version 1.0, May 2013, Q-Chem Inc. Pittsburgh 
 -------------------------------------------------------
 A unrestricted SCF calculation will be
 performed using DIIS
 SCF converges when DIIS error is below 1.0e-06
 Alpha HF Exchange    Energy =  -2.77892175596544
 Beta HF Exchange     Energy =  -2.77892175596544
 DFT Correlation      Energy =  -1.42980619806412
 DFT Exchange         Energy = -21.81969656552157
 One-Electron (alpha) Energy = -262.19969019750789
 One-Electron (beta)  Energy = -262.19969019750789
 Total Coulomb        Energy = 218.69215816047776
 ---------------------------------------
  Cycle       Energy         DIIS error
 ---------------------------------------
    1    -218.4058000752      2.95e-02  
 Alpha HF Exchange    Energy =  -2.85648569524300
 Beta HF Exchange     Energy =  -2.85648569524300
 DFT Correlation      Energy =  -1.46285429455235
 DFT Exchange         Energy = -22.65480683573271
 One-Electron (alpha) Energy = -266.28738506648210
 One-Electron (beta)  Energy = -266.28738506648205
 Total Coulomb        Energy = 228.27707264279024
    2    -218.0195615761      6.60e-03  
 Alpha HF Exchange    Energy =  -2.61700460710518
 Beta HF Exchange     Energy =  -2.61700460710517
 DFT Correlation      Energy =  -1.39407643700251
 DFT Exchange         Energy = -20.86716619288332
 One-Electron (alpha) Energy = -254.05847295274646
 One-Electron (beta)  Energy = -254.05847295274577
 Total Coulomb        Energy = 210.57056037908299
    3    -208.9328689357      3.41e-02  
 Alpha HF Exchange    Energy =  -2.76038898486047
 Beta HF Exchange     Energy =  -2.76038898486047
 DFT Correlation      Energy =  -1.43791444438672
 DFT Exchange         Energy = -21.98374633077063
 One-Electron (alpha) Energy = -262.83139598440658
 One-Electron (beta)  Energy = -262.83139598440658
 Total Coulomb        Energy = 220.33617047960178
    4    -218.1602917993      4.37e-03  
 Alpha HF Exchange    Energy =  -2.76864434534393
 Beta HF Exchange     Energy =  -2.76864434534393
 DFT Correlation      Energy =  -1.44420409350007
 DFT Exchange         Energy = -22.07320792086479
 One-Electron (alpha) Energy = -263.58662100648706
 One-Electron (beta)  Energy = -263.58662100648718
 Total Coulomb        Energy = 221.99960131590029
    5    -218.1195729673      4.98e-03  
 Alpha HF Exchange    Energy =  -2.77465598848984
 Beta HF Exchange     Energy =  -2.77465598848984
 DFT Correlation      Energy =  -1.44477857998720
 DFT Exchange         Energy = -22.11230269665878
 One-Electron (alpha) Energy = -263.71498540198650
 One-Electron (beta)  Energy = -263.71498540198644
 Total Coulomb        Energy = 222.23864114603506
    6    -218.1889544767      3.09e-03  
 Alpha HF Exchange    Energy =  -2.78546358512331
 Beta HF Exchange     Energy =  -2.78546358512331
 DFT Correlation      Energy =  -1.44683441327549
 DFT Exchange         Energy = -22.18523218272793
 One-Electron (alpha) Energy = -264.04235862951526
 One-Electron (beta)  Energy = -264.04235862951526
 Total Coulomb        Energy = 222.95501833494274
    7    -218.2239242555      1.23e-03  
 Alpha HF Exchange    Energy =  -2.78968016155167
 Beta HF Exchange     Energy =  -2.78968016155167
 DFT Correlation      Energy =  -1.44708065666816
 DFT Exchange         Energy = -22.20649689396643
 One-Electron (alpha) Energy = -264.09726211817349
 One-Electron (beta)  Energy = -264.09726211817332
 Total Coulomb        Energy = 223.08781100234631
    8    -218.2308826729      2.47e-04  
 Alpha HF Exchange    Energy =  -2.79137846016918
 Beta HF Exchange     Energy =  -2.79137846016918
 DFT Correlation      Energy =  -1.44735631366965
 DFT Exchange         Energy = -22.21688845583794
 One-Electron (alpha) Energy = -264.14021427327572
 One-Electron (beta)  Energy = -264.14021427327555
 Total Coulomb        Energy = 223.18750727709539
    9    -218.2311545245      1.38e-05  
 Alpha HF Exchange    Energy =  -2.79135588707449
 Beta HF Exchange     Energy =  -2.79135588707448
 DFT Correlation      Energy =  -1.44735587883776
 DFT Exchange         Energy = -22.21674401166091
 One-Electron (alpha) Energy = -264.14004597900595
 One-Electron (beta)  Energy = -264.14004597900561
 Total Coulomb        Energy = 223.18698018116839
   10    -218.2311550067      7.76e-06  
 Alpha HF Exchange    Energy =  -2.79132648770627
 Beta HF Exchange     Energy =  -2.79132648770626
 DFT Correlation      Energy =  -1.44735287028065
 DFT Exchange         Energy = -22.21658702367635
 One-Electron (alpha) Energy = -264.13952138687944
 One-Electron (beta)  Energy = -264.13952138687921
 Total Coulomb        Energy = 223.18571191402043
   11    -218.2311552943      2.01e-06  
 Alpha HF Exchange    Energy =  -2.79131473992479
 Beta HF Exchange     Energy =  -2.79131473992477
 DFT Correlation      Energy =  -1.44735115910324
 DFT Exchange         Energy = -22.21651932373424
 One-Electron (alpha) Energy = -264.13922062067593
 One-Electron (beta)  Energy = -264.13922062067536
 Total Coulomb        Energy = 223.18501745471332
   12    -218.2311553145      1.53e-07  Convergence criterion met
 ---------------------------------------
 SCF time:   CPU 26.67s  wall 2.00s 
<S^2> =         -0.000000000
 Alpha HF Exchange    Energy =  -2.79131473992479
 Beta HF Exchange     Energy =  -2.79131473992477
 DFT Correlation      Energy =  -1.44735115910324
 DFT Exchange         Energy = -22.21651932373424
 One-Electron (alpha) Energy = -264.13922062067593
 One-Electron (beta)  Energy = -264.13922062067536
 Total Coulomb        Energy = 223.18501745471332
 Nuclear repulsion Energy = 116.10876843481823
 SCF   energy in the final basis set =     -218.2311553145
 Total energy in the final basis set =     -218.2311553145
 
 --------------------------------------------------------------
 
                    Orbital Energies (a.u.)
 --------------------------------------------------------------
 
 Alpha MOs
 -- Occupied --
-24.541 -10.304 -10.233 -10.186  -0.967  -0.833  -0.708  -0.621
 -0.513  -0.476  -0.450  -0.390  -0.378  -0.367  -0.250  -0.241
 -0.240
 -- Virtual --
 -0.142   0.075   0.102   0.109   0.143   0.159   0.171   0.212
  0.222   0.244   0.463   0.490   0.531   0.536   0.545   0.582
  0.621   0.685   0.752   0.773   0.800   0.855   0.871   0.885
  0.901   0.927   0.965   1.097   1.200   1.270   1.298   1.352
  1.411   1.441   1.499   1.515   1.639   1.681   1.796   1.831
  1.869   1.913   1.968   1.989   1.996   1.999   2.009   2.045
  2.053   2.067   2.087   2.105   2.201   2.250   2.277   2.352
  2.387   2.441   2.460   2.563   2.640   2.675   2.704   2.784
  2.827   2.874   2.908   3.180   3.217   3.247   3.395   3.414
  3.456   3.528   3.689   4.227   4.406   4.593
 
 Beta MOs
 -- Occupied --
-24.541 -10.304 -10.233 -10.186  -0.967  -0.833  -0.708  -0.621
 -0.513  -0.476  -0.450  -0.390  -0.378  -0.367  -0.250  -0.241
 -0.240
 -- Virtual --
 -0.142   0.075   0.102   0.109   0.143   0.159   0.171   0.212
  0.222   0.244   0.463   0.490   0.531   0.536   0.545   0.582
  0.621   0.685   0.752   0.773   0.800   0.855   0.871   0.885
  0.901   0.927   0.965   1.097   1.200   1.270   1.298   1.352
  1.411   1.441   1.499   1.515   1.639   1.681   1.796   1.831
  1.869   1.913   1.968   1.989   1.996   1.999   2.009   2.045
  2.053   2.067   2.087   2.105   2.201   2.250   2.277   2.352
  2.387   2.441   2.460   2.563   2.640   2.675   2.704   2.784
  2.827   2.874   2.908   3.180   3.217   3.247   3.395   3.414
  3.456   3.528   3.689   4.227   4.406   4.593
 --------------------------------------------------------------
 
          Ground-State Mulliken Net Atomic Charges

     Atom                 Charge (a.u.)    Spin (a.u.)
  --------------------------------------------------------
      1 F                    -0.438433       0.000000
      2 C                    -0.228138       0.000000
      3 C                    -0.060896      -0.000000
      4 C                    -0.329134      -0.000000
      5 H                     0.150323      -0.000000
      6 H                     0.145383      -0.000000
      7 H                     0.179167       0.000000
      8 H                     0.179585       0.000000
      9 H                     0.106596      -0.000000
     10 H                     0.190995      -0.000000
     11 H                     0.104552       0.000000
  --------------------------------------------------------
  Sum of atomic charges =    -0.000000
  Sum of spin   charges =     0.000000

 -----------------------------------------------------------------
                    Cartesian Multipole Moments
 -----------------------------------------------------------------
    Charge (ESU x 10^10)
                -0.0000
    Dipole Moment (Debye)
         X      -2.3559      Y      -5.1795      Z      -1.1454
       Tot       5.8043
    Quadrupole Moments (Debye-Ang)
        XX     -26.8596     XY      -5.6352     YY     -27.6691
        XZ      -1.4284     YZ      -0.5262     ZZ     -23.4673
    Octopole Moments (Debye-Ang^2)
       XXX       8.7778    XXY      -9.6417    XYY      -1.1397
       YYY     -13.0863    XXZ      -0.2070    XYZ      -0.9988
       YYZ      -0.6814    XZZ       4.5687    YZZ      -2.6426
       ZZZ      -0.3340
    Hexadecapole Moments (Debye-Ang^3)
      XXXX    -227.5873   XXXY     -25.0696   XXYY     -73.0268
      XYYY     -23.0443   YYYY    -192.9125   XXXZ      -3.7768
      XXYZ      -3.7102   XYYZ      -0.9053   YYYZ      -7.9032
      XXZZ     -45.9072   XYZZ      -5.7231   YYZZ     -40.5052
      XZZZ      -2.6808   YZZZ      -7.7750   ZZZZ     -48.9875
 -----------------------------------------------------------------
 Calculating analytic gradient of the SCF energy
 Gradient of SCF Energy
            1           2           3           4           5           6
    1   0.0113260  -0.0001391  -0.0112786   0.0000383   0.0000146   0.0000653
    2   0.0375100  -0.0000160  -0.0374160  -0.0000138   0.0000514  -0.0000153
    3   0.0101669   0.0000560  -0.0101571  -0.0000634   0.0000109  -0.0000318
            7           8           9          10          11
    1   0.0000012   0.0000121   0.0000018  -0.0000057  -0.0000358
    2  -0.0000288  -0.0000096   0.0000280  -0.0000647  -0.0000253
    3  -0.0000026   0.0000047   0.0000112   0.0000059  -0.0000008
 Max gradient component =       3.751E-02
 RMS gradient           =       9.953E-03
 Gradient time:  CPU 7.10 s  wall 0.71 s
 Geometry Optimization Parameters
   NAtoms,    NIC,     NZ,  NCons,   NDum,   NFix, NCnnct, MaxDiis
       11      66       0       1       0       0       0       0


** CONSTRAINED OPTIMIZATION IN DELOCALIZED INTERNAL COORDINATES **
   Searching for a Minimum

   Optimization Cycle:   1

                       Coordinates (Angstroms)
     ATOM                X               Y               Z
      1  F         1.3519300000    1.5932930000    0.2878780000
      2  C        -0.7146310000   -0.7762630000    0.2371640000
      3  C         0.5960440000   -0.9079640000   -0.3920830000
      4  C        -1.4204820000    0.5475320000   -0.1173830000
      5  H        -0.6347620000   -0.9175500000    1.3185060000
      6  H        -1.3130210000   -1.6299280000   -0.1473280000
      7  H         1.4340430000   -1.3828830000    0.1077120000
      8  H         0.7278590000   -0.6522870000   -1.4392310000
      9  H        -2.3718390000    0.6215960000    0.4158660000
     10  H        -0.7277770000    1.3473550000    0.1638850000
     11  H        -1.6204640000    0.6122990000   -1.1917840000
   Point Group: c1    Number of degrees of freedom:    27


   Energy is   -218.231155315

              Constraints and their Current Values
                                        Value     Constraint
   Distance(Angs):        1   3             2.699999     2.800000

 Attempting to Generate Delocalized Internal Coordinates

   Using Lagrange Multiplier Algorithm


 28 Hessian modes will be used to form the next step
  Hessian Eigenvalues:
    -0.986716    0.037313    0.045000    0.045000    0.045379    0.046448
     0.072012    0.081698    0.081778    0.086861    0.111891    0.120526
     0.137155    0.140541    0.160000    0.160000    0.160000    0.214129
     0.282194    0.324788    0.337584    0.342670    0.344165    0.344541
     0.352861    0.353773    0.369809    1.013462

 Minimum Search - Taking P-RFO Step
 Searching for Lamda that Maximizes Along the Constraint modes Only
 Value Taken    Lamda =   0.02620772
 Searching for Lamda that Minimizes Along All other modes
 Value Taken    Lamda =  -0.01054830
 Step Taken.  Stepsize is  0.185227

                             Maximum     Tolerance    Cnvgd?
         Gradient            0.188974       0.000300      NO
         Displacement        0.185221       0.001200      NO
         Energy change     *********       0.000001      NO


 New Cartesian Coordinates Obtained by Inverse Iteration

 Displacement from previous Coordinates is:  0.185412
 ----------------------------------------------------------------
             Standard Nuclear Orientation (Angstroms)
    I     Atom           X                Y                Z
 ----------------------------------------------------------------
    1      F       1.3436797680     1.6733534032     0.2995504692
    2      C      -0.7136858671    -0.7819341356     0.2338647480
    3      C       0.5945990433    -0.9312970504    -0.3958324839
    4      C      -1.4134123251     0.5490614453    -0.1149031679
    5      H      -0.6341564002    -0.9257406782     1.3149002190
    6      H      -1.3202497567    -1.6290444965    -0.1523480385
    7      H       1.4264658491    -1.4170316970     0.1037954198
    8      H       0.7293664770    -0.6775120725    -1.4430608687
    9      H      -2.3630302259     0.6212852437     0.4216653912
   10      H      -0.7273903631     1.3594674282     0.1644787689
   11      H      -1.6152861992     0.6145926097    -1.1889084571
 ----------------------------------------------------------------
 Nuclear Repulsion Energy =   115.2797279149 hartrees
 There are       17 alpha and       17 beta electrons

                       Distance Matrix (Angstroms)
             F (  1)   C (  2)   C (  3)   C (  4)   H (  5)   H (  6)
   C (  2)  3.203983
   C (  3)  2.798014  1.459602
   C (  4)  3.006220  1.543634  2.510476
   H (  5)  3.420243  1.093455  2.106295  2.196957
   H (  6)  4.266915  1.111160  2.052506  2.180419  1.765836
   H (  7)  3.097685  2.236183  1.085158  3.460962  2.440145  2.766768
   H (  8)  2.990091  2.214810  1.085936  2.803567  3.086610  2.602361
   H (  9)  3.855056  2.173622  3.438951  1.093113  2.485993  2.545755
   H ( 10)  2.099071  2.142569  2.703554  1.097925  2.560144  3.063179
   H ( 11)  3.477350  2.188025  2.811110  1.094776  3.099081  2.489058
             H (  7)   H (  8)   H (  9)   H ( 10)
   H (  8)  1.850838
   H (  9)  4.314633  3.837577
   H ( 10)  3.514502  2.975838  1.812836
   H ( 11)  3.879541  2.689149  1.775701  1.781812
 
 Applying Cartesian multipole field
    Component          Value
    ---------          -----
     (2,0,0)        1.00000E-11
     (0,2,0)        2.00000E-11
     (0,0,2)       -3.00000E-10
 Nucleus-field energy     =    -0.0000000033 hartrees
 Requested basis set is 6-31G(d,p)
 There are 37 shells and 95 basis functions
 A cutoff of  1.0D-14 yielded    689 shell pairs
 There are      4641 function pairs
 Smallest overlap matrix eigenvalue = 5.89E-03
 Guess from superposition of atomic densities
 Warning:  Energy on first SCF cycle will be non-variational
 SAD guess density has 34.000000 electrons

 -----------------------------------------------------------------------
  General SCF calculation program by
  Eric Jon Sundstrom, Paul Horn, Yuezhi Mao, Dmitri Zuev, Alec White,
  David Stuck, Shaama M.S., Shane Yost, Joonho Lee, David Small,
  Daniel Levine, Susi Lehtola, Hugh Burton, Evgeny Epifanovsky
 -----------------------------------------------------------------------
 Exchange:     0.2000 Hartree-Fock + 0.0800 Slater + 0.7200 B88
 Correlation:  0.1900 VWN1RPA + 0.8100 LYP
 Using SG-1 standard quadrature grid
 using 12 threads for integral computing
 -------------------------------------------------------
 OpenMP Integral computing Module                
 Release: version 1.0, May 2013, Q-Chem Inc. Pittsburgh 
 -------------------------------------------------------
 -------------------------------------------------------
 OpenMP BLAS3 based DFT computing Module                
 Release: version 1.0, May 2013, Q-Chem Inc. Pittsburgh 
 -------------------------------------------------------
 A unrestricted SCF calculation will be
 performed using DIIS
 SCF converges when DIIS error is below 1.0e-06
 Alpha HF Exchange    Energy =  -2.77821699647137
 Beta HF Exchange     Energy =  -2.77821699647137
 DFT Correlation      Energy =  -1.42917964069350
 DFT Exchange         Energy = -21.81843077298898
 One-Electron (alpha) Energy = -261.37293152589740
 One-Electron (beta)  Energy = -261.37293152589740
 Total Coulomb        Energy = 217.86997462318445
 ---------------------------------------
  Cycle       Energy         DIIS error
 ---------------------------------------
    1    -218.4002049237      2.94e-02  
 Alpha HF Exchange    Energy =  -2.85694670592177
 Beta HF Exchange     Energy =  -2.85694670592177
 DFT Correlation      Energy =  -1.46242378334716
 DFT Exchange         Energy = -22.65721031308212
 One-Electron (alpha) Energy = -265.46016123195443
 One-Electron (beta)  Energy = -265.46016123195449
 Total Coulomb        Energy = 227.46638547980410
    2    -218.0077365808      6.64e-03  
 Alpha HF Exchange    Energy =  -2.62245113089417
 Beta HF Exchange     Energy =  -2.62245113089417
 DFT Correlation      Energy =  -1.38967936267199
 DFT Exchange         Energy = -20.80427971726154
 One-Electron (alpha) Energy = -251.70731934037022
 One-Electron (beta)  Energy = -251.70731934037002
 Total Coulomb        Energy = 210.13285823690708
    3    -205.4409138740      2.62e-02  
 Alpha HF Exchange    Energy =  -2.81434879393612
 Beta HF Exchange     Energy =  -2.81434879393611
 DFT Correlation      Energy =  -1.44519833987115
 DFT Exchange         Energy = -22.30867473475131
 One-Electron (alpha) Energy = -263.26132428039563
 One-Electron (beta)  Energy = -263.26132428039529
 Total Coulomb        Energy = 222.57488969606712
    4    -218.0506016157      5.42e-03  
 Alpha HF Exchange    Energy =  -2.81682818689868
 Beta HF Exchange     Energy =  -2.81682818689868
 DFT Correlation      Energy =  -1.45201388220843
 DFT Exchange         Energy = -22.36128562501820
 One-Electron (alpha) Energy = -264.06676294764065
 One-Electron (beta)  Energy = -264.06676294764071
 Total Coulomb        Energy = 224.13191307105780
    5    -218.1688407937      2.61e-03  
 Alpha HF Exchange    Energy =  -2.77262626021501
 Beta HF Exchange     Energy =  -2.77262626021502
 DFT Correlation      Energy =  -1.44466601782756
 DFT Exchange         Energy = -22.11297368873431
 One-Electron (alpha) Energy = -262.89188698261160
 One-Electron (beta)  Energy = -262.89188698261182
 Total Coulomb        Energy = 221.49011705315289
    6    -218.1168212275      4.67e-03  
 Alpha HF Exchange    Energy =  -2.76866929332324
 Beta HF Exchange     Energy =  -2.76866929332324
 DFT Correlation      Energy =  -1.44318911699489
 DFT Exchange         Energy = -22.07807310217918
 One-Electron (alpha) Energy = -262.70719026839936
 One-Electron (beta)  Energy = -262.70719026839924
 Total Coulomb        Energy = 221.06644579378150
    7    -218.1268076373      4.53e-03  
 Alpha HF Exchange    Energy =  -2.77068636623009
 Beta HF Exchange     Energy =  -2.77068636623009
 DFT Correlation      Energy =  -1.44368510132167
 DFT Exchange         Energy = -22.09342360633775
 One-Electron (alpha) Energy = -262.78366275254677
 One-Electron (beta)  Energy = -262.78366275254683
 Total Coulomb        Energy = 221.22378562001532
    8    -218.1422934136      4.14e-03  
 Alpha HF Exchange    Energy =  -2.78443630045011
 Beta HF Exchange     Energy =  -2.78443630045011
 DFT Correlation      Energy =  -1.44593202182807
 DFT Exchange         Energy = -22.17988549576119
 One-Electron (alpha) Energy = -263.15877585321044
 One-Electron (beta)  Energy = -263.15877585321050
 Total Coulomb        Energy = 222.01450372362098
    9    -218.2180101897      1.10e-03  
 Alpha HF Exchange    Energy =  -2.78898501054377
 Beta HF Exchange     Energy =  -2.78898501054377
 DFT Correlation      Energy =  -1.44659570336767
 DFT Exchange         Energy = -22.20592479823679
 One-Electron (alpha) Energy = -263.27408581504187
 One-Electron (beta)  Energy = -263.27408581504187
 Total Coulomb        Energy = 222.27538289441245
   10    -218.2235513468      2.86e-04  
 Alpha HF Exchange    Energy =  -2.79062232453178
 Beta HF Exchange     Energy =  -2.79062232453177
 DFT Correlation      Energy =  -1.44679678102298
 DFT Exchange         Energy = -22.21506873725735
 One-Electron (alpha) Energy = -263.30580261060936
 One-Electron (beta)  Energy = -263.30580261060913
 Total Coulomb        Energy = 222.35103794811954
   11    -218.2239495289      9.81e-06  
 Alpha HF Exchange    Energy =  -2.79065529358960
 Beta HF Exchange     Energy =  -2.79065529358957
 DFT Correlation      Energy =  -1.44680291205575
 DFT Exchange         Energy = -22.21526435860619
 One-Electron (alpha) Energy = -263.30708118298674
 One-Electron (beta)  Energy = -263.30708118298605
 Total Coulomb        Energy = 222.35386244339563
   12    -218.2239498689      4.32e-06  
 Alpha HF Exchange    Energy =  -2.79062657732956
 Beta HF Exchange     Energy =  -2.79062657732951
 DFT Correlation      Energy =  -1.44679872434677
 DFT Exchange         Energy = -22.21509705610849
 One-Electron (alpha) Energy = -263.30638520657988
 One-Electron (beta)  Energy = -263.30638520657868
 Total Coulomb        Energy = 222.35224151284478
   13    -218.2239499239      2.68e-06  
 Alpha HF Exchange    Energy =  -2.79064108089101
 Beta HF Exchange     Energy =  -2.79064108089094
 DFT Correlation      Energy =  -1.44680092161635
 DFT Exchange         Energy = -22.21518382347556
 One-Electron (alpha) Energy = -263.30673002583023
 One-Electron (beta)  Energy = -263.30673002582864
 Total Coulomb        Energy = 222.35304909224254
   14    -218.2239499547      3.53e-07  Convergence criterion met
 ---------------------------------------
 SCF time:   CPU 30.65s  wall 2.00s 
<S^2> =         -0.000000000
 Alpha HF Exchange    Energy =  -2.79064108089101
 Beta HF Exchange     Energy =  -2.79064108089094
 DFT Correlation      Energy =  -1.44680092161635
 DFT Exchange         Energy = -22.21518382347556
 One-Electron (alpha) Energy = -263.30673002583023
 One-Electron (beta)  Energy = -263.30673002582864
 Total Coulomb        Energy = 222.35304909224254
 Nuclear repulsion Energy = 115.27972791155585
 SCF   energy in the final basis set =     -218.2239499547
 Total energy in the final basis set =     -218.2239499547
 
 --------------------------------------------------------------
 
                    Orbital Energies (a.u.)
 --------------------------------------------------------------
 
 Alpha MOs
 -- Occupied --
-24.538 -10.305 -10.235 -10.187  -0.964  -0.835  -0.710  -0.622
 -0.515  -0.476  -0.451  -0.391  -0.379  -0.367  -0.245  -0.238
 -0.237
 -- Virtual --
 -0.148   0.074   0.100   0.108   0.142   0.157   0.170   0.210
  0.221   0.244   0.461   0.489   0.529   0.531   0.545   0.580
  0.620   0.683   0.753   0.772   0.799   0.853   0.870   0.884
  0.899   0.927   0.964   1.096   1.196   1.268   1.302   1.348
  1.404   1.437   1.485   1.513   1.637   1.676   1.793   1.828
  1.869   1.912   1.969   1.990   1.998   1.998   2.008   2.043
  2.044   2.067   2.084   2.100   2.198   2.244   2.273   2.344
  2.386   2.437   2.458   2.558   2.639   2.674   2.704   2.781
  2.825   2.872   2.903   3.177   3.213   3.245   3.392   3.413
  3.454   3.525   3.676   4.216   4.399   4.589
 
 Beta MOs
 -- Occupied --
-24.538 -10.305 -10.235 -10.187  -0.964  -0.835  -0.710  -0.622
 -0.515  -0.476  -0.451  -0.391  -0.379  -0.367  -0.245  -0.238
 -0.237
 -- Virtual --
 -0.148   0.074   0.100   0.108   0.142   0.157   0.170   0.210
  0.221   0.244   0.461   0.489   0.529   0.531   0.545   0.580
  0.620   0.683   0.753   0.772   0.799   0.853   0.870   0.884
  0.899   0.927   0.964   1.096   1.196   1.268   1.302   1.348
  1.404   1.437   1.485   1.513   1.637   1.676   1.793   1.828
  1.869   1.912   1.969   1.990   1.998   1.998   2.008   2.043
  2.044   2.067   2.084   2.100   2.198   2.244   2.273   2.344
  2.386   2.437   2.458   2.558   2.639   2.674   2.704   2.781
  2.825   2.872   2.903   3.177   3.213   3.245   3.392   3.413
  3.454   3.525   3.676   4.216   4.399   4.589
 --------------------------------------------------------------
 
          Ground-State Mulliken Net Atomic Charges

     Atom                 Charge (a.u.)    Spin (a.u.)
  --------------------------------------------------------
      1 F                    -0.440990       0.000000
      2 C                    -0.229418       0.000000
      3 C                    -0.063177      -0.000000
      4 C                    -0.329212      -0.000000
      5 H                     0.151153      -0.000000
      6 H                     0.148036      -0.000000
      7 H                     0.179256       0.000000
      8 H                     0.180166       0.000000
      9 H                     0.106977      -0.000000
     10 H                     0.192266      -0.000000
     11 H                     0.104943      -0.000000
  --------------------------------------------------------
  Sum of atomic charges =    -0.000000
  Sum of spin   charges =    -0.000000

 -----------------------------------------------------------------
                    Cartesian Multipole Moments
 -----------------------------------------------------------------
    Charge (ESU x 10^10)
                 0.0000
    Dipole Moment (Debye)
         X      -2.3916      Y      -5.4055      Z      -1.1772
       Tot       6.0270
    Quadrupole Moments (Debye-Ang)
        XX     -26.8094     XY      -5.8881     YY     -28.1093
        XZ      -1.4703     YZ      -0.6004     ZZ     -23.4766
    Octopole Moments (Debye-Ang^2)
       XXX       8.7927    XXY     -10.2072    XYY      -1.8924
       YYY     -15.2259    XXZ      -0.2847    XYZ      -1.1188
       YYZ      -0.9443    XZZ       4.5452    YZZ      -2.9673
       ZZZ      -0.4562
    Hexadecapole Moments (Debye-Ang^3)
      XXXX    -226.0018   XXXY     -26.5906   XXYY     -75.1151
      XYYY     -26.1152   YYYY    -205.3731   XXXZ      -3.9741
      XXYZ      -4.1431   XYYZ      -1.1913   YYYZ      -9.2983
      XXZZ     -45.6804   XYZZ      -6.2111   YYZZ     -42.3032
      XZZZ      -2.8222   YZZZ      -8.7236   ZZZZ     -49.1827
 -----------------------------------------------------------------
 Calculating analytic gradient of the SCF energy
 Gradient of SCF Energy
            1           2           3           4           5           6
    1   0.0102618  -0.0016294  -0.0085783  -0.0002308   0.0001464   0.0004619
    2   0.0343360  -0.0019706  -0.0336044  -0.0008180   0.0003685  -0.0000251
    3   0.0092466  -0.0008139  -0.0087363   0.0002010  -0.0000436   0.0000873
            7           8           9          10          11
    1  -0.0002551  -0.0001243   0.0003369  -0.0006831   0.0002941
    2  -0.0004711  -0.0004873   0.0002158   0.0025845  -0.0001284
    3  -0.0002987   0.0000061   0.0003599   0.0000044  -0.0000126
 Max gradient component =       3.434E-02
 RMS gradient           =       8.987E-03
 Gradient time:  CPU 7.25 s  wall 0.70 s
 Geometry Optimization Parameters
   NAtoms,    NIC,     NZ,  NCons,   NDum,   NFix, NCnnct, MaxDiis
       11      66       0       1       0       0       0       0

 Cartesian Hessian Update
 Hessian Updated using BFGS Update
**WARNING** Hereditary positive definiteness endangered


** CONSTRAINED OPTIMIZATION IN DELOCALIZED INTERNAL COORDINATES **
   Searching for a Minimum

   Optimization Cycle:   2

                       Coordinates (Angstroms)
     ATOM                X               Y               Z
      1  F         1.3436797680    1.6733534032    0.2995504692
      2  C        -0.7136858671   -0.7819341356    0.2338647480
      3  C         0.5945990433   -0.9312970504   -0.3958324839
      4  C        -1.4134123251    0.5490614453   -0.1149031679
      5  H        -0.6341564002   -0.9257406782    1.3149002190
      6  H        -1.3202497567   -1.6290444965   -0.1523480385
      7  H         1.4264658491   -1.4170316970    0.1037954198
      8  H         0.7293664770   -0.6775120725   -1.4430608687
      9  H        -2.3630302259    0.6212852437    0.4216653912
     10  H        -0.7273903631    1.3594674282    0.1644787689
     11  H        -1.6152861992    0.6145926097   -1.1889084571
   Point Group: c1    Number of degrees of freedom:    27


   Energy is   -218.223949955

              Constraints and their Current Values
                                        Value     Constraint
   Distance(Angs):        1   3             2.798014     2.800000
 Hessian Updated using BFGS Update
**WARNING** Hereditary positive definiteness endangered

   Using Lagrange Multiplier Algorithm


 27 Hessian modes will be used to form the next step
  Hessian Eigenvalues:
    -1.008485    0.037197    0.044152    0.044999    0.045022    0.046418
     0.071355    0.081664    0.081774    0.086821    0.111755    0.120456
     0.136683    0.140046    0.149394    0.160000    0.213437    0.279829
     0.324661    0.335034    0.342666    0.344157    0.344528    0.352837
     0.353747    0.368878    0.991934

 Minimum Search - Taking P-RFO Step
 Searching for Lamda that Maximizes Along the Constraint modes Only
 Value Taken    Lamda =   0.00000234
 Searching for Lamda that Minimizes Along All other modes
 Value Taken    Lamda =  -0.00013535
 Step Taken.  Stepsize is  0.031820

                             Maximum     Tolerance    Cnvgd?
         Gradient            0.005833       0.000300      NO
         Displacement        0.011599       0.001200      NO
         Energy change      0.007205       0.000001      NO


 New Cartesian Coordinates Obtained by Inverse Iteration

 Displacement from previous Coordinates is:  0.036140
 ----------------------------------------------------------------
             Standard Nuclear Orientation (Angstroms)
    I     Atom           X                Y                Z
 ----------------------------------------------------------------
    1      F       1.3447536143     1.6719967580     0.3048190715
    2      C      -0.7133638166    -0.7807430443     0.2360217049
    3      C       0.5912806339    -0.9316000615    -0.3977191559
    4      C      -1.4122341921     0.5467148601    -0.1172148089
    5      H      -0.6332833868    -0.9244163739     1.3171863784
    6      H      -1.3235058467    -1.6268092611    -0.1482715991
    7      H       1.4273577838    -1.4100799790     0.1023746314
    8      H       0.7248196682    -0.6730231518    -1.4441612437
    9      H      -2.3626161426     0.6211937303     0.4180500742
   10      H      -0.7210849508     1.3491613143     0.1631995696
   11      H      -1.6152233646     0.6128052089    -1.1910826225
 ----------------------------------------------------------------
 Nuclear Repulsion Energy =   115.3557788257 hartrees
 There are       17 alpha and       17 beta electrons

                       Distance Matrix (Angstroms)
             F (  1)   C (  2)   C (  3)   C (  4)   H (  5)   H (  6)
   C (  2)  3.202579
   C (  3)  2.800000  1.458246
   C (  4)  3.007549  1.541214  2.505628
   H (  5)  3.417438  1.093605  2.107252  2.197384
   H (  6)  4.266969  1.111658  2.052303  2.175556  1.765596
   H (  7)  3.089823  2.235311  1.085386  3.455510  2.440877  2.770748
   H (  8)  2.990379  2.214270  1.086156  2.795630  3.087504  2.604741
   H (  9)  3.855074  2.172233  3.435426  1.093289  2.487559  2.540470
   H ( 10)  2.095702  2.131163  2.690503  1.095555  2.551186  3.052266
   H ( 11)  3.481533  2.189053  2.807717  1.094881  3.101398  2.487655
             H (  7)   H (  8)   H (  9)   H ( 10)
   H (  8)  1.851644
   H (  9)  4.311569  3.830808
   H ( 10)  3.497559  2.960317  1.813701
   H ( 11)  3.875874  2.682015  1.774253  1.782073
 
 Applying Cartesian multipole field
    Component          Value
    ---------          -----
     (2,0,0)        1.00000E-11
     (0,2,0)        2.00000E-11
     (0,0,2)       -3.00000E-10
 Nucleus-field energy     =    -0.0000000034 hartrees
 Requested basis set is 6-31G(d,p)
 There are 37 shells and 95 basis functions
 A cutoff of  1.0D-14 yielded    689 shell pairs
 There are      4641 function pairs
 Smallest overlap matrix eigenvalue = 5.86E-03
 Guess from superposition of atomic densities
 Warning:  Energy on first SCF cycle will be non-variational
 SAD guess density has 34.000000 electrons

 -----------------------------------------------------------------------
  General SCF calculation program by
  Eric Jon Sundstrom, Paul Horn, Yuezhi Mao, Dmitri Zuev, Alec White,
  David Stuck, Shaama M.S., Shane Yost, Joonho Lee, David Small,
  Daniel Levine, Susi Lehtola, Hugh Burton, Evgeny Epifanovsky
 -----------------------------------------------------------------------
 Exchange:     0.2000 Hartree-Fock + 0.0800 Slater + 0.7200 B88
 Correlation:  0.1900 VWN1RPA + 0.8100 LYP
 Using SG-1 standard quadrature grid
 using 12 threads for integral computing
 -------------------------------------------------------
 OpenMP Integral computing Module                
 Release: version 1.0, May 2013, Q-Chem Inc. Pittsburgh 
 -------------------------------------------------------
 -------------------------------------------------------
 OpenMP BLAS3 based DFT computing Module                
 Release: version 1.0, May 2013, Q-Chem Inc. Pittsburgh 
 -------------------------------------------------------
 A unrestricted SCF calculation will be
 performed using DIIS
 SCF converges when DIIS error is below 1.0e-06
 Alpha HF Exchange    Energy =  -2.77877725580392
 Beta HF Exchange     Energy =  -2.77877725580392
 DFT Correlation      Energy =  -1.42932515887025
 DFT Exchange         Energy = -21.81950734851616
 One-Electron (alpha) Energy = -261.44682567236782
 One-Electron (beta)  Energy = -261.44682567236782
 Total Coulomb        Energy = 217.93916992491290
 ---------------------------------------
  Cycle       Energy         DIIS error
 ---------------------------------------
    1    -218.4050896165      2.95e-02  
 Alpha HF Exchange    Energy =  -2.85718597934634
 Beta HF Exchange     Energy =  -2.85718597934634
 DFT Correlation      Energy =  -1.46259220831507
 DFT Exchange         Energy = -22.65903870961966
 One-Electron (alpha) Energy = -265.53786125043229
 One-Electron (beta)  Energy = -265.53786125043223
 Total Coulomb        Energy = 227.54835475893341
    2    -218.0075917962      6.65e-03  
 Alpha HF Exchange    Energy =  -2.62269419997795
 Beta HF Exchange     Energy =  -2.62269419997796
 DFT Correlation      Energy =  -1.38981027136070
 DFT Exchange         Energy = -20.80570057596264
 One-Electron (alpha) Energy = -251.78662389680159
 One-Electron (beta)  Energy = -251.78662389680164
 Total Coulomb        Energy = 210.21515847869324
    3    -205.4432097399      2.62e-02  
 Alpha HF Exchange    Energy =  -2.81445285085790
 Beta HF Exchange     Energy =  -2.81445285085791
 DFT Correlation      Energy =  -1.44531230620485
 DFT Exchange         Energy = -22.30946332826534
 One-Electron (alpha) Energy = -263.32957630636196
 One-Electron (beta)  Energy = -263.32957630636230
 Total Coulomb        Energy = 222.63639223018174
    4    -218.0506628964      5.42e-03  
 Alpha HF Exchange    Energy =  -2.81686334449671
 Beta HF Exchange     Energy =  -2.81686334449671
 DFT Correlation      Energy =  -1.45213899323930
 DFT Exchange         Energy = -22.36178988693511
 One-Electron (alpha) Energy = -264.13733919140418
 One-Electron (beta)  Energy = -264.13733919140401
 Total Coulomb        Energy = 224.19710168140415
    5    -218.1694534482      2.58e-03  
 Alpha HF Exchange    Energy =  -2.77251290077316
 Beta HF Exchange     Energy =  -2.77251290077316
 DFT Correlation      Energy =  -1.44474675730716
 DFT Exchange         Energy = -22.11228103778349
 One-Electron (alpha) Energy = -262.95575096110480
 One-Electron (beta)  Energy = -262.95575096110468
 Total Coulomb        Energy = 221.54437121918730
    6    -218.1134054773      4.74e-03  
 Alpha HF Exchange    Energy =  -2.76874017856722
 Beta HF Exchange     Energy =  -2.76874017856722
 DFT Correlation      Energy =  -1.44331674152245
 DFT Exchange         Energy = -22.07882239130796
 One-Electron (alpha) Energy = -262.77824539252975
 One-Electron (beta)  Energy = -262.77824539252993
 Total Coulomb        Energy = 221.13526364221735
    7    -218.1250678105      4.57e-03  
 Alpha HF Exchange    Energy =  -2.77079167974701
 Beta HF Exchange     Energy =  -2.77079167974701
 DFT Correlation      Energy =  -1.44382079746775
 DFT Exchange         Energy = -22.09444350236251
 One-Electron (alpha) Energy = -262.85603336661927
 One-Electron (beta)  Energy = -262.85603336661922
 Total Coulomb        Energy = 221.29502492925647
    8    -218.1411106410      4.17e-03  
 Alpha HF Exchange    Energy =  -2.78455954247579
 Beta HF Exchange     Energy =  -2.78455954247578
 DFT Correlation      Energy =  -1.44607134754770
 DFT Exchange         Energy = -22.18101446082439
 One-Electron (alpha) Energy = -263.23177552666232
 One-Electron (beta)  Energy = -263.23177552666220
 Total Coulomb        Energy = 222.08620502545702
    9    -218.2177720989      1.12e-03  
 Alpha HF Exchange    Energy =  -2.78918248074202
 Beta HF Exchange     Energy =  -2.78918248074200
 DFT Correlation      Energy =  -1.44674330642370
 DFT Exchange         Energy = -22.20744794817208
 One-Electron (alpha) Energy = -263.34839511928868
 One-Electron (beta)  Energy = -263.34839511928828
 Total Coulomb        Energy = 222.35010079070113
   10    -218.2234668416      2.85e-04  
 Alpha HF Exchange    Energy =  -2.79083034311506
 Beta HF Exchange     Energy =  -2.79083034311504
 DFT Correlation      Energy =  -1.44694576208196
 DFT Exchange         Energy = -22.21664756258732
 One-Electron (alpha) Energy = -263.38031922758216
 One-Electron (beta)  Energy = -263.38031922758159
 Total Coulomb        Energy = 222.42624945057639
   11    -218.2238641932      9.21e-06  
 Alpha HF Exchange    Energy =  -2.79084991572734
 Beta HF Exchange     Energy =  -2.79084991572729
 DFT Correlation      Energy =  -1.44695014044248
 DFT Exchange         Energy = -22.21676736642112
 One-Electron (alpha) Energy = -263.38130972036248
 One-Electron (beta)  Energy = -263.38130972036140
 Total Coulomb        Energy = 222.42839346563107
   12    -218.2238644911      4.10e-06  
 Alpha HF Exchange    Energy =  -2.79082443096088
 Beta HF Exchange     Energy =  -2.79082443096081
 DFT Correlation      Energy =  -1.44694639070224
 DFT Exchange         Energy = -22.21661889747766
 One-Electron (alpha) Energy = -263.38068004733736
 One-Electron (beta)  Energy = -263.38068004733577
 Total Coulomb        Energy = 222.42693088626493
   13    -218.2238645362      2.71e-06  
 Alpha HF Exchange    Energy =  -2.79083901769623
 Beta HF Exchange     Energy =  -2.79083901769613
 DFT Correlation      Energy =  -1.44694860231506
 DFT Exchange         Energy = -22.21670611273857
 One-Electron (alpha) Energy = -263.38102787892609
 One-Electron (beta)  Energy = -263.38102787892393
 Total Coulomb        Energy = 222.42774511818365
   14    -218.2238645678      3.73e-07  Convergence criterion met
 ---------------------------------------
 SCF time:   CPU 31.53s  wall 3.00s 
<S^2> =          0.000000000
 Alpha HF Exchange    Energy =  -2.79083901769623
 Beta HF Exchange     Energy =  -2.79083901769613
 DFT Correlation      Energy =  -1.44694860231506
 DFT Exchange         Energy = -22.21670611273857
 One-Electron (alpha) Energy = -263.38102787892609
 One-Electron (beta)  Energy = -263.38102787892393
 Total Coulomb        Energy = 222.42774511818365
 Nuclear repulsion Energy = 115.35577882232751
 SCF   energy in the final basis set =     -218.2238645678
 Total energy in the final basis set =     -218.2238645678
 
 --------------------------------------------------------------
 
                    Orbital Energies (a.u.)
 --------------------------------------------------------------
 
 Alpha MOs
 -- Occupied --
-24.538 -10.305 -10.235 -10.187  -0.963  -0.835  -0.710  -0.622
 -0.515  -0.477  -0.452  -0.391  -0.379  -0.368  -0.244  -0.238
 -0.237
 -- Virtual --
 -0.148   0.074   0.100   0.107   0.142   0.157   0.170   0.211
  0.222   0.245   0.461   0.489   0.529   0.531   0.545   0.580
  0.620   0.683   0.753   0.771   0.798   0.853   0.870   0.884
  0.900   0.928   0.965   1.096   1.197   1.269   1.302   1.348
  1.403   1.436   1.487   1.515   1.637   1.677   1.795   1.830
  1.870   1.912   1.968   1.990   1.998   1.998   2.007   2.042
  2.045   2.066   2.085   2.101   2.198   2.246   2.276   2.343
  2.386   2.440   2.458   2.558   2.640   2.674   2.704   2.782
  2.823   2.873   2.906   3.178   3.213   3.245   3.394   3.413
  3.454   3.527   3.678   4.216   4.400   4.590
 
 Beta MOs
 -- Occupied --
-24.538 -10.305 -10.235 -10.187  -0.963  -0.835  -0.710  -0.622
 -0.515  -0.477  -0.452  -0.391  -0.379  -0.368  -0.244  -0.238
 -0.237
 -- Virtual --
 -0.148   0.074   0.100   0.107   0.142   0.157   0.170   0.211
  0.222   0.245   0.461   0.489   0.529   0.531   0.545   0.580
  0.620   0.683   0.753   0.771   0.798   0.853   0.870   0.884
  0.900   0.928   0.965   1.096   1.197   1.269   1.302   1.348
  1.403   1.436   1.487   1.515   1.637   1.677   1.795   1.830
  1.870   1.912   1.968   1.990   1.998   1.998   2.007   2.042
  2.045   2.066   2.085   2.101   2.198   2.246   2.276   2.343
  2.386   2.440   2.458   2.558   2.640   2.674   2.704   2.782
  2.823   2.873   2.906   3.178   3.213   3.245   3.394   3.413
  3.454   3.527   3.678   4.216   4.400   4.590
 --------------------------------------------------------------
 
          Ground-State Mulliken Net Atomic Charges

     Atom                 Charge (a.u.)    Spin (a.u.)
  --------------------------------------------------------
      1 F                    -0.441505       0.000000
      2 C                    -0.229226       0.000000
      3 C                    -0.063820      -0.000000
      4 C                    -0.329828       0.000000
      5 H                     0.151489      -0.000000
      6 H                     0.148207      -0.000000
      7 H                     0.179741       0.000000
      8 H                     0.180398       0.000000
      9 H                     0.107060      -0.000000
     10 H                     0.192470      -0.000000
     11 H                     0.105015      -0.000000
  --------------------------------------------------------
  Sum of atomic charges =     0.000000
  Sum of spin   charges =     0.000000

 -----------------------------------------------------------------
                    Cartesian Multipole Moments
 -----------------------------------------------------------------
    Charge (ESU x 10^10)
                 0.0000
    Dipole Moment (Debye)
         X      -2.4044      Y      -5.4073      Z      -1.1880
       Tot       6.0358
    Quadrupole Moments (Debye-Ang)
        XX     -26.7970     XY      -5.8734     YY     -28.1550
        XZ      -1.4799     YZ      -0.6328     ZZ     -23.4675
    Octopole Moments (Debye-Ang^2)
       XXX       8.7264    XXY     -10.2006    XYY      -1.8979
       YYY     -15.1879    XXZ      -0.3302    XYZ      -1.1313
       YYZ      -0.9774    XZZ       4.5255    YZZ      -2.9581
       ZZZ      -0.4949
    Hexadecapole Moments (Debye-Ang^3)
      XXXX    -225.6243   XXXY     -26.7764   XXYY     -75.0364
      XYYY     -26.2070   YYYY    -205.0817   XXXZ      -4.1205
      XXYZ      -4.2309   XYYZ      -1.2810   YYYZ      -9.4561
      XXZZ     -45.6872   XYZZ      -6.2706   YYZZ     -42.2690
      XZZZ      -2.9873   YZZZ      -8.8484   ZZZZ     -49.3629
 -----------------------------------------------------------------
 Calculating analytic gradient of the SCF energy
 Gradient of SCF Energy
            1           2           3           4           5           6
    1   0.0103984  -0.0006739  -0.0097136   0.0007867   0.0000305   0.0001397
    2   0.0342033  -0.0000625  -0.0338344  -0.0007218   0.0001238   0.0001419
    3   0.0093242  -0.0001641  -0.0091202   0.0000177   0.0001003  -0.0000365
            7           8           9          10          11
    1  -0.0000419   0.0000050   0.0000766  -0.0009086  -0.0000990
    2  -0.0002184  -0.0001405   0.0000169   0.0004532   0.0000386
    3  -0.0000368  -0.0000693   0.0001675  -0.0001351  -0.0000476
 Max gradient component =       3.420E-02
 RMS gradient           =       9.029E-03
 Gradient time:  CPU 7.33 s  wall 0.69 s
 Geometry Optimization Parameters
   NAtoms,    NIC,     NZ,  NCons,   NDum,   NFix, NCnnct, MaxDiis
       11      66       0       1       0       0       0       0

 Cartesian Hessian Update
 Hessian Updated using BFGS Update


** CONSTRAINED OPTIMIZATION IN DELOCALIZED INTERNAL COORDINATES **
   Searching for a Minimum

   Optimization Cycle:   3

                       Coordinates (Angstroms)
     ATOM                X               Y               Z
      1  F         1.3447536143    1.6719967580    0.3048190715
      2  C        -0.7133638166   -0.7807430443    0.2360217049
      3  C         0.5912806339   -0.9316000615   -0.3977191559
      4  C        -1.4122341921    0.5467148601   -0.1172148089
      5  H        -0.6332833868   -0.9244163739    1.3171863784
      6  H        -1.3235058467   -1.6268092611   -0.1482715991
      7  H         1.4273577838   -1.4100799790    0.1023746314
      8  H         0.7248196682   -0.6730231518   -1.4441612437
      9  H        -2.3626161426    0.6211937303    0.4180500742
     10  H        -0.7210849508    1.3491613143    0.1631995696
     11  H        -1.6152233646    0.6128052089   -1.1910826225
   Point Group: c1    Number of degrees of freedom:    27


   Energy is   -218.223864568

              Constraints and their Current Values
                                        Value     Constraint
   Distance(Angs):        1   3             2.800000     2.800000
 Hessian Updated using BFGS Update

 26 Hessian modes will be used to form the next step
  Hessian Eigenvalues:
     0.029061    0.043192    0.044998    0.045394    0.046576    0.071734
     0.081677    0.082206    0.087783    0.112387    0.118622    0.130781
     0.138179    0.141381    0.160000    0.160216    0.213061    0.300230
     0.323841    0.340918    0.343155    0.344476    0.346841    0.353189
     0.354680    0.368833

 Minimum Search - Taking Simple RFO Step
 Searching for Lamda that Minimizes Along All modes
 Value Taken    Lamda =  -0.00002051
 Step Taken.  Stepsize is  0.024321

                             Maximum     Tolerance    Cnvgd?
         Gradient           0.000443      0.000300      NO
         Displacement       0.015088      0.001200      NO
         Energy change      0.000085      0.000001      NO


 New Cartesian Coordinates Obtained by Inverse Iteration

 Displacement from previous Coordinates is:  0.019401
 ----------------------------------------------------------------
             Standard Nuclear Orientation (Angstroms)
    I     Atom           X                Y                Z
 ----------------------------------------------------------------
    1      F       1.3394972352     1.6714170213     0.3055823982
    2      C      -0.7130020024    -0.7811214511     0.2368289082
    3      C       0.5901512771    -0.9329508970    -0.3985101194
    4      C      -1.4114360294     0.5469157133    -0.1176272448
    5      H      -0.6325159646    -0.9253828589     1.3177475707
    6      H      -1.3249530706    -1.6269904216    -0.1463600948
    7      H       1.4283856428    -1.4073121123     0.1018234133
    8      H       0.7231874292    -0.6712826819    -1.4442058969
    9      H      -2.3623482254     0.6236075520     0.4163692294
   10      H      -0.7163379113     1.3452551868     0.1630777603
   11      H      -1.6137283804     0.6130449495    -1.1915239242
 ----------------------------------------------------------------
 Nuclear Repulsion Energy =   115.4105987352 hartrees
 There are       17 alpha and       17 beta electrons

                       Distance Matrix (Angstroms)
             F (  1)   C (  2)   C (  3)   C (  4)   H (  5)   H (  6)
   C (  2)  3.198816
   C (  3)  2.800000  1.457709
   C (  4)  3.001873  1.541795  2.505045
   H (  5)  3.414189  1.093469  2.107252  2.198791
   H (  6)  4.264157  1.112121  2.052534  2.175815  1.765031
   H (  7)  3.086745  2.235147  1.085352  3.454237  2.440910  2.773216
   H (  8)  2.988284  2.213726  1.086116  2.792926  3.087213  2.606273
   H (  9)  3.848875  2.173900  3.435718  1.093283  2.490818  2.541268
   H ( 10)  2.086420  2.127658  2.685613  1.095127  2.548742  3.049657
   H ( 11)  3.476064  2.189794  2.806432  1.094783  3.102577  2.488678
             H (  7)   H (  8)   H (  9)   H ( 10)
   H (  8)  1.851824
   H (  9)  4.311988  3.828709
   H ( 10)  3.490017  2.953306  1.815016
   H ( 11)  3.874151  2.678530  1.773658  1.782242
 
 Applying Cartesian multipole field
    Component          Value
    ---------          -----
     (2,0,0)        1.00000E-11
     (0,2,0)        2.00000E-11
     (0,0,2)       -3.00000E-10
 Nucleus-field energy     =    -0.0000000034 hartrees
 Requested basis set is 6-31G(d,p)
 There are 37 shells and 95 basis functions
 A cutoff of  1.0D-14 yielded    689 shell pairs
 There are      4641 function pairs
 Smallest overlap matrix eigenvalue = 5.86E-03
 Guess from superposition of atomic densities
 Warning:  Energy on first SCF cycle will be non-variational
 SAD guess density has 34.000000 electrons

 -----------------------------------------------------------------------
  General SCF calculation program by
  Eric Jon Sundstrom, Paul Horn, Yuezhi Mao, Dmitri Zuev, Alec White,
  David Stuck, Shaama M.S., Shane Yost, Joonho Lee, David Small,
  Daniel Levine, Susi Lehtola, Hugh Burton, Evgeny Epifanovsky
 -----------------------------------------------------------------------
 Exchange:     0.2000 Hartree-Fock + 0.0800 Slater + 0.7200 B88
 Correlation:  0.1900 VWN1RPA + 0.8100 LYP
 Using SG-1 standard quadrature grid
 using 12 threads for integral computing
 -------------------------------------------------------
 OpenMP Integral computing Module                
 Release: version 1.0, May 2013, Q-Chem Inc. Pittsburgh 
 -------------------------------------------------------
 -------------------------------------------------------
 OpenMP BLAS3 based DFT computing Module                
 Release: version 1.0, May 2013, Q-Chem Inc. Pittsburgh 
 -------------------------------------------------------
 A unrestricted SCF calculation will be
 performed using DIIS
 SCF converges when DIIS error is below 1.0e-06
 Alpha HF Exchange    Energy =  -2.77885099362006
 Beta HF Exchange     Energy =  -2.77885099362006
 DFT Correlation      Energy =  -1.42938845917264
 DFT Exchange         Energy = -21.81966913065564
 One-Electron (alpha) Energy = -261.50137306807585
 One-Electron (beta)  Energy = -261.50137306807585
 Total Coulomb        Energy = 217.99320518987926
 ---------------------------------------
  Cycle       Energy         DIIS error
 ---------------------------------------
    1    -218.4057017915      2.95e-02  
 Alpha HF Exchange    Energy =  -2.85717896314655
 Beta HF Exchange     Energy =  -2.85717896314655
 DFT Correlation      Energy =  -1.46264486684156
 DFT Exchange         Energy = -22.65906470100523
 One-Electron (alpha) Energy = -265.59402846891743
 One-Electron (beta)  Energy = -265.59402846891749
 Total Coulomb        Energy = 227.60565391939053
    2    -218.0078717808      6.65e-03  
 Alpha HF Exchange    Energy =  -2.62247072121383
 Beta HF Exchange     Energy =  -2.62247072121383
 DFT Correlation      Energy =  -1.38986530595385
 DFT Exchange         Energy = -20.80535436864166
 One-Electron (alpha) Energy = -251.83873909186647
 One-Electron (beta)  Energy = -251.83873909186644
 Total Coulomb        Energy = 210.24119541073850
    3    -205.4658451582      2.63e-02  
 Alpha HF Exchange    Energy =  -2.81387674604849
 Beta HF Exchange     Energy =  -2.81387674604849
 DFT Correlation      Energy =  -1.44527742064456
 DFT Exchange         Energy = -22.30552292727317
 One-Electron (alpha) Energy = -263.37042357480573
 One-Electron (beta)  Energy = -263.37042357480556
 Total Coulomb        Energy = 222.65464814236043
    4    -218.0541541155      5.34e-03  
 Alpha HF Exchange    Energy =  -2.81518309788856
 Beta HF Exchange     Energy =  -2.81518309788856
 DFT Correlation      Energy =  -1.45207391670357
 DFT Exchange         Energy = -22.35303138281925
 One-Electron (alpha) Energy = -264.16866751925750
 One-Electron (beta)  Energy = -264.16866751925755
 Total Coulomb        Energy = 224.18591461761807
    5    -218.1762931844      2.40e-03  
 Alpha HF Exchange    Energy =  -2.77237297709035
 Beta HF Exchange     Energy =  -2.77237297709035
 DFT Correlation      Energy =  -1.44472907490324
 DFT Exchange         Energy = -22.11103564316850
 One-Electron (alpha) Energy = -263.00157760542743
 One-Electron (beta)  Energy = -263.00157760542726
 Total Coulomb        Energy = 221.57752980947373
    6    -218.1155373418      4.70e-03  
 Alpha HF Exchange    Energy =  -2.76956244344201
 Beta HF Exchange     Energy =  -2.76956244344201
 DFT Correlation      Energy =  -1.44354656614520
 DFT Exchange         Energy = -22.08495737525442
 One-Electron (alpha) Energy = -262.86084308393248
 One-Electron (beta)  Energy = -262.86084308393254
 Total Coulomb        Energy = 221.24476902975812
    7    -218.1339472346      4.36e-03  
 Alpha HF Exchange    Energy =  -2.77191656846777
 Beta HF Exchange     Energy =  -2.77191656846777
 DFT Correlation      Energy =  -1.44410927138788
 DFT Exchange         Energy = -22.10256103645074
 One-Electron (alpha) Energy = -262.94800410115317
 One-Electron (beta)  Energy = -262.94800410115317
 Total Coulomb        Energy = 221.42466179454672
    8    -218.1512511207      3.90e-03  
 Alpha HF Exchange    Energy =  -2.78541356022355
 Beta HF Exchange     Energy =  -2.78541356022356
 DFT Correlation      Energy =  -1.44625229748578
 DFT Exchange         Energy = -22.18604495456912
 One-Electron (alpha) Energy = -263.30743752449177
 One-Electron (beta)  Energy = -263.30743752449189
 Total Coulomb        Energy = 222.18805686485723
    9    -218.2193438248      9.62e-04  
 Alpha HF Exchange    Energy =  -2.78949249767589
 Beta HF Exchange     Energy =  -2.78949249767591
 DFT Correlation      Energy =  -1.44683784298374
 DFT Exchange         Energy = -22.20923970466239
 One-Electron (alpha) Energy = -263.40936431126192
 One-Electron (beta)  Energy = -263.40936431126210
 Total Coulomb        Energy = 222.41958433238244
   10    -218.2236081013      2.36e-04  
 Alpha HF Exchange    Energy =  -2.79089774439427
 Beta HF Exchange     Energy =  -2.79089774439429
 DFT Correlation      Energy =  -1.44701055859756
 DFT Exchange         Energy = -22.21708776223819
 One-Electron (alpha) Energy = -263.43656392565970
 One-Electron (beta)  Energy = -263.43656392566021
 Total Coulomb        Energy = 222.48454387034479
   11    -218.2238790588      9.55e-06  
 Alpha HF Exchange    Energy =  -2.79088855863451
 Beta HF Exchange     Energy =  -2.79088855863455
 DFT Correlation      Energy =  -1.44701105275939
 DFT Exchange         Energy = -22.21704770858511
 One-Electron (alpha) Energy = -263.43684553871185
 One-Electron (beta)  Energy = -263.43684553871276
 Total Coulomb        Energy = 222.48504882444439
   12    -218.2238793998      4.11e-06  
 Alpha HF Exchange    Energy =  -2.79086015416926
 Beta HF Exchange     Energy =  -2.79086015416932
 DFT Correlation      Energy =  -1.44700703723909
 DFT Exchange         Energy = -22.21688443844871
 One-Electron (alpha) Energy = -263.43616896667277
 One-Electron (beta)  Energy = -263.43616896667407
 Total Coulomb        Energy = 222.48347152226313
   13    -218.2238794633      1.94e-06  
 Alpha HF Exchange    Energy =  -2.79087063563882
 Beta HF Exchange     Energy =  -2.79087063563890
 DFT Correlation      Energy =  -1.44700866422895
 DFT Exchange         Energy = -22.21694765801004
 One-Electron (alpha) Energy = -263.43642392874347
 One-Electron (beta)  Energy = -263.43642392874534
 Total Coulomb        Energy = 222.48406723992142
   14    -218.2238794793      2.64e-07  Convergence criterion met
 ---------------------------------------
 SCF time:   CPU 31.22s  wall 3.00s 
<S^2> =         -0.000000000
 Alpha HF Exchange    Energy =  -2.79087063563882
 Beta HF Exchange     Energy =  -2.79087063563890
 DFT Correlation      Energy =  -1.44700866422895
 DFT Exchange         Energy = -22.21694765801004
 One-Electron (alpha) Energy = -263.43642392874347
 One-Electron (beta)  Energy = -263.43642392874534
 Total Coulomb        Energy = 222.48406723992142
 Nuclear repulsion Energy = 115.41059873180352
 SCF   energy in the final basis set =     -218.2238794793
 Total energy in the final basis set =     -218.2238794793
 
 --------------------------------------------------------------
 
                    Orbital Energies (a.u.)
 --------------------------------------------------------------
 
 Alpha MOs
 -- Occupied --
-24.538 -10.305 -10.235 -10.187  -0.963  -0.835  -0.710  -0.622
 -0.515  -0.477  -0.452  -0.391  -0.379  -0.368  -0.244  -0.238
 -0.237
 -- Virtual --
 -0.148   0.074   0.100   0.107   0.142   0.157   0.170   0.211
  0.223   0.245   0.460   0.489   0.529   0.531   0.545   0.580
  0.620   0.684   0.753   0.771   0.798   0.853   0.870   0.884
  0.900   0.929   0.966   1.096   1.197   1.269   1.302   1.348
  1.402   1.436   1.488   1.516   1.636   1.678   1.795   1.831
  1.870   1.912   1.968   1.990   1.998   1.998   2.006   2.042
  2.046   2.066   2.086   2.102   2.198   2.247   2.277   2.343
  2.386   2.441   2.458   2.558   2.640   2.674   2.703   2.782
  2.823   2.873   2.907   3.178   3.213   3.245   3.394   3.414
  3.454   3.527   3.680   4.217   4.400   4.591
 
 Beta MOs
 -- Occupied --
-24.538 -10.305 -10.235 -10.187  -0.963  -0.835  -0.710  -0.622
 -0.515  -0.477  -0.452  -0.391  -0.379  -0.368  -0.244  -0.238
 -0.237
 -- Virtual --
 -0.148   0.074   0.100   0.107   0.142   0.157   0.170   0.211
  0.223   0.245   0.460   0.489   0.529   0.531   0.545   0.580
  0.620   0.684   0.753   0.771   0.798   0.853   0.870   0.884
  0.900   0.929   0.966   1.096   1.197   1.269   1.302   1.348
  1.402   1.436   1.488   1.516   1.636   1.678   1.795   1.831
  1.870   1.912   1.968   1.990   1.998   1.998   2.006   2.042
  2.046   2.066   2.086   2.102   2.198   2.247   2.277   2.343
  2.386   2.441   2.458   2.558   2.640   2.674   2.703   2.782
  2.823   2.873   2.907   3.178   3.213   3.245   3.394   3.414
  3.454   3.527   3.680   4.217   4.400   4.591
 --------------------------------------------------------------
 
          Ground-State Mulliken Net Atomic Charges

     Atom                 Charge (a.u.)    Spin (a.u.)
  --------------------------------------------------------
      1 F                    -0.441710      -0.000000
      2 C                    -0.229297      -0.000000
      3 C                    -0.064053       0.000000
      4 C                    -0.330222       0.000000
      5 H                     0.151565       0.000000
      6 H                     0.148200       0.000000
      7 H                     0.179996      -0.000000
      8 H                     0.180590      -0.000000
      9 H                     0.107027       0.000000
     10 H                     0.192949       0.000000
     11 H                     0.104953      -0.000000
  --------------------------------------------------------
  Sum of atomic charges =    -0.000000
  Sum of spin   charges =     0.000000

 -----------------------------------------------------------------
                    Cartesian Multipole Moments
 -----------------------------------------------------------------
    Charge (ESU x 10^10)
                -0.0000
    Dipole Moment (Debye)
         X      -2.3932      Y      -5.4090      Z      -1.1897
       Tot       6.0332
    Quadrupole Moments (Debye-Ang)
        XX     -26.7629     XY      -5.8522     YY     -28.1679
        XZ      -1.4777     YZ      -0.6419     ZZ     -23.4675
    Octopole Moments (Debye-Ang^2)
       XXX       8.8441    XXY     -10.1434    XYY      -1.8528
       YYY     -15.1709    XXZ      -0.3272    XYZ      -1.1268
       YYZ      -0.9793    XZZ       4.5499    YZZ      -2.9482
       ZZZ      -0.4976
    Hexadecapole Moments (Debye-Ang^3)
      XXXX    -224.8361   XXXY     -26.6040   XXYY     -74.8695
      XYYY     -26.0236   YYYY    -205.1509   XXXZ      -4.0967
      XXYZ      -4.2348   XYYZ      -1.2839   YYYZ      -9.4802
      XXZZ     -45.6034   XYZZ      -6.2291   YYZZ     -42.2791
      XZZZ      -2.9842   YZZZ      -8.8705   ZZZZ     -49.4071
 -----------------------------------------------------------------
 Calculating analytic gradient of the SCF energy
 Gradient of SCF Energy
            1           2           3           4           5           6
    1   0.0102562   0.0000620  -0.0099148   0.0006131  -0.0000108  -0.0000138
    2   0.0341127   0.0003966  -0.0342230  -0.0002655  -0.0000088   0.0000058
    3   0.0093230   0.0001762  -0.0092771  -0.0000930   0.0000156  -0.0000530
            7           8           9          10          11
    1   0.0000060   0.0000335  -0.0000390  -0.0008069  -0.0001855
    2  -0.0000313   0.0000483   0.0000538  -0.0001634   0.0000746
    3   0.0000176   0.0000126   0.0000194  -0.0001689   0.0000275
 Max gradient component =       3.422E-02
 RMS gradient           =       9.067E-03
 Gradient time:  CPU 7.10 s  wall 0.70 s
 Geometry Optimization Parameters
   NAtoms,    NIC,     NZ,  NCons,   NDum,   NFix, NCnnct, MaxDiis
       11      66       0       1       0       0       0       0

 Cartesian Hessian Update
 Hessian Updated using BFGS Update


** CONSTRAINED OPTIMIZATION IN DELOCALIZED INTERNAL COORDINATES **
   Searching for a Minimum

   Optimization Cycle:   4

                       Coordinates (Angstroms)
     ATOM                X               Y               Z
      1  F         1.3394972352    1.6714170213    0.3055823982
      2  C        -0.7130020024   -0.7811214511    0.2368289082
      3  C         0.5901512771   -0.9329508970   -0.3985101194
      4  C        -1.4114360294    0.5469157133   -0.1176272448
      5  H        -0.6325159646   -0.9253828589    1.3177475707
      6  H        -1.3249530706   -1.6269904216   -0.1463600948
      7  H         1.4283856428   -1.4073121123    0.1018234133
      8  H         0.7231874292   -0.6712826819   -1.4442058969
      9  H        -2.3623482254    0.6236075520    0.4163692294
     10  H        -0.7163379113    1.3452551868    0.1630777603
     11  H        -1.6137283804    0.6130449495   -1.1915239242
   Point Group: c1    Number of degrees of freedom:    27


   Energy is   -218.223879479

              Constraints and their Current Values
                                        Value     Constraint
   Distance(Angs):        1   3             2.800000     2.800000
 Hessian Updated using BFGS Update

 26 Hessian modes will be used to form the next step
  Hessian Eigenvalues:
     0.012322    0.044109    0.045003    0.046320    0.049188    0.074565
     0.080737    0.081995    0.086160    0.112340    0.116798    0.137534
     0.141159    0.151872    0.160013    0.160187    0.213095    0.296152
     0.325733    0.342894    0.344342    0.344765    0.352112    0.353091
     0.354176    0.371624

 Minimum Search - Taking Simple RFO Step
 Searching for Lamda that Minimizes Along All modes
 Value Taken    Lamda =  -0.00001914
 Step Taken.  Stepsize is  0.037494

                             Maximum     Tolerance    Cnvgd?
         Gradient           0.000396      0.000300      NO
         Displacement       0.024840      0.001200      NO
         Energy change     -0.000015      0.000001      NO


 New Cartesian Coordinates Obtained by Inverse Iteration

 Displacement from previous Coordinates is:  0.029422
 ----------------------------------------------------------------
             Standard Nuclear Orientation (Angstroms)
    I     Atom           X                Y                Z
 ----------------------------------------------------------------
    1      F       1.3284953438     1.6728824042     0.3040757316
    2      C      -0.7130035290    -0.7822690136     0.2372304580
    3      C       0.5890861808    -0.9345909074    -0.3990280411
    4      C      -1.4093694987     0.5476990071    -0.1171934137
    5      H      -0.6324866233    -0.9274585604     1.3179386397
    6      H      -1.3270753556    -1.6272801546    -0.1452801445
    7      H       1.4290061006    -1.4054925875     0.1016827055
    8      H       0.7218209936    -0.6704156190    -1.4441185551
    9      H      -2.3606877947     0.6262569189     0.4155751893
   10      H      -0.7091537914     1.3419790687     0.1637223609
   11      H      -1.6097320263     0.6138894438    -1.1914029306
 ----------------------------------------------------------------
 Nuclear Repulsion Energy =   115.5009062145 hartrees
 There are       17 alpha and       17 beta electrons

                       Distance Matrix (Angstroms)
             F (  1)   C (  2)   C (  3)   C (  4)   H (  5)   H (  6)
   C (  2)  3.193737
   C (  3)  2.800000  1.457211
   C (  4)  2.989884  1.542516  2.504085
   H (  5)  3.411032  1.093386  2.107194  2.199827
   H (  6)  4.259701  1.112404  2.053261  2.176717  1.764430
   H (  7)  3.086658  2.234947  1.085323  3.452425  2.440809  2.775998
   H (  8)  2.985847  2.213180  1.086104  2.790431  3.086937  2.607786
   H (  9)  3.836395  2.174998  3.435257  1.093170  2.492984  2.541917
   H ( 10)  2.069109  2.125523  2.680464  1.095489  2.547242  3.048575
   H ( 11)  3.462817  2.189606  2.803650  1.094739  3.102831  2.489399
             H (  7)   H (  8)   H (  9)   H ( 10)
   H (  8)  1.852013
   H (  9)  4.311417  3.826445
   H ( 10)  3.481979  2.946621  1.817485
   H ( 11)  3.870905  2.673844  1.773828  1.782560
 
 Applying Cartesian multipole field
    Component          Value
    ---------          -----
     (2,0,0)        1.00000E-11
     (0,2,0)        2.00000E-11
     (0,0,2)       -3.00000E-10
 Nucleus-field energy     =    -0.0000000034 hartrees
 Requested basis set is 6-31G(d,p)
 There are 37 shells and 95 basis functions
 A cutoff of  1.0D-14 yielded    689 shell pairs
 There are      4641 function pairs
 Smallest overlap matrix eigenvalue = 5.86E-03
 Guess from superposition of atomic densities
 Warning:  Energy on first SCF cycle will be non-variational
 SAD guess density has 34.000000 electrons

 -----------------------------------------------------------------------
  General SCF calculation program by
  Eric Jon Sundstrom, Paul Horn, Yuezhi Mao, Dmitri Zuev, Alec White,
  David Stuck, Shaama M.S., Shane Yost, Joonho Lee, David Small,
  Daniel Levine, Susi Lehtola, Hugh Burton, Evgeny Epifanovsky
 -----------------------------------------------------------------------
 Exchange:     0.2000 Hartree-Fock + 0.0800 Slater + 0.7200 B88
 Correlation:  0.1900 VWN1RPA + 0.8100 LYP
 Using SG-1 standard quadrature grid
 using 12 threads for integral computing
 -------------------------------------------------------
 OpenMP Integral computing Module                
 Release: version 1.0, May 2013, Q-Chem Inc. Pittsburgh 
 -------------------------------------------------------
 -------------------------------------------------------
 OpenMP BLAS3 based DFT computing Module                
 Release: version 1.0, May 2013, Q-Chem Inc. Pittsburgh 
 -------------------------------------------------------
 A unrestricted SCF calculation will be
 performed using DIIS
 SCF converges when DIIS error is below 1.0e-06
 Alpha HF Exchange    Energy =  -2.77890907153434
 Beta HF Exchange     Energy =  -2.77890907153434
 DFT Correlation      Energy =  -1.42948724135656
 DFT Exchange         Energy = -21.81980654390775
 One-Electron (alpha) Energy = -261.59177595325741
 One-Electron (beta)  Energy = -261.59177595325741
 Total Coulomb        Energy = 218.08349574281416
 ---------------------------------------
  Cycle       Energy         DIIS error
[...]
 ----------------------------------------------------------------
             Standard Nuclear Orientation (Angstroms)
    I     Atom           X                Y                Z
 ----------------------------------------------------------------
    1      F       1.3136388078     1.6871513772     0.2707564023
    2      C      -0.7174078675    -0.7900788110     0.2344028116
    3      C       0.5904827769    -0.9353098034    -0.3923730067
    4      C      -1.4042755538     0.5499913261    -0.1093442781
    5      H      -0.6477891838    -0.9469578218     1.3140651814
    6      H      -1.3315193076    -1.6242091193    -0.1686603930
    7      H       1.4339438375    -1.3892051944     0.1180086027
    8      H       0.7238662456    -0.6875865002    -1.4414190254
    9      H      -2.3551163528     0.6289648183     0.4242308966
   10      H      -0.6963266781     1.3369058657     0.1768243672
   11      H      -1.6025967242     0.6255338626    -1.1832895586
 ----------------------------------------------------------------
 Nuclear Repulsion Energy =   115.5521574851 hartrees
 There are       17 alpha and       17 beta electrons

                       Distance Matrix (Angstroms)
             F (  1)   C (  2)   C (  3)   C (  4)   H (  5)   H (  6)
   C (  2)  3.203614
   C (  3)  2.800000  1.457573
   C (  4)  2.970634  1.544583  2.503055
   H (  5)  3.445900  1.093219  2.108408  2.199823
   H (  6)  4.260875  1.111470  2.053953  2.176226  1.767663
   H (  7)  3.082495  2.236250  1.085328  3.444947  2.441259  2.790196
   H (  8)  2.986429  2.212726  1.086119  2.799109  3.088917  2.592641
   H (  9)  3.821397  2.175272  3.433708  1.093178  2.488032  2.544811
   H ( 10)  2.042414  2.127868  2.672607  1.096503  2.551804  3.048119
   H ( 11)  3.427202  2.190290  2.805598  1.094713  3.101801  2.482801
             H (  7)   H (  8)   H (  9)   H ( 10)
   H (  8)  1.851565
   H (  9)  4.303924  3.833287
   H ( 10)  3.460230  2.955373  1.820432
   H ( 11)  3.869513  2.683905  1.774942  1.782494
 
 Applying Cartesian multipole field
    Component          Value
    ---------          -----
     (2,0,0)        1.00000E-11
     (0,2,0)        2.00000E-11
     (0,0,2)       -3.00000E-10
 Nucleus-field energy     =    -0.0000000031 hartrees
 Requested basis set is 6-31G(d,p)
 There are 37 shells and 95 basis functions
 A cutoff of  1.0D-14 yielded    689 shell pairs
 There are      4641 function pairs
 Smallest overlap matrix eigenvalue = 5.86E-03
 Guess from superposition of atomic densities
 Warning:  Energy on first SCF cycle will be non-variational
 SAD guess density has 34.000000 electrons

 -----------------------------------------------------------------------
  General SCF calculation program by
  Eric Jon Sundstrom, Paul Horn, Yuezhi Mao, Dmitri Zuev, Alec White,
  David Stuck, Shaama M.S., Shane Yost, Joonho Lee, David Small,
  Daniel Levine, Susi Lehtola, Hugh Burton, Evgeny Epifanovsky
 -----------------------------------------------------------------------
 Exchange:     0.2000 Hartree-Fock + 0.0800 Slater + 0.7200 B88
 Correlation:  0.1900 VWN1RPA + 0.8100 LYP
 Using SG-1 standard quadrature grid
 using 12 threads for integral computing
 -------------------------------------------------------
 OpenMP Integral computing Module                
 Release: version 1.0, May 2013, Q-Chem Inc. Pittsburgh 
 -------------------------------------------------------
 -------------------------------------------------------
 OpenMP BLAS3 based DFT computing Module                
 Release: version 1.0, May 2013, Q-Chem Inc. Pittsburgh 
 -------------------------------------------------------
 A unrestricted SCF calculation will be
 performed using DIIS
 SCF converges when DIIS error is below 1.0e-06
 Alpha HF Exchange    Energy =  -2.77878953972990
 Beta HF Exchange     Energy =  -2.77878953972990
 DFT Correlation      Energy =  -1.42957457620644
 DFT Exchange         Energy = -21.81964259895531
 One-Electron (alpha) Energy = -261.64384896416522
 One-Electron (beta)  Energy = -261.64384896416522
 Total Coulomb        Energy = 218.13719110517053
 ---------------------------------------
  Cycle       Energy         DIIS error
 ---------------------------------------
    1    -218.4051455958      2.95e-02  
 Alpha HF Exchange    Energy =  -2.85698893868328
 Beta HF Exchange     Energy =  -2.85698893868328
 DFT Correlation      Energy =  -1.46272875799135
 DFT Exchange         Energy = -22.65780960624886
 One-Electron (alpha) Energy = -265.73243980078149
 One-Electron (beta)  Energy = -265.73243980078149
 Total Coulomb        Energy = 227.73801464608027
    2    -218.0092237151      6.63e-03  
 Alpha HF Exchange    Energy =  -2.62136863161104
 Beta HF Exchange     Energy =  -2.62136863161104
 DFT Correlation      Energy =  -1.38997130486933
 DFT Exchange         Energy = -20.80192179117079
 One-Electron (alpha) Energy = -251.97093710031166
 One-Electron (beta)  Energy = -251.97093710031163
 Total Coulomb        Energy = 210.29760563543493
    3    -205.5267414425      2.67e-02  
 Alpha HF Exchange    Energy =  -2.81239885687105
 Beta HF Exchange     Energy =  -2.81239885687106
 DFT Correlation      Energy =  -1.44523583125039
 DFT Exchange         Energy = -22.29578952293059
 One-Electron (alpha) Energy = -263.48256723936260
 One-Electron (beta)  Energy = -263.48256723936277
 Total Coulomb        Energy = 222.71661445165191
    4    -218.0621856130      5.17e-03  
 Alpha HF Exchange    Energy =  -2.81061979905314
 Beta HF Exchange     Energy =  -2.81061979905314
 DFT Correlation      Energy =  -1.45183775638963
 DFT Exchange         Energy = -22.32915687786732
 One-Electron (alpha) Energy = -264.24070021516269
 One-Electron (beta)  Energy = -264.24070021516275
 Total Coulomb        Energy = 224.14015862989146
    5    -218.1913185509      1.97e-03  
 Alpha HF Exchange    Energy =  -2.77264081991379
 Beta HF Exchange     Energy =  -2.77264081991378
 DFT Correlation      Energy =  -1.44486434461563
 DFT Exchange         Energy = -22.11245728253551
 One-Electron (alpha) Energy = -263.14716806862378
 One-Electron (beta)  Energy = -263.14716806862373
 Total Coulomb        Energy = 221.71712169660918
    6    -218.1276602257      4.43e-03  
 Alpha HF Exchange    Energy =  -2.77166623125851
 Beta HF Exchange     Energy =  -2.77166623125850
 DFT Correlation      Energy =  -1.44415332430145
 DFT Exchange         Energy = -22.10007400267973
 One-Electron (alpha) Energy = -263.07469438936306
 One-Electron (beta)  Energy = -263.07469438936278
 Total Coulomb        Energy = 221.53044506259332
    7    -218.1543460237      3.83e-03  
 Alpha HF Exchange    Energy =  -2.77447774578710
 Beta HF Exchange     Energy =  -2.77447774578711
 DFT Correlation      Energy =  -1.44478423486262
 DFT Exchange         Energy = -22.12024375328261
 One-Electron (alpha) Energy = -263.17325981955821
 One-Electron (beta)  Energy = -263.17325981955844
 Total Coulomb        Energy = 221.73661033819940
    8    -218.1717352987      3.30e-03  
 Alpha HF Exchange    Energy =  -2.78708217577243
 Beta HF Exchange     Energy =  -2.78708217577244
 DFT Correlation      Energy =  -1.44665459994590
 DFT Exchange         Energy = -22.19558479608621
 One-Electron (alpha) Energy = -263.49091709306936
 One-Electron (beta)  Energy = -263.49091709306953
 Total Coulomb        Energy = 222.42429927583578
    9    -218.2217811759      6.57e-04  
 Alpha HF Exchange    Energy =  -2.79002016633611
 Beta HF Exchange     Energy =  -2.79002016633611
 DFT Correlation      Energy =  -1.44706850511436
 DFT Exchange         Energy = -22.21214930525635
 One-Electron (alpha) Energy = -263.56371498443616
 One-Electron (beta)  Energy = -263.56371498443605
 Total Coulomb        Energy = 222.59072354306386
   10    -218.2238070869      1.47e-04  
 Alpha HF Exchange    Energy =  -2.79093546832452
 Beta HF Exchange     Energy =  -2.79093546832453
 DFT Correlation      Energy =  -1.44717972165256
 DFT Exchange         Energy = -22.21726135238770
 One-Electron (alpha) Energy = -263.58107803875657
 One-Electron (beta)  Energy = -263.58107803875680
 Total Coulomb        Energy = 222.63239917160720
   11    -218.2239114346      1.12e-05  
 Alpha HF Exchange    Energy =  -2.79092286300368
 Beta HF Exchange     Energy =  -2.79092286300370
 DFT Correlation      Energy =  -1.44717955701165
 DFT Exchange         Energy = -22.21720571217845
 One-Electron (alpha) Energy = -263.58113069503781
 One-Electron (beta)  Energy = -263.58113069503821
 Total Coulomb        Energy = 222.63242303761461
   12    -218.2239118657      6.18e-06  
 Alpha HF Exchange    Energy =  -2.79088318820388
 Beta HF Exchange     Energy =  -2.79088318820390
 DFT Correlation      Energy =  -1.44717426725219
 DFT Exchange         Energy = -22.21698076543358
 One-Electron (alpha) Energy = -263.58025040649022
 One-Electron (beta)  Energy = -263.58025040649056
 Total Coulomb        Energy = 222.63035269079248
   13    -218.2239120493      7.35e-07  Convergence criterion met
 ---------------------------------------
 SCF time:   CPU 29.14s  wall 2.00s 
<S^2> =         -0.000000000
 Alpha HF Exchange    Energy =  -2.79088318820388
 Beta HF Exchange     Energy =  -2.79088318820390
 DFT Correlation      Energy =  -1.44717426725219
 DFT Exchange         Energy = -22.21698076543358
 One-Electron (alpha) Energy = -263.58025040649022
 One-Electron (beta)  Energy = -263.58025040649056
 Total Coulomb        Energy = 222.63035269079248
 Nuclear repulsion Energy = 115.55215748194706
 SCF   energy in the final basis set =     -218.2239120493
 Total energy in the final basis set =     -218.2239120493
 
 --------------------------------------------------------------
 
                    Orbital Energies (a.u.)
 --------------------------------------------------------------
 
 Alpha MOs
 -- Occupied --
-24.538 -10.305 -10.235 -10.186  -0.964  -0.835  -0.709  -0.622
 -0.516  -0.477  -0.451  -0.391  -0.378  -0.367  -0.245  -0.238
 -0.237
 -- Virtual --
 -0.148   0.074   0.100   0.108   0.143   0.158   0.172   0.212
  0.225   0.245   0.461   0.490   0.529   0.531   0.545   0.581
  0.618   0.684   0.753   0.771   0.797   0.854   0.871   0.884
  0.901   0.931   0.968   1.097   1.201   1.269   1.302   1.347
  1.403   1.440   1.493   1.516   1.636   1.677   1.796   1.829
  1.870   1.913   1.968   1.987   1.995   1.997   2.002   2.044
  2.048   2.072   2.091   2.103   2.197   2.248   2.279   2.348
  2.386   2.441   2.457   2.557   2.641   2.674   2.701   2.782
  2.824   2.874   2.908   3.178   3.213   3.245   3.393   3.414
  3.453   3.528   3.691   4.216   4.403   4.591
 
 Beta MOs
 -- Occupied --
-24.538 -10.305 -10.235 -10.186  -0.964  -0.835  -0.709  -0.622
 -0.516  -0.477  -0.451  -0.391  -0.378  -0.367  -0.245  -0.238
 -0.237
 -- Virtual --
 -0.148   0.074   0.100   0.108   0.143   0.158   0.172   0.212
  0.225   0.245   0.461   0.490   0.529   0.531   0.545   0.581
  0.618   0.684   0.753   0.771   0.797   0.854   0.871   0.884
  0.901   0.931   0.968   1.097   1.201   1.269   1.302   1.347
  1.403   1.440   1.493   1.516   1.636   1.677   1.796   1.829
  1.870   1.913   1.968   1.987   1.995   1.997   2.002   2.044
  2.048   2.072   2.091   2.103   2.197   2.248   2.279   2.348
  2.386   2.441   2.457   2.557   2.641   2.674   2.701   2.782
  2.824   2.874   2.908   3.178   3.213   3.245   3.393   3.414
  3.453   3.528   3.691   4.216   4.403   4.591
 --------------------------------------------------------------
 
          Ground-State Mulliken Net Atomic Charges

     Atom                 Charge (a.u.)    Spin (a.u.)
  --------------------------------------------------------
      1 F                    -0.441300      -0.000000
      2 C                    -0.231208      -0.000000
      3 C                    -0.063991       0.000000
      4 C                    -0.330162       0.000000
      5 H                     0.149752      -0.000000
      6 H                     0.148865       0.000000
      7 H                     0.180547      -0.000000
      8 H                     0.180750      -0.000000
      9 H                     0.106434       0.000000
     10 H                     0.195218       0.000000
     11 H                     0.105094      -0.000000
  --------------------------------------------------------
  Sum of atomic charges =    -0.000000
  Sum of spin   charges =     0.000000

 -----------------------------------------------------------------
                    Cartesian Multipole Moments
 -----------------------------------------------------------------
    Charge (ESU x 10^10)
                -0.0000
    Dipole Moment (Debye)
         X      -2.3255      Y      -5.4415      Z      -1.1195
       Tot       6.0226
    Quadrupole Moments (Debye-Ang)
        XX     -26.6101     XY      -5.7950     YY     -28.3032
        XZ      -1.3363     YZ      -0.5198     ZZ     -23.4409
    Octopole Moments (Debye-Ang^2)
       XXX       9.4956    XXY     -10.0281    XYY      -1.7925
       YYY     -15.4827    XXZ      -0.0519    XYZ      -0.9908
       YYZ      -0.7729    XZZ       4.7029    YZZ      -2.9769
       ZZZ      -0.2045
    Hexadecapole Moments (Debye-Ang^3)
      XXXX    -221.6217   XXXY     -26.0902   XXYY     -74.6673
      XYYY     -25.9233   YYYY    -208.1955   XXXZ      -2.8257
      XXYZ      -3.7582   XYYZ      -0.7026   YYYZ      -8.4888
      XXZZ     -44.9097   XYZZ      -6.1352   YYZZ     -42.3578
      XZZZ      -1.9914   YZZZ      -8.0490   ZZZZ     -48.5630
 -----------------------------------------------------------------
 Calculating analytic gradient of the SCF energy
 Gradient of SCF Energy
            1           2           3           4           5           6
    1   0.0093823  -0.0001694  -0.0093131   0.0000567   0.0000078   0.0000587
    2   0.0340043  -0.0000117  -0.0339188  -0.0000261   0.0000484  -0.0000085
    3   0.0085834   0.0000478  -0.0085617  -0.0000546   0.0000085  -0.0000418
            7           8           9          10          11
    1  -0.0000118   0.0000069   0.0000106   0.0000061  -0.0000347
    2  -0.0000493  -0.0000192   0.0000426  -0.0000520  -0.0000097
    3  -0.0000036   0.0000022   0.0000181   0.0000021  -0.0000004
 Max gradient component =       3.400E-02
 RMS gradient           =       8.925E-03
 Gradient time:  CPU 7.22 s  wall 0.68 s
 Geometry Optimization Parameters
   NAtoms,    NIC,     NZ,  NCons,   NDum,   NFix, NCnnct, MaxDiis
       11      66       0       1       0       0       0       0

 Cartesian Hessian Update
 Hessian Updated using BFGS Update


** CONSTRAINED OPTIMIZATION IN DELOCALIZED INTERNAL COORDINATES **
   Searching for a Minimum

   Optimization Cycle:  12

                       Coordinates (Angstroms)
     ATOM                X               Y               Z
      1  F         1.3136388078    1.6871513772    0.2707564023
      2  C        -0.7174078675   -0.7900788110    0.2344028116
      3  C         0.5904827769   -0.9353098034   -0.3923730067
      4  C        -1.4042755538    0.5499913261   -0.1093442781
      5  H        -0.6477891838   -0.9469578218    1.3140651814
      6  H        -1.3315193076   -1.6242091193   -0.1686603930
      7  H         1.4339438375   -1.3892051944    0.1180086027
      8  H         0.7238662456   -0.6875865002   -1.4414190254
      9  H        -2.3551163528    0.6289648183    0.4242308966
     10  H        -0.6963266781    1.3369058657    0.1768243672
     11  H        -1.6025967242    0.6255338626   -1.1832895586
   Point Group: c1    Number of degrees of freedom:    27


   Energy is   -218.223912049

              Constraints and their Current Values
                                        Value     Constraint
   Distance(Angs):        1   3             2.800000     2.800000
 Hessian Updated using BFGS Update

 26 Hessian modes will be used to form the next step
  Hessian Eigenvalues:
     0.001940    0.009041    0.029530    0.045254    0.048575    0.067001
     0.078662    0.081155    0.084772    0.110918    0.118067    0.135467
     0.141221    0.156670    0.159939    0.160067    0.213023    0.292394
     0.325504    0.342947    0.343776    0.345028    0.346163    0.353079
     0.354025    0.365121

 Minimum Search - Taking Simple RFO Step
 Searching for Lamda that Minimizes Along All modes
 Value Taken    Lamda =   0.00000000
 Step Taken.  Stepsize is  0.004332

                             Maximum     Tolerance    Cnvgd?
         Gradient           0.000069      0.000300     YES
         Displacement       0.002854      0.001200      NO
         Energy change     -0.000001      0.000001     YES


                       Distance Matrix (Angstroms)
             F (  1)   C (  2)   C (  3)   C (  4)   H (  5)   H (  6)
   C (  2)  3.203614
   C (  3)  2.800000  1.457573
   C (  4)  2.970634  1.544583  2.503055
   H (  5)  3.445900  1.093219  2.108408  2.199823
   H (  6)  4.260875  1.111470  2.053953  2.176226  1.767663
   H (  7)  3.082495  2.236250  1.085328  3.444947  2.441259  2.790196
   H (  8)  2.986429  2.212726  1.086119  2.799109  3.088917  2.592641
   H (  9)  3.821397  2.175272  3.433708  1.093178  2.488032  2.544811
   H ( 10)  2.042414  2.127868  2.672607  1.096503  2.551804  3.048119
   H ( 11)  3.427202  2.190290  2.805598  1.094713  3.101801  2.482801
             H (  7)   H (  8)   H (  9)   H ( 10)
   H (  8)  1.851565
   H (  9)  4.303924  3.833287
   H ( 10)  3.460230  2.955373  1.820432
   H ( 11)  3.869513  2.683905  1.774942  1.782494
 
 Final energy is   -218.223912049335     


 ******************************
 **  OPTIMIZATION CONVERGED  **
 ******************************

                       Coordinates (Angstroms)
     ATOM                X               Y               Z
      1  F         1.3136388078    1.6871513772    0.2707564023
      2  C        -0.7174078675   -0.7900788110    0.2344028116
      3  C         0.5904827769   -0.9353098034   -0.3923730067
      4  C        -1.4042755538    0.5499913261   -0.1093442781
      5  H        -0.6477891838   -0.9469578218    1.3140651814
      6  H        -1.3315193076   -1.6242091193   -0.1686603930
      7  H         1.4339438375   -1.3892051944    0.1180086027
      8  H         0.7238662456   -0.6875865002   -1.4414190254
      9  H        -2.3551163528    0.6289648183    0.4242308966
     10  H        -0.6963266781    1.3369058657    0.1768243672
     11  H        -1.6025967242    0.6255338626   -1.1832895586

Z-matrix Print:
$molecule
0 1
C 
H  1 1.093219
H  1 1.111470 2 106.596743
C  1 1.457573 2 110.685611 3 -114.090967 0
H  4 1.085328 1 122.465717 2 14.682492 0
H  4 1.086119 1 120.185792 2 -172.197249 0
C  1 1.544583 2 111.876712 3 118.998092 0
H  7 1.093178 1 109.928321 2 -51.483762 0
H  7 1.094713 1 111.024058 2 -171.467903 0
H  7 1.096503 1 106.107488 2 70.387721 0
F  10 2.042414 7 140.394858 1 33.140245 0
$end

PES scan, value:    2.8000 energy: -218.2239120493
------- Summary of potential scan: ------ 
    2.8000      -218.2239120493
----------------------------------------- 
Archival summary:
1\1\hpc0244\JobtypUnspecified\ProcedureUnspecified\6-31G**\137\knomura\WedMar1315:10:442019WedMar1315:10:442019\0\\#,JobtypUnspecified,ProcedureUnspecified,6-31G**,\\0,1\C\H,1,1.09322\H,1,1.11147,2,106.597\C,1,1.45757,2,110.686,3,-114.091,0\H,4,1.08533,1,122.466,2,14.6825,0\H,4,1.08612,1,120.186,2,-172.197,0\C,1,1.54458,2,111.877,3,118.998,0\H,7,1.09318,1,109.928,2,-51.4838,0\H,7,1.09471,1,111.024,2,-171.468,0\H,7,1.0965,1,106.107,2,70.3877,0\F,10,2.04241,7,140.395,1,33.1402,0\\\@

 Total job time:  50.19s(wall), 523.69s(cpu) 
 Wed Mar 13 15:10:44 2019

        *************************************************************
        *                                                           *
        *  Thank you very much for using Q-Chem.  Have a nice day.  *
        *                                                           *
        *************************************************************


