
Running Job 1 of 1 halogens/Flourine/02/F_3.xyz.data/inputs/bond_triplet_1.7.in
qchem halogens/Flourine/02/F_3.xyz.data/inputs/bond_triplet_1.7.in_31770.0 /staging/scratch/2868761/qchem31770/ 1
/usr/usc/qchem/5.1.1/exe/qcprog.exe_s halogens/Flourine/02/F_3.xyz.data/inputs/bond_triplet_1.7.in_31770.0 /staging/scratch/2868761/qchem31770/
Check license passed

                  Welcome to Q-Chem
     A Quantum Leap Into The Future Of Chemistry


 Q-Chem 5.1, Q-Chem, Inc., Pleasanton, CA (2018)

 Yihan Shao,  Zhengting Gan,  E. Epifanovsky,  A. T. B. Gilbert,  M. Wormit,  
 J. Kussmann,  A. W. Lange,  A. Behn,  Jia Deng,  Xintian Feng,  D. Ghosh,  
 M. Goldey,  P. R. Horn,  L. D. Jacobson,  I. Kaliman,  T. Kus,  A. Landau,  
 Jie Liu,  E. I. Proynov,  R. M. Richard,  R. P. Steele,  E. J. Sundstrom,  
 H. L. Woodcock III,  P. M. Zimmerman,  D. Zuev,  B. Albrecht,  E. Alguire,  
 S. A. Baeppler,  D. Barton,  Z. Benda,  Y. A. Bernard,  E. J. Berquist,  
 K. B. Bravaya,  H. Burton,  D. Casanova,  Chun-Min Chang,  Yunqing Chen,  
 A. Chien,  K. D. Closser,  M. P. Coons,  S. Coriani,  S. Dasgupta,  
 A. L. Dempwolff,  M. Diedenhofen,  Hainam Do,  R. G. Edgar,  Po-Tung Fang,  
 S. Faraji,  S. Fatehi,  Qingguo Feng,  K. D. Fenk,  J. Fosso-Tande,  
 Qinghui Ge,  A. Ghysels,  G. Gidofalvi,  J. Gomes,  J. Gonthier,  A. Gunina,  
 D. Hait,  M. W. D. Hanson-Heine,  P. H. P. Harbach,  A. W. Hauser,  
 J. E. Herr,  E. G. Hohenstein,  Z. C. Holden,  Kerwin Hui,  B. C. Huynh,  
 T.-C. Jagau,  Hyunjun Ji,  B. Kaduk,  K. Khistyaev,  Jaehoon Kim,  
 P. Klunzinger,  K. Koh,  D. Kosenkov,  L. Koulias,  T. Kowalczyk,  
 C. M. Krauter,  A. Kunitsa,  Ka Un Lao,  A. Laurent,  K. V. Lawler,  
 Joonho Lee,  D. Lefrancois,  S. Lehtola,  D. S. Levine,  Yi-Pei Li,  
 You-Sheng Lin,  Fenglai Liu,  E. Livshits,  A. Luenser,  P. Manohar,  
 E. Mansoor,  S. F. Manzer,  Shan-Ping Mao,  Yuezhi Mao,  N. Mardirossian,  
 A. V. Marenich,  T. Markovich,  L. A. Martinez-Martinez,  S. A. Maurer,  
 N. J. Mayhall,  S. C. McKenzie,  J.-M. Mewes,  A. F. Morrison,  
 J. W. Mullinax,  K. Nanda,  T. S. Nguyen-Beck,  R. Olivares-Amaya,  
 J. A. Parkhill,  T. M. Perrine,  F. Plasser,  P. Pokhilko,  S. Prager,  
 A. Prociuk,  E. Ramos,  D. R. Rehn,  F. Rob,  M. Schneider,  N. Sergueev,  
 S. M. Sharada,  S. Sharma,  D. W. Small,  T. Stauch,  T. Stein,  
 Yu-Chuan Su,  A. J. W. Thom,  A. Tkatchenko,  T. Tsuchimochi,  N. M. Tubman,  
 L. Vogt,  M. L. Vidal,  O. Vydrov,  M. A. Watson,  J. Wenzel,  
 M. de Wergifosse,  T. A. Wesolowski,  A. White,  J. Witte,  A. Yamada,  
 Jun Yang,  K. Yao,  S. Yeganeh,  S. R. Yost,  Zhi-Qiang You,  A. Zech,  
 Igor Ying Zhang,  Xing Zhang,  Yan Zhao,  Ying Zhu,  B. R. Brooks,  
 G. K. L. Chan,  C. J. Cramer,  M. S. Gordon,  W. J. Hehre,  A. Klamt,  
 M. W. Schmidt,  C. D. Sherrill,  D. G. Truhlar,  A. Aspuru-Guzik,  R. Baer,  
 A. T. Bell,  N. A. Besley,  Jeng-Da Chai,  A. E. DePrince, III,  
 R. A. DiStasio Jr.,  A. Dreuw,  B. D. Dunietz,  T. R. Furlani,  
 Chao-Ping Hsu,  Yousung Jung,  Jing Kong,  D. S. Lambrecht,  WanZhen Liang,  
 C. Ochsenfeld,  V. A. Rassolov,  L. V. Slipchenko,  J. E. Subotnik,  
 T. Van Voorhis,  J. M. Herbert,  A. I. Krylov,  P. M. W. Gill,  M. Head-Gordon

 Contributors to earlier versions of Q-Chem not listed above: 
 R. D. Adamson,  B. Austin,  J. Baker,  G. J. O. Beran,  K. Brandhorst,  
 S. T. Brown,  E. F. C. Byrd,  A. K. Chakraborty,  C.-L. Cheng,  
 Siu Hung Chien,  D. M. Chipman,  D. L. Crittenden,  H. Dachsel,  
 R. J. Doerksen,  A. D. Dutoi,  L. Fusti-Molnar,  W. A. Goddard III,  
 A. Golubeva-Zadorozhnaya,  S. R. Gwaltney,  G. Hawkins,  A. Heyden,  
 S. Hirata,  G. Kedziora,  F. J. Keil,  C. Kelley,  Jihan Kim,  R. A. King,  
 R. Z. Khaliullin,  P. P. Korambath,  W. Kurlancheek,  A. M. Lee,  M. S. Lee,  
 S. V. Levchenko,  Ching Yeh Lin,  D. Liotard,  R. C. Lochan,  I. Lotan,  
 P. E. Maslen,  N. Nair,  D. P. O'Neill,  D. Neuhauser,  E. Neuscamman,  
 C. M. Oana,  R. Olson,  B. Peters,  R. Peverati,  P. A. Pieniazek,  
 Y. M. Rhee,  J. Ritchie,  M. A. Rohrdanz,  E. Rosta,  N. J. Russ,  
 H. F. Schaefer III,  N. E. Schultz,  N. Shenvi,  A. C. Simmonett,  A. Sodt,  
 D. Stuck,  K. S. Thanthiriwatte,  V. Vanovschi,  Tao Wang,  A. Warshel,  
 C. F. Williams,  Q. Wu,  X. Xu,  W. Zhang

 Please cite Q-Chem as follows:
 Y. Shao et al., Mol. Phys. 113, 184-215 (2015)
 DOI: 10.1080/00268976.2014.952696

 Q-Chem 5.1.1 for Intel X86 EM64T Linux

 Parts of Q-Chem use Armadillo 8.300.2 (Tropical Shenanigans).
 http://arma.sourceforge.net/

 Q-Chem begins on Wed Mar 13 15:54:36 2019  

Host: 
0

     Scratch files written to /staging/scratch/2868761/qchem31770//
 Aug318 |scratch|qcdevops|jenkins|workspace|build_RNUM 6013   
Processing $rem in /usr/usc/qchem/5.1.1/config/preferences.
 MEM_TOTAL  2000 
Input Ideriv = 2
Curr. Ideriv = -1
Max.  Ideriv = 2

Checking the input file for inconsistencies... 	...done.

--------------------------------------------------------------
User input:
--------------------------------------------------------------

$comment
potential surface scanner
$end

$rem
JOBTYPE  PES_SCAN
UNRESTRICTED TRUE
SYM_IGNORE  TRUE
GEOM_OPT_MAX_CYCLES 400
SCF_MAX_CYCLES 400
METHOD   B3LYP
BASIS   6-31G**
PDB_PRINT 2
SCF_CONVERGENCE 6
THRESH 14
SCF_PRINT 1
$end
$molecule
0 3
F 0.623826 1.129793 -0.687776
C -0.568315 -1.013584 0.234577
C 0.778960 -0.571674 -0.121257
C -1.773103 -0.125530 0.149663
H -0.711448 -2.024060 0.623586
H -2.687634 -0.660575 0.422051
H 1.241629 -0.977073 -1.022113
H 1.496458 -0.384751 0.679392
H -1.686631 0.748249 0.815028
H 0.500717 2.051370 -0.987389
H -1.907563 0.283037 -0.862566
$end
$scan
stre 1 3 1.700000 1.701000 0.100000
$end
--------------------------------------------------------------
 ----------------------------------------------------------------
             Standard Nuclear Orientation (Angstroms)
    I     Atom           X                Y                Z
 ----------------------------------------------------------------
    1      F       0.6238260000     1.1297930000    -0.6877760000
    2      C      -0.5683150000    -1.0135840000     0.2345770000
    3      C       0.7789600000    -0.5716740000    -0.1212570000
    4      C      -1.7731030000    -0.1255300000     0.1496630000
    5      H      -0.7114480000    -2.0240600000     0.6235860000
    6      H      -2.6876340000    -0.6605750000     0.4220510000
    7      H       1.2416290000    -0.9770730000    -1.0221130000
    8      H       1.4964580000    -0.3847510000     0.6793920000
    9      H      -1.6866310000     0.7482490000     0.8150280000
   10      H       0.5007170000     2.0513700000    -0.9873890000
   11      H      -1.9075630000     0.2830370000    -0.8625660000
 ----------------------------------------------------------------
 Nuclear Repulsion Energy =   124.5365412462 hartrees
 There are       18 alpha and       16 beta electrons
 Requested basis set is 6-31G(d,p)
 There are 37 shells and 95 basis functions

 Total QAlloc Memory Limit   2000 MB
 Mega-Array Size       188 MB
 MEM_STATIC part       192 MB
A total of 1 constraints
  
            1
    1   1.0100000
    2   1.0100000
    3   3.0100000
    4   1.7000000
    5   1.7010000
    6   0.1000000
    7   0.0000000
    8   0.0000000
    9   0.0000000
   10   0.0000000

                       Distance Matrix (Angstroms)
             F (  1)   C (  2)   C (  3)   C (  4)   H (  5)   H (  6)
   C (  2)  2.620305
   C (  3)  1.800000  1.461866
   C (  4)  2.832386  1.499121  2.604893
   H (  5)  3.667345  1.092189  2.210324  2.226237
   H (  6)  3.924653  2.156681  3.510037  1.094000  2.409361
   H (  7)  2.220889  2.203747  1.090849  3.344666  2.760257  4.198201
   H (  8)  2.219117  2.203765  1.091230  3.322324  2.750509  4.201063
   H (  9)  2.782482  2.166012  2.949231  1.101670  2.945052  1.772350
   H ( 10)  0.976846  3.468425  2.776322  3.346945  4.546836  4.416645
   H ( 11)  2.674972  2.162992  2.915043  1.099825  2.993666  1.774586
             H (  7)   H (  8)   H (  9)   H ( 10)
   H (  8)  1.819589
   H (  9)  3.863487  3.381441
   H ( 10)  3.117952  3.115180  3.119507
   H ( 11)  3.395695  3.796174  1.754866  2.990384
 
 A cutoff of  1.0D-14 yielded    688 shell pairs
 There are      4619 function pairs
 
 -------------------------------------------------------
 OpenMP Integral Computing Module                       
 Release: version 1.0, May 2013, Q-Chem Inc. Pittsburgh 
 -------------------------------------------------------
 Integral Job Info:
 Integral job number is                      11
 Integral operator is                         1
 short-range coefficients                     0
 long-range coefficients              100000000
 Omega coefficients                           0
 if combine SR and LR in K                    0
 Integral screening is                        0
 Integral computing path is                   2
 max size of driver memory is            800000
 size of driver memory is                593474
 size of scratch memory is              2361544
 max col of scratch BK array               1296
 max len of scratch array in speh3          155
 max len of scratch index in speh4           18
 max int batch size is                      520
 min int batch size is                       52
 fixed nKL is                                52
 max L of basis functions is                  2
 order of int derivative is                   0
 number of shells is                         37
 number of basis is                          95
 number of cartesian basis is                95
 number of contracted shell pairs           688
 number of primitive shell pairs           2383
 maxK2 (contraction) of shell pair           36
 max number of K2 of shell pair               1
 max number of CS2 of shell pair             66
 max number of PS2 of shell pair            252
 mem total for path MDJ                  514716
 -------------------------------------------------------
 Smallest overlap matrix eigenvalue = 4.86E-03

 Scale SEOQF with 1.000000e-01/1.000000e-01/1.000000e+00

 Standard Electronic Orientation quadrupole field applied
 Nucleus-field energy     =    -0.0000000061 hartrees
 Guess from superposition of atomic densities
 Warning:  Energy on first SCF cycle will be non-variational
 SAD guess density has 34.000000 electrons

 -----------------------------------------------------------------------
  General SCF calculation program by
  Eric Jon Sundstrom, Paul Horn, Yuezhi Mao, Dmitri Zuev, Alec White,
  David Stuck, Shaama M.S., Shane Yost, Joonho Lee, David Small,
  Daniel Levine, Susi Lehtola, Hugh Burton, Evgeny Epifanovsky
 -----------------------------------------------------------------------
 Exchange:     0.2000 Hartree-Fock + 0.0800 Slater + 0.7200 B88
 Correlation:  0.1900 VWN1RPA + 0.8100 LYP
 Using SG-1 standard quadrature grid
 using 12 threads for integral computing
 -------------------------------------------------------
 OpenMP Integral computing Module                
 Release: version 1.0, May 2013, Q-Chem Inc. Pittsburgh 
 -------------------------------------------------------
 -------------------------------------------------------
 OpenMP BLAS3 based DFT computing Module                
 Release: version 1.0, May 2013, Q-Chem Inc. Pittsburgh 
 -------------------------------------------------------
 A unrestricted SCF calculation will be
 performed using DIIS
 SCF converges when DIIS error is below 1.0e-06
 Alpha HF Exchange    Energy =  -2.78994233653208
 Beta HF Exchange     Energy =  -2.78994233653208
 DFT Correlation      Energy =  -1.43850557419764
 DFT Exchange         Energy = -21.85692694901829
 One-Electron (alpha) Energy = -270.52071537082651
 One-Electron (beta)  Energy = -270.52071537082651
 Total Coulomb        Energy = 226.81306488214722
 ---------------------------------------
  Cycle       Energy         DIIS error
 ---------------------------------------
    1    -218.5671418157      3.04e-02  
 Alpha HF Exchange    Energy =  -2.94117676658667
 Beta HF Exchange     Energy =  -2.74301459185171
 DFT Correlation      Energy =  -1.46187996067458
 DFT Exchange         Energy = -22.57304038589697
 One-Electron (alpha) Energy = -285.27797523894878
 One-Electron (beta)  Energy = -263.69384848422919
 Total Coulomb        Energy = 236.06977468437731
    2    -218.0846195038      4.70e-03  
 Alpha HF Exchange    Energy =  -2.84401077084319
 Beta HF Exchange     Energy =  -2.67657421626993
 DFT Correlation      Energy =  -1.42667085357849
 DFT Exchange         Energy = -21.91588752821447
 One-Electron (alpha) Energy = -279.87997677841605
 One-Electron (beta)  Energy = -259.55249928771849
 Total Coulomb        Energy = 225.72581536726292
    3    -218.0332628277      5.91e-03  
 Alpha HF Exchange    Energy =  -2.89864237230455
 Beta HF Exchange     Energy =  -2.71411844852411
 DFT Correlation      Energy =  -1.44536455238888
 DFT Exchange         Energy = -22.27890445171003
 One-Electron (alpha) Energy = -283.12024275323353
 One-Electron (beta)  Energy = -261.88785951166784
 Total Coulomb        Energy = 231.61919660961965
    4    -218.1893942402      5.19e-04  
 Alpha HF Exchange    Energy =  -2.89707578629921
 Beta HF Exchange     Energy =  -2.71480485221802
 DFT Correlation      Energy =  -1.44491742215754
 DFT Exchange         Energy = -22.27611203906683
 One-Electron (alpha) Energy = -283.02324838600782
 One-Electron (beta)  Energy = -261.84730091357665
 Total Coulomb        Energy = 231.47656656368122
    5    -218.1903515956      2.74e-04  
 Alpha HF Exchange    Energy =  -2.89754739674145
 Beta HF Exchange     Energy =  -2.71509014911160
 DFT Correlation      Energy =  -1.44469114591659
 DFT Exchange         Energy = -22.27791137744244
 One-Electron (alpha) Energy = -283.03781829980062
 One-Electron (beta)  Energy = -261.83795244119779
 Total Coulomb        Energy = 231.48374674469358
    6    -218.1907228255      5.45e-05  
 Alpha HF Exchange    Energy =  -2.89740084499869
 Beta HF Exchange     Energy =  -2.71515837950961
 DFT Correlation      Energy =  -1.44462465264253
 DFT Exchange         Energy = -22.27737330860831
 One-Electron (alpha) Energy = -283.03753502519351
 One-Electron (beta)  Energy = -261.83841837737509
 Total Coulomb        Energy = 231.48322902427773
    7    -218.1907403240      1.24e-05  
 Alpha HF Exchange    Energy =  -2.89738144750662
 Beta HF Exchange     Energy =  -2.71526492543501
 DFT Correlation      Energy =  -1.44459524285485
 DFT Exchange         Energy = -22.27762997556092
 One-Electron (alpha) Energy = -283.03621928580583
 One-Electron (beta)  Energy = -261.83850877405615
 Total Coulomb        Energy = 231.48231662936431
    8    -218.1907417818      4.77e-06  
 Alpha HF Exchange    Energy =  -2.89736752309922
 Beta HF Exchange     Energy =  -2.71525583044141
 DFT Correlation      Energy =  -1.44459446729812
 DFT Exchange         Energy = -22.27755039225284
 One-Electron (alpha) Energy = -283.03612737741634
 One-Electron (beta)  Energy = -261.83857505770317
 Total Coulomb        Energy = 231.48218753554198
    9    -218.1907418726      2.54e-06  
 Alpha HF Exchange    Energy =  -2.89736177747180
 Beta HF Exchange     Energy =  -2.71526809281187
 DFT Correlation      Energy =  -1.44459199835230
 DFT Exchange         Energy = -22.27757671943717
 One-Electron (alpha) Energy = -283.03571406594057
 One-Electron (beta)  Energy = -261.83873907346606
 Total Coulomb        Energy = 231.48196858713598
   10    -218.1907419003      6.71e-07  Convergence criterion met
 ---------------------------------------
 SCF time:   CPU 21.54s  wall 2.00s 
<S^2> =          2.006012681
 Alpha HF Exchange    Energy =  -2.89736177747180
 Beta HF Exchange     Energy =  -2.71526809281187
 DFT Correlation      Energy =  -1.44459199835230
 DFT Exchange         Energy = -22.27757671943717
 One-Electron (alpha) Energy = -283.03571406594057
 One-Electron (beta)  Energy = -261.83873907346606
 Total Coulomb        Energy = 231.48196858713598
 Nuclear repulsion Energy = 124.53654124004346
 SCF   energy in the final basis set =     -218.1907419003
 Total energy in the final basis set =     -218.1907419003
 
 --------------------------------------------------------------
 
                    Orbital Energies (a.u.)
 --------------------------------------------------------------
 
 Alpha MOs
 -- Occupied --
-24.690 -10.177 -10.177 -10.170  -1.187  -0.769  -0.682  -0.582
 -0.518  -0.448  -0.439  -0.395  -0.392  -0.373  -0.370  -0.348
 -0.169  -0.141
 -- Virtual --
  0.060   0.127   0.142   0.152   0.176   0.200   0.208   0.285
  0.312   0.521   0.529   0.562   0.570   0.624   0.640   0.714
  0.718   0.735   0.777   0.793   0.853   0.872   0.880   0.917
  0.923   0.952   1.135   1.172   1.210   1.320   1.344   1.399
  1.460   1.534   1.613   1.702   1.739   1.775   1.801   1.846
  1.855   1.862   1.893   1.929   2.055   2.091   2.114   2.120
  2.190   2.223   2.333   2.340   2.397   2.433   2.478   2.512
  2.565   2.624   2.632   2.705   2.722   2.738   2.786   2.865
  2.904   3.026   3.188   3.270   3.365   3.429   3.479   3.506
  3.663   4.097   4.276   4.501   4.657
 
 Beta MOs
 -- Occupied --
-24.687 -10.170 -10.165 -10.164  -1.181  -0.740  -0.661  -0.558
 -0.497  -0.439  -0.424  -0.386  -0.383  -0.361  -0.358  -0.338
 -- Virtual --
 -0.020  -0.011   0.094   0.134   0.153   0.163   0.183   0.211
  0.222   0.300   0.328   0.533   0.558   0.593   0.596   0.653
  0.660   0.733   0.740   0.759   0.794   0.812   0.860   0.884
  0.891   0.927   0.936   0.965   1.156   1.184   1.217   1.341
  1.354   1.428   1.467   1.546   1.632   1.727   1.762   1.798
  1.819   1.853   1.865   1.884   1.913   1.956   2.061   2.101
  2.122   2.136   2.199   2.245   2.348   2.359   2.417   2.453
  2.499   2.538   2.582   2.648   2.655   2.715   2.735   2.763
  2.797   2.874   2.917   3.038   3.194   3.284   3.374   3.436
  3.494   3.513   3.686   4.110   4.300   4.513   4.679
 --------------------------------------------------------------
 
          Ground-State Mulliken Net Atomic Charges

     Atom                 Charge (a.u.)    Spin (a.u.)
  --------------------------------------------------------
      1 F                    -0.248876      -0.049321
      2 C                    -0.089761       0.979272
      3 C                    -0.183913       0.820839
      4 C                    -0.321473      -0.061260
      5 H                     0.086228      -0.008845
      6 H                     0.098119       0.004125
      7 H                     0.099349       0.008009
      8 H                     0.098728       0.010496
      9 H                     0.104309       0.050897
     10 H                     0.253747       0.202888
     11 H                     0.103543       0.042900
  --------------------------------------------------------
  Sum of atomic charges =    -0.000000
  Sum of spin   charges =     2.000000

 -----------------------------------------------------------------
                    Cartesian Multipole Moments
 -----------------------------------------------------------------
    Charge (ESU x 10^10)
                -0.0000
    Dipole Moment (Debye)
         X       0.0253      Y       1.3427      Z      -0.4348
       Tot       1.4116
    Quadrupole Moments (Debye-Ang)
        XX     -25.4481     XY       0.4104     YY     -21.6280
        XZ      -0.2337     YZ      -1.8077     ZZ     -25.0229
    Octopole Moments (Debye-Ang^2)
       XXX      24.1544    XXY       3.7254    XYY       9.2204
       YYY      23.7574    XXZ       2.5977    XYZ       0.1435
       YYZ      -2.0263    XZZ       9.0255    YZZ       6.8039
       ZZZ       4.4867
    Hexadecapole Moments (Debye-Ang^3)
      XXXX    -246.2943   XXXY     -13.9436   XXYY     -65.7041
      XYYY      -9.9931   YYYY    -122.9857   XXXZ      17.8301
      XXYZ       5.6799   XYYZ       2.1662   YYYZ       5.7015
      XXZZ     -50.3705   XYZZ      -5.8043   YYZZ     -29.4604
      XZZZ      18.7376   YZZZ      17.9026   ZZZZ     -59.7286
 -----------------------------------------------------------------
 Calculating analytic gradient of the SCF energy
 Gradient of SCF Energy
            1           2           3           4           5           6
    1   0.0066149   0.0000039  -0.0066352   0.0000036  -0.0000266  -0.0000020
    2  -0.0734304   0.0000625   0.0735558   0.0000155   0.0000064   0.0000095
    3   0.0244490  -0.0000850  -0.0245041   0.0000265   0.0000283  -0.0000044
            7           8           9          10          11
    1  -0.0000065  -0.0000127  -0.0000042   0.0000640   0.0000007
    2  -0.0000377   0.0000018   0.0000065  -0.0002004   0.0000104
    3   0.0000177   0.0000087   0.0000063   0.0000567   0.0000004
 Max gradient component =       7.356E-02
 RMS gradient           =       1.914E-02
 Gradient time:  CPU 9.41 s  wall 1.03 s
 Geometry Optimization Parameters
   NAtoms,    NIC,     NZ,  NCons,   NDum,   NFix, NCnnct, MaxDiis
       11      63       0       1       0       0       0       0


** CONSTRAINED OPTIMIZATION IN DELOCALIZED INTERNAL COORDINATES **
   Searching for a Minimum

   Optimization Cycle:   1

                       Coordinates (Angstroms)
     ATOM                X               Y               Z
      1  F         0.6238260000    1.1297930000   -0.6877760000
      2  C        -0.5683150000   -1.0135840000    0.2345770000
      3  C         0.7789600000   -0.5716740000   -0.1212570000
      4  C        -1.7731030000   -0.1255300000    0.1496630000
      5  H        -0.7114480000   -2.0240600000    0.6235860000
      6  H        -2.6876340000   -0.6605750000    0.4220510000
      7  H         1.2416290000   -0.9770730000   -1.0221130000
      8  H         1.4964580000   -0.3847510000    0.6793920000
      9  H        -1.6866310000    0.7482490000    0.8150280000
     10  H         0.5007170000    2.0513700000   -0.9873890000
     11  H        -1.9075630000    0.2830370000   -0.8625660000
   Point Group: c1    Number of degrees of freedom:    27


   Energy is   -218.190741900

              Constraints and their Current Values
                                        Value     Constraint
   Distance(Angs):        1   3             1.800000     1.700000

 Attempting to Generate Delocalized Internal Coordinates

   Using Lagrange Multiplier Algorithm


 28 Hessian modes will be used to form the next step
  Hessian Eigenvalues:
    -0.932683    0.045000    0.045000    0.045024    0.079881    0.092392
     0.093092    0.097641    0.159886    0.160000    0.160000    0.160000
     0.160016    0.160024    0.200000    0.200000    0.220027    0.220685
     0.324697    0.334981    0.337015    0.343545    0.345609    0.346709
     0.347147    0.367317    0.520023    1.072175

 Minimum Search - Taking P-RFO Step
 Searching for Lamda that Maximizes Along the Constraint modes Only
 Value Taken    Lamda =   0.03771529
 Searching for Lamda that Minimizes Along All other modes
 Value Taken    Lamda =  -0.00480619
 Step Taken.  Stepsize is  0.183320

                             Maximum     Tolerance    Cnvgd?
         Gradient            0.188973       0.000300      NO
         Displacement        0.183316       0.001200      NO
         Energy change     *********       0.000001      NO


 New Cartesian Coordinates Obtained by Inverse Iteration

 Displacement from previous Coordinates is:  0.222525
 ----------------------------------------------------------------
             Standard Nuclear Orientation (Angstroms)
    I     Atom           X                Y                Z
 ----------------------------------------------------------------
    1      F       0.6225507949     1.0618387437    -0.6637551908
    2      C      -0.5641599870    -0.9981600230     0.2286611594
    3      C       0.7795937531    -0.5476215383    -0.1297504462
    4      C      -1.7744453591    -0.1173108243     0.1469869576
    5      H      -0.7002181555    -2.0099035546     0.6168810041
    6      H      -2.6852206444    -0.6579733672     0.4208571387
    7      H       1.2426676142    -0.9492109611    -1.0321093371
    8      H       1.4978100578    -0.3573517458     0.6694652080
    9      H      -1.6917528715     0.7564739495     0.8128203492
   10      H       0.4934835353     1.9831952900    -0.9622136031
   11      H      -1.9134127378     0.2912260311    -0.8646472400
 ----------------------------------------------------------------
 Nuclear Repulsion Energy =   126.2756307191 hartrees
 There are       18 alpha and       16 beta electrons

                       Distance Matrix (Angstroms)
             F (  1)   C (  2)   C (  3)   C (  4)   H (  5)   H (  6)
   C (  2)  2.539347
   C (  3)  1.702993  1.461888
   C (  4)  2.791646  1.499119  2.604778
   H (  5)  3.581249  1.092177  2.210333  2.226358
   H (  6)  3.882717  2.156749  3.510026  1.093998  2.409642
   H (  7)  2.136481  2.203761  1.090854  3.344443  2.760261  4.198123
   H (  8)  2.134867  2.203784  1.091230  3.322387  2.750458  4.201181
   H (  9)  2.762159  2.165975  2.949010  1.101668  2.945230  1.772364
   H ( 10)  0.977054  3.380129  2.679531  3.284198  4.456826  4.358075
   H ( 11)  2.658066  2.162943  2.914794  1.099826  2.993654  1.774595
             H (  7)   H (  8)   H (  9)   H ( 10)
   H (  8)  1.819547
   H (  9)  3.863153  3.381489
   H ( 10)  3.027403  3.024766  3.070969
   H ( 11)  3.395228  3.796129  1.754846  2.943710
 
 Applying Cartesian multipole field
    Component          Value
    ---------          -----
     (2,0,0)        1.00000E-11
     (0,2,0)        2.00000E-11
     (0,0,2)       -3.00000E-10
 Nucleus-field energy     =    -0.0000000059 hartrees
 Requested basis set is 6-31G(d,p)
 There are 37 shells and 95 basis functions
 A cutoff of  1.0D-14 yielded    690 shell pairs
 There are      4634 function pairs
 Smallest overlap matrix eigenvalue = 4.52E-03
 Guess from superposition of atomic densities
 Warning:  Energy on first SCF cycle will be non-variational
 SAD guess density has 34.000000 electrons

 -----------------------------------------------------------------------
  General SCF calculation program by
  Eric Jon Sundstrom, Paul Horn, Yuezhi Mao, Dmitri Zuev, Alec White,
  David Stuck, Shaama M.S., Shane Yost, Joonho Lee, David Small,
  Daniel Levine, Susi Lehtola, Hugh Burton, Evgeny Epifanovsky
 -----------------------------------------------------------------------
 Exchange:     0.2000 Hartree-Fock + 0.0800 Slater + 0.7200 B88
 Correlation:  0.1900 VWN1RPA + 0.8100 LYP
 Using SG-1 standard quadrature grid
 using 12 threads for integral computing
 -------------------------------------------------------
 OpenMP Integral computing Module                
 Release: version 1.0, May 2013, Q-Chem Inc. Pittsburgh 
 -------------------------------------------------------
 -------------------------------------------------------
 OpenMP BLAS3 based DFT computing Module                
 Release: version 1.0, May 2013, Q-Chem Inc. Pittsburgh 
 -------------------------------------------------------
 A unrestricted SCF calculation will be
 performed using DIIS
 SCF converges when DIIS error is below 1.0e-06
 Alpha HF Exchange    Energy =  -2.79520633176166
 Beta HF Exchange     Energy =  -2.79520633176166
 DFT Correlation      Energy =  -1.44065873437744
 DFT Exchange         Energy = -21.86788492106623
 One-Electron (alpha) Energy = -272.24858960291579
 One-Electron (beta)  Energy = -272.24858960291579
 Total Coulomb        Energy = 228.50511570751252
 ---------------------------------------
  Cycle       Energy         DIIS error
 ---------------------------------------
    1    -218.6153891041      3.08e-02  
 Alpha HF Exchange    Energy =  -2.94015349721383
 Beta HF Exchange     Energy =  -2.74247893080059
 DFT Correlation      Energy =  -1.46369412420414
 DFT Exchange         Energy = -22.57174096404729
 One-Electron (alpha) Energy = -286.94249125300951
 One-Electron (beta)  Energy = -265.28245526166239
 Total Coulomb        Energy = 237.59846191848592
    2    -218.0689213992      4.63e-03  
 Alpha HF Exchange    Energy =  -2.84483093437216
 Beta HF Exchange     Energy =  -2.67905642080390
 DFT Correlation      Energy =  -1.42793906672920
 DFT Exchange         Energy = -21.93004452327295
 One-Electron (alpha) Energy = -281.39873109983148
 One-Electron (beta)  Energy = -261.24817226818851
 Total Coulomb        Energy = 227.24495990568383
    3    -218.0081836943      5.97e-03  
 Alpha HF Exchange    Energy =  -2.89739523543938
 Beta HF Exchange     Energy =  -2.71449451779552
 DFT Correlation      Energy =  -1.44728593628700
 DFT Exchange         Energy = -22.28087372637926
 One-Electron (alpha) Energy = -284.74361112974555
 One-Electron (beta)  Energy = -263.54719335599464
 Total Coulomb        Energy = 233.18243222806993
    4    -218.1727909603      6.28e-04  
 Alpha HF Exchange    Energy =  -2.89573283683666
 Beta HF Exchange     Energy =  -2.71608105537517
 DFT Correlation      Energy =  -1.44675994237060
 DFT Exchange         Energy = -22.28144416099360
 One-Electron (alpha) Energy = -284.61356836998414
 One-Electron (beta)  Energy = -263.53113228476894
 Total Coulomb        Energy = 233.03477108313848
    5    -218.1743168540      2.87e-04  
 Alpha HF Exchange    Energy =  -2.89603475536084
 Beta HF Exchange     Energy =  -2.71622633278292
 DFT Correlation      Energy =  -1.44656317771915
 DFT Exchange         Energy = -22.28213879805909
 One-Electron (alpha) Energy = -284.62779511437168
 One-Electron (beta)  Energy = -263.52240560131503
 Total Coulomb        Energy = 233.04079776346342
    6    -218.1747353029      5.94e-05  
 Alpha HF Exchange    Energy =  -2.89587805268593
 Beta HF Exchange     Energy =  -2.71645818821512
 DFT Correlation      Energy =  -1.44648619249969
 DFT Exchange         Energy = -22.28216861936093
 One-Electron (alpha) Energy = -284.62493569568994
 One-Electron (beta)  Energy = -263.52776861578189
 Total Coulomb        Energy = 233.04330733431863
    7    -218.1747573167      1.41e-05  
 Alpha HF Exchange    Energy =  -2.89582129137204
 Beta HF Exchange     Energy =  -2.71653172360183
 DFT Correlation      Energy =  -1.44646411909175
 DFT Exchange         Energy = -22.28216955735828
 One-Electron (alpha) Energy = -284.62314019664848
 One-Electron (beta)  Energy = -263.52867747182466
 Total Coulomb        Energy = 233.04241463461179
    8    -218.1747590121      7.78e-06  
 Alpha HF Exchange    Energy =  -2.89582682349362
 Beta HF Exchange     Energy =  -2.71657790923719
 DFT Correlation      Energy =  -1.44645904950808
 DFT Exchange         Energy = -22.28236380909582
 One-Electron (alpha) Energy = -284.62279941683011
 One-Electron (beta)  Energy = -263.52962835534447
 Total Coulomb        Energy = 233.04326541352327
    9    -218.1747592368      2.81e-06  
 Alpha HF Exchange    Energy =  -2.89581224165604
 Beta HF Exchange     Energy =  -2.71657313597091
 DFT Correlation      Energy =  -1.44645763907166
 DFT Exchange         Energy = -22.28229598306289
 One-Electron (alpha) Energy = -284.62231827509220
 One-Electron (beta)  Energy = -263.52961854921233
 Total Coulomb        Energy = 233.04268584352667
   10    -218.1747592673      6.11e-07  Convergence criterion met
 ---------------------------------------
 SCF time:   CPU 22.24s  wall 2.00s 
<S^2> =          2.006701640
 Alpha HF Exchange    Energy =  -2.89581224165604
 Beta HF Exchange     Energy =  -2.71657313597091
 DFT Correlation      Energy =  -1.44645763907166
 DFT Exchange         Energy = -22.28229598306289
 One-Electron (alpha) Energy = -284.62231827509220
 One-Electron (beta)  Energy = -263.52961854921233
 Total Coulomb        Energy = 233.04268584352667
 Nuclear repulsion Energy = 126.27563071322909
 SCF   energy in the final basis set =     -218.1747592673
 Total energy in the final basis set =     -218.1747592673
 
 --------------------------------------------------------------
 
                    Orbital Energies (a.u.)
 --------------------------------------------------------------
 
 Alpha MOs
 -- Occupied --
-24.696 -10.185 -10.180 -10.172  -1.198  -0.774  -0.690  -0.593
 -0.520  -0.457  -0.452  -0.398  -0.395  -0.374  -0.371  -0.350
 -0.172  -0.128
 -- Virtual --
  0.066   0.124   0.141   0.150   0.174   0.198   0.204   0.284
  0.309   0.508   0.527   0.560   0.566   0.621   0.634   0.711
  0.719   0.738   0.779   0.797   0.851   0.866   0.877   0.914
  0.920   0.948   1.142   1.164   1.209   1.316   1.350   1.382
  1.492   1.518   1.629   1.717   1.768   1.795   1.812   1.840
  1.848   1.855   1.902   1.935   2.054   2.094   2.114   2.123
  2.190   2.229   2.332   2.341   2.395   2.426   2.485   2.506
  2.556   2.615   2.665   2.707   2.733   2.767   2.799   2.865
  2.910   3.028   3.186   3.268   3.366   3.427   3.475   3.505
  3.720   4.125   4.288   4.510   4.711
 
 Beta MOs
 -- Occupied --
-24.693 -10.173 -10.172 -10.167  -1.190  -0.745  -0.672  -0.568
 -0.498  -0.448  -0.437  -0.389  -0.385  -0.362  -0.359  -0.340
 -- Virtual --
 -0.023  -0.006   0.106   0.132   0.152   0.160   0.181   0.209
  0.218   0.299   0.324   0.533   0.544   0.586   0.594   0.648
  0.655   0.729   0.740   0.761   0.798   0.820   0.858   0.878
  0.888   0.924   0.933   0.959   1.161   1.177   1.217   1.337
  1.359   1.407   1.502   1.530   1.646   1.748   1.790   1.815
  1.830   1.844   1.859   1.881   1.921   1.962   2.059   2.104
  2.122   2.137   2.200   2.250   2.350   2.357   2.415   2.446
  2.504   2.533   2.574   2.642   2.690   2.721   2.746   2.793
  2.812   2.875   2.923   3.040   3.192   3.282   3.374   3.434
  3.490   3.512   3.749   4.139   4.312   4.519   4.733
 --------------------------------------------------------------
 
          Ground-State Mulliken Net Atomic Charges

     Atom                 Charge (a.u.)    Spin (a.u.)
  --------------------------------------------------------
      1 F                    -0.224351      -0.064400
      2 C                    -0.092727       0.984103
      3 C                    -0.161836       0.748321
      4 C                    -0.322547      -0.063361
      5 H                     0.087129      -0.013147
      6 H                     0.099693       0.004356
      7 H                     0.102477       0.010522
      8 H                     0.101865       0.012998
      9 H                     0.105646       0.051255
     10 H                     0.199817       0.286016
     11 H                     0.104837       0.043337
  --------------------------------------------------------
  Sum of atomic charges =    -0.000000
  Sum of spin   charges =     2.000000

 -----------------------------------------------------------------
                    Cartesian Multipole Moments
 -----------------------------------------------------------------
    Charge (ESU x 10^10)
                -0.0000
    Dipole Moment (Debye)
         X       0.0406      Y       0.9747      Z      -0.3092
       Tot       1.0234
    Quadrupole Moments (Debye-Ang)
        XX     -25.3524     XY       0.2706     YY     -22.8234
        XZ      -0.2053     YZ      -1.3005     ZZ     -25.2373
    Octopole Moments (Debye-Ang^2)
       XXX      23.9795    XXY       3.5339    XYY       8.6326
       YYY      20.0177    XXZ       2.6689    XYZ       0.3774
       YYZ      -0.4958    XZZ       8.9240    YZZ       6.0179
       ZZZ       4.9182
    Hexadecapole Moments (Debye-Ang^3)
      XXXX    -245.6450   XXXY     -13.2718   XXYY     -65.0543
      XYYY     -10.9737   YYYY    -126.0143   XXXZ      17.5667
      XXYZ       5.4831   XYYZ       2.8079   YYYZ       8.5178
      XXZZ     -50.2148   XYZZ      -5.9042   YYZZ     -30.2053
      XZZZ      18.6027   YZZZ      17.7565   ZZZZ     -59.4225
 -----------------------------------------------------------------
 Calculating analytic gradient of the SCF energy
 Gradient of SCF Energy
            1           2           3           4           5           6
    1   0.0062017   0.0002706  -0.0091985  -0.0000409  -0.0000969  -0.0001203
    2  -0.0694563   0.0020510   0.0850471  -0.0001194  -0.0001922   0.0000764
    3   0.0231468  -0.0008322  -0.0280739   0.0000480   0.0001315  -0.0000050
            7           8           9          10          11
    1  -0.0001185   0.0000037   0.0000365   0.0029989   0.0000638
    2   0.0021100   0.0024559  -0.0000131  -0.0219398  -0.0000194
    3  -0.0012192  -0.0003374   0.0000095   0.0071199   0.0000120
 Max gradient component =       8.505E-02
 RMS gradient           =       2.064E-02
 Gradient time:  CPU 7.44 s  wall 0.63 s
 Geometry Optimization Parameters
   NAtoms,    NIC,     NZ,  NCons,   NDum,   NFix, NCnnct, MaxDiis
       11      63       0       1       0       0       0       0

 Cartesian Hessian Update
 Hessian Updated using BFGS Update


** CONSTRAINED OPTIMIZATION IN DELOCALIZED INTERNAL COORDINATES **
   Searching for a Minimum

   Optimization Cycle:   2

                       Coordinates (Angstroms)
     ATOM                X               Y               Z
      1  F         0.6225507949    1.0618387437   -0.6637551908
      2  C        -0.5641599870   -0.9981600230    0.2286611594
      3  C         0.7795937531   -0.5476215383   -0.1297504462
      4  C        -1.7744453591   -0.1173108243    0.1469869576
      5  H        -0.7002181555   -2.0099035546    0.6168810041
      6  H        -2.6852206444   -0.6579733672    0.4208571387
      7  H         1.2426676142   -0.9492109611   -1.0321093371
      8  H         1.4978100578   -0.3573517458    0.6694652080
      9  H        -1.6917528715    0.7564739495    0.8128203492
     10  H         0.4934835353    1.9831952900   -0.9622136031
     11  H        -1.9134127378    0.2912260311   -0.8646472400
   Point Group: c1    Number of degrees of freedom:    27


   Energy is   -218.174759267

              Constraints and their Current Values
                                        Value     Constraint
   Distance(Angs):        1   3             1.702993     1.700000
 Hessian Updated using BFGS Update

   Using Lagrange Multiplier Algorithm


 27 Hessian modes will be used to form the next step
  Hessian Eigenvalues:
    -0.954735    0.045000    0.045000    0.045024    0.082858    0.092392
     0.093096    0.097641    0.159886    0.160000    0.160001    0.160016
     0.160576    0.200000    0.200003    0.220027    0.220683    0.324697
     0.334981    0.337015    0.343545    0.345617    0.346714    0.347152
     0.367406    0.658670    1.074834

 Minimum Search - Taking P-RFO Step
 Searching for Lamda that Maximizes Along the Constraint modes Only
 Value Taken    Lamda =   0.00000226
 Searching for Lamda that Minimizes Along All other modes
 Value Taken    Lamda =  -0.00098850
 Step Taken.  Stepsize is  0.050080

                             Maximum     Tolerance    Cnvgd?
         Gradient            0.018674       0.000300      NO
         Displacement        0.044941       0.001200      NO
         Energy change      0.015983       0.000001      NO


 New Cartesian Coordinates Obtained by Inverse Iteration

 Displacement from previous Coordinates is:  0.054634
 ----------------------------------------------------------------
             Standard Nuclear Orientation (Angstroms)
    I     Atom           X                Y                Z
 ----------------------------------------------------------------
    1      F       0.6279908068     1.0639993903    -0.6652432618
    2      C      -0.5642779462    -0.9969897659     0.2284802193
    3      C       0.7788867631    -0.5428997441    -0.1312778698
    4      C      -1.7767740792    -0.1190503143     0.1479433068
    5      H      -0.6972044079    -2.0090318683     0.6162240954
    6      H      -2.6853293711    -0.6628339825     0.4227028995
    7      H       1.2413643245    -0.9577812787    -1.0276549130
    8      H       1.4965095316    -0.3670281259     0.6714725044
    9      H      -1.6961615950     0.7548900791     0.8138379014
   10      H       0.5001401657     2.0026387447    -0.9698253758
   11      H      -1.9182481923     0.2892888655    -0.8634635065
 ----------------------------------------------------------------
 Nuclear Repulsion Energy =   126.1047849135 hartrees
 There are       18 alpha and       16 beta electrons

                       Distance Matrix (Angstroms)
             F (  1)   C (  2)   C (  3)   C (  4)   H (  5)   H (  6)
   C (  2)  2.543211
   C (  3)  1.700004  1.462776
   C (  4)  2.800674  1.499137  2.605574
   H (  5)  3.583549  1.091899  2.210689  2.226384
   H (  6)  3.891487  2.155978  3.510281  1.093922  2.408805
   H (  7)  2.143634  2.199945  1.090644  3.345842  2.750548  4.196362
   H (  8)  2.142189  2.199986  1.091019  3.324148  2.740732  4.199662
   H (  9)  2.772168  2.166307  2.950147  1.101674  2.945544  1.772394
   H ( 10)  0.995068  3.400984  2.694555  3.306858  4.476906  4.380764
   H ( 11)  2.668858  2.163351  2.916020  1.099863  2.993777  1.774592
             H (  7)   H (  8)   H (  9)   H ( 10)
   H (  8)  1.816899
   H (  9)  3.866962  3.387051
   H ( 10)  3.052351  3.049907  3.092260
   H ( 11)  3.400778  3.800967  1.754835  2.965718
 
 Applying Cartesian multipole field
    Component          Value
    ---------          -----
     (2,0,0)        1.00000E-11
     (0,2,0)        2.00000E-11
     (0,0,2)       -3.00000E-10
 Nucleus-field energy     =    -0.0000000059 hartrees
 Requested basis set is 6-31G(d,p)
 There are 37 shells and 95 basis functions
 A cutoff of  1.0D-14 yielded    690 shell pairs
 There are      4634 function pairs
 Smallest overlap matrix eigenvalue = 4.55E-03
 Guess from superposition of atomic densities
 Warning:  Energy on first SCF cycle will be non-variational
 SAD guess density has 34.000000 electrons

 -----------------------------------------------------------------------
  General SCF calculation program by
  Eric Jon Sundstrom, Paul Horn, Yuezhi Mao, Dmitri Zuev, Alec White,
  David Stuck, Shaama M.S., Shane Yost, Joonho Lee, David Small,
  Daniel Levine, Susi Lehtola, Hugh Burton, Evgeny Epifanovsky
 -----------------------------------------------------------------------
 Exchange:     0.2000 Hartree-Fock + 0.0800 Slater + 0.7200 B88
 Correlation:  0.1900 VWN1RPA + 0.8100 LYP
 Using SG-1 standard quadrature grid
 using 12 threads for integral computing
 -------------------------------------------------------
 OpenMP Integral computing Module                
 Release: version 1.0, May 2013, Q-Chem Inc. Pittsburgh 
 -------------------------------------------------------
 -------------------------------------------------------
 OpenMP BLAS3 based DFT computing Module                
 Release: version 1.0, May 2013, Q-Chem Inc. Pittsburgh 
 -------------------------------------------------------
 A unrestricted SCF calculation will be
 performed using DIIS
 SCF converges when DIIS error is below 1.0e-06
 Alpha HF Exchange    Energy =  -2.79398878412411
 Beta HF Exchange     Energy =  -2.79398878412411
 DFT Correlation      Energy =  -1.44034509930806
 DFT Exchange         Energy = -21.86486328413551
 One-Electron (alpha) Energy = -272.09283450183449
 One-Electron (beta)  Energy = -272.09283450183449
 Total Coulomb        Energy = 228.36923306482595
 ---------------------------------------
  Cycle       Energy         DIIS error
 ---------------------------------------
    1    -218.6048369829      3.07e-02  
 Alpha HF Exchange    Energy =  -2.93854535019915
 Beta HF Exchange     Energy =  -2.74156335768428
 DFT Correlation      Energy =  -1.46335379444576
 DFT Exchange         Energy = -22.56379089121543
 One-Electron (alpha) Energy = -286.75314442398547
 One-Electron (beta)  Energy = -265.13766603382425
 Total Coulomb        Energy = 237.42426715068618
    2    -218.0690117930      4.61e-03  
 Alpha HF Exchange    Energy =  -2.84412224966609
 Beta HF Exchange     Energy =  -2.67825413652667
 DFT Correlation      Energy =  -1.42741667532574
 DFT Exchange         Energy = -21.92509732754953
 One-Electron (alpha) Energy = -281.17977896933957
 One-Electron (beta)  Energy = -261.10603861222489
 Total Coulomb        Energy = 227.04994525749379
    3    -218.0059778055      5.99e-03  
 Alpha HF Exchange    Energy =  -2.89562322393187
 Beta HF Exchange     Energy =  -2.71369380380996
 DFT Correlation      Energy =  -1.44685100455706
 DFT Exchange         Energy = -22.27312388755217
 One-Electron (alpha) Energy = -284.52906125856032
 One-Electron (beta)  Energy = -263.41335347997051
 Total Coulomb        Energy = 232.99401874468731
    4    -218.1729030061      6.47e-04  
 Alpha HF Exchange    Energy =  -2.89397705747722
 Beta HF Exchange     Energy =  -2.71548839179095
 DFT Correlation      Energy =  -1.44631103136155
 DFT Exchange         Energy = -22.27459820235061
 One-Electron (alpha) Energy = -284.39173531021333
 One-Electron (beta)  Energy = -263.40565905740328
 Total Coulomb        Energy = 232.84844369507977
    5    -218.1745404479      2.97e-04  
 Alpha HF Exchange    Energy =  -2.89423218839945
 Beta HF Exchange     Energy =  -2.71568256606858
 DFT Correlation      Energy =  -1.44612791457303
 DFT Exchange         Energy = -22.27532493759138
 One-Electron (alpha) Energy = -284.40560268432188
 One-Electron (beta)  Energy = -263.40110406067708
 Total Coulomb        Energy = 232.85829991751834
    6    -218.1749895265      6.05e-05  
 Alpha HF Exchange    Energy =  -2.89407369084388
 Beta HF Exchange     Energy =  -2.71598917241377
 DFT Correlation      Energy =  -1.44604950897150
 DFT Exchange         Energy = -22.27562328189997
 One-Electron (alpha) Energy = -284.40184208723963
 One-Electron (beta)  Energy = -263.40956466281790
 Total Coulomb        Energy = 232.86334455478985
    7    -218.1750129418      1.66e-05  
 Alpha HF Exchange    Energy =  -2.89398798372359
 Beta HF Exchange     Energy =  -2.71604913422869
 DFT Correlation      Energy =  -1.44602873966940
 DFT Exchange         Energy = -22.27547004189116
 One-Electron (alpha) Energy = -284.39909249259750
 One-Electron (beta)  Energy = -263.41097821212770
 Total Coulomb        Energy = 232.86180689054797
    8    -218.1750148061      1.20e-05  
 Alpha HF Exchange    Energy =  -2.89399814771154
 Beta HF Exchange     Energy =  -2.71611769319806
 DFT Correlation      Energy =  -1.44602225346659
 DFT Exchange         Energy = -22.27576197151631
 One-Electron (alpha) Energy = -284.39863047888940
 One-Electron (beta)  Energy = -263.41245169230723
 Total Coulomb        Energy = 232.86318201627267
    9    -218.1750153132      2.47e-06  
 Alpha HF Exchange    Energy =  -2.89398152432910
 Beta HF Exchange     Energy =  -2.71611679523355
 DFT Correlation      Energy =  -1.44602042338577
 DFT Exchange         Energy = -22.27570203716860
 One-Electron (alpha) Energy = -284.39797875044536
 One-Electron (beta)  Energy = -263.41260673608934
 Total Coulomb        Energy = 232.86260601765505
   10    -218.1750153414      6.27e-07  Convergence criterion met
 ---------------------------------------
 SCF time:   CPU 21.66s  wall 2.00s 
<S^2> =          2.007182039
 Alpha HF Exchange    Energy =  -2.89398152432910
 Beta HF Exchange     Energy =  -2.71611679523355
 DFT Correlation      Energy =  -1.44602042338577
 DFT Exchange         Energy = -22.27570203716860
 One-Electron (alpha) Energy = -284.39797875044536
 One-Electron (beta)  Energy = -263.41260673608934
 Total Coulomb        Energy = 232.86260601765505
 Nuclear repulsion Energy = 126.10478490763404
 SCF   energy in the final basis set =     -218.1750153414
 Total energy in the final basis set =     -218.1750153414
 
 --------------------------------------------------------------
 
                    Orbital Energies (a.u.)
 --------------------------------------------------------------
 
 Alpha MOs
 -- Occupied --
-24.696 -10.189 -10.181 -10.173  -1.193  -0.774  -0.691  -0.591
 -0.520  -0.457  -0.452  -0.398  -0.394  -0.374  -0.372  -0.351
 -0.173  -0.130
 -- Virtual --
  0.063   0.123   0.140   0.149   0.173   0.198   0.203   0.283
  0.308   0.506   0.525   0.559   0.565   0.621   0.634   0.708
  0.715   0.733   0.775   0.795   0.850   0.865   0.876   0.914
  0.919   0.948   1.140   1.165   1.210   1.315   1.348   1.379
  1.491   1.517   1.627   1.720   1.764   1.794   1.812   1.841
  1.849   1.856   1.901   1.934   2.053   2.093   2.113   2.120
  2.188   2.216   2.327   2.336   2.394   2.422   2.483   2.503
  2.549   2.608   2.652   2.707   2.729   2.760   2.791   2.864
  2.907   3.024   3.186   3.264   3.364   3.427   3.472   3.504
  3.708   4.122   4.283   4.508   4.696
 
 Beta MOs
 -- Occupied --
-24.692 -10.177 -10.173 -10.168  -1.185  -0.746  -0.672  -0.567
 -0.498  -0.448  -0.437  -0.388  -0.385  -0.362  -0.360  -0.341
 -- Virtual --
 -0.024  -0.009   0.105   0.131   0.151   0.159   0.180   0.208
  0.216   0.298   0.323   0.531   0.542   0.585   0.593   0.648
  0.654   0.726   0.737   0.758   0.796   0.816   0.858   0.877
  0.888   0.924   0.932   0.959   1.159   1.179   1.217   1.336
  1.357   1.405   1.501   1.528   1.644   1.751   1.787   1.813
  1.829   1.845   1.859   1.882   1.920   1.961   2.059   2.103
  2.121   2.135   2.197   2.236   2.346   2.352   2.414   2.442
  2.503   2.529   2.567   2.636   2.680   2.720   2.742   2.787
  2.803   2.873   2.921   3.036   3.191   3.279   3.373   3.434
  3.487   3.511   3.739   4.135   4.307   4.517   4.717
 --------------------------------------------------------------
 
          Ground-State Mulliken Net Atomic Charges

     Atom                 Charge (a.u.)    Spin (a.u.)
  --------------------------------------------------------
      1 F                    -0.229506      -0.070239
      2 C                    -0.093773       0.985769
      3 C                    -0.155035       0.726764
      4 C                    -0.322532      -0.064298
      5 H                     0.088090      -0.013886
      6 H                     0.100022       0.004229
      7 H                     0.104174       0.011501
      8 H                     0.103575       0.013926
      9 H                     0.106823       0.051222
     10 H                     0.191939       0.311674
     11 H                     0.106223       0.043338
  --------------------------------------------------------
  Sum of atomic charges =    -0.000000
  Sum of spin   charges =     2.000000

 -----------------------------------------------------------------
                    Cartesian Multipole Moments
 -----------------------------------------------------------------
    Charge (ESU x 10^10)
                -0.0000
    Dipole Moment (Debye)
         X       0.0374      Y       0.8156      Z      -0.2536
       Tot       0.8550
    Quadrupole Moments (Debye-Ang)
        XX     -25.2944     XY       0.1697     YY     -22.9806
        XZ      -0.1794     YZ      -1.2003     ZZ     -25.2910
    Octopole Moments (Debye-Ang^2)
       XXX      23.8636    XXY       3.3467    XYY       8.5666
       YYY      19.1653    XXZ       2.7320    XYZ       0.4198
       YYZ      -0.2473    XZZ       8.8732    YZZ       5.7958
       ZZZ       5.1084
    Hexadecapole Moments (Debye-Ang^3)
      XXXX    -245.8574   XXXY     -13.7676   XXYY     -65.2269
      XYYY     -11.5396   YYYY    -127.7399   XXXZ      17.7801
      XXYZ       5.5955   XYYZ       2.9037   YYYZ       9.1963
      XXZZ     -50.3054   XYZZ      -6.0887   YYZZ     -30.5963
      XZZZ      18.8232   YZZZ      18.1858   ZZZZ     -59.7774
 -----------------------------------------------------------------
 Calculating analytic gradient of the SCF energy
 Gradient of SCF Energy
            1           2           3           4           5           6
    1   0.0066235   0.0007661  -0.0079090  -0.0001942  -0.0003234  -0.0000944
    2  -0.0714129   0.0013857   0.0810490  -0.0001087  -0.0001108   0.0000626
    3   0.0237508  -0.0006746  -0.0268854   0.0000764   0.0001419  -0.0000082
            7           8           9          10          11
    1  -0.0003632  -0.0003087  -0.0000314   0.0018636  -0.0000288
    2   0.0017949   0.0019403   0.0000417  -0.0146504   0.0000085
    3  -0.0007804  -0.0004027   0.0000571   0.0047734  -0.0000483
 Max gradient component =       8.105E-02
 RMS gradient           =       2.009E-02
 Gradient time:  CPU 7.43 s  wall 0.64 s
 Geometry Optimization Parameters
   NAtoms,    NIC,     NZ,  NCons,   NDum,   NFix, NCnnct, MaxDiis
       11      63       0       1       0       0       0       0

 Cartesian Hessian Update
 Hessian Updated using BFGS Update


** CONSTRAINED OPTIMIZATION IN DELOCALIZED INTERNAL COORDINATES **
   Searching for a Minimum

   Optimization Cycle:   3

                       Coordinates (Angstroms)
     ATOM                X               Y               Z
      1  F         0.6279908068    1.0639993903   -0.6652432618
      2  C        -0.5642779462   -0.9969897659    0.2284802193
      3  C         0.7788867631   -0.5428997441   -0.1312778698
      4  C        -1.7767740792   -0.1190503143    0.1479433068
      5  H        -0.6972044079   -2.0090318683    0.6162240954
      6  H        -2.6853293711   -0.6628339825    0.4227028995
      7  H         1.2413643245   -0.9577812787   -1.0276549130
      8  H         1.4965095316   -0.3670281259    0.6714725044
      9  H        -1.6961615950    0.7548900791    0.8138379014
     10  H         0.5001401657    2.0026387447   -0.9698253758
     11  H        -1.9182481923    0.2892888655   -0.8634635065
   Point Group: c1    Number of degrees of freedom:    27


   Energy is   -218.175015341

              Constraints and their Current Values
                                        Value     Constraint
   Distance(Angs):        1   3             1.700004     1.700000
 Hessian Updated using BFGS Update

   Using Lagrange Multiplier Algorithm


 28 Hessian modes will be used to form the next step
  Hessian Eigenvalues:
    -0.916340    0.044996    0.045000    0.045019    0.060806    0.092392
     0.093122    0.097641    0.157176    0.159991    0.160000    0.160000
     0.160016    0.160728    0.199932    0.200000    0.219797    0.220771
     0.306587    0.327194    0.335090    0.337102    0.343553    0.345702
     0.346912    0.350474    0.368396    1.127705

 Minimum Search - Taking P-RFO Step
 Searching for Lamda that Maximizes Along the Constraint modes Only
 Value Taken    Lamda =   0.00000584
 Searching for Lamda that Minimizes Along All other modes
 Value Taken    Lamda =  -0.00128850
 Step Taken.  Stepsize is  0.108680

                             Maximum     Tolerance    Cnvgd?
         Gradient            0.012866       0.000300      NO
         Displacement        0.096668       0.001200      NO
         Energy change     -0.000256       0.000001      NO


 New Cartesian Coordinates Obtained by Inverse Iteration

 Displacement from previous Coordinates is:  0.116366
 ----------------------------------------------------------------
             Standard Nuclear Orientation (Angstroms)
    I     Atom           X                Y                Z
 ----------------------------------------------------------------
    1      F       0.6328392340     1.0735742408    -0.6691229853
    2      C      -0.5657777054    -0.9956954240     0.2286262445
    3      C       0.7760083590    -0.5336398525    -0.1339652127
    4      C      -1.7796338417    -0.1218598616     0.1493301577
    5      H      -0.6878132723    -2.0090205007     0.6146499819
    6      H      -2.6855263702    -0.6691237829     0.4252901311
    7      H       1.2390543931    -0.9801491426    -1.0160885035
    8      H       1.4937954050    -0.3918270002     0.6768049694
    9      H      -1.6999434879     0.7521910896     0.8146722514
   10      H       0.5064661473     2.0448311140    -0.9851868780
   11      H      -1.9225728611     0.2859211200    -0.8618141566
 ----------------------------------------------------------------
 Nuclear Repulsion Energy =   125.7369273264 hartrees
 There are       18 alpha and       16 beta electrons

                       Distance Matrix (Angstroms)
             F (  1)   C (  2)   C (  3)   C (  4)   H (  5)   H (  6)
   C (  2)  2.554313
   C (  3)  1.700008  1.464704
   C (  4)  2.814064  1.497773  2.604060
   H (  5)  3.590903  1.091208  2.209060  2.229343
   H (  6)  3.904649  2.153755  3.509038  1.093752  2.412890
   H (  7)  2.169254  2.192482  1.091753  3.347737  2.725932  4.192451
   H (  8)  2.167987  2.192570  1.092098  3.326628  2.716357  4.196056
   H (  9)  2.783309  2.164460  2.946797  1.101361  2.947661  1.772887
   H ( 10)  1.029178  3.444975  2.728689  3.347825  4.518793  4.420838
   H ( 11)  2.680981  2.161595  2.912694  1.099604  2.995219  1.775062
             H (  7)   H (  8)   H (  9)   H ( 10)
   H (  8)  1.810222
   H (  9)  3.871743  3.395254
   H ( 10)  3.112579  3.110360  3.127084
   H ( 11)  3.409197  3.807659  1.754303  3.001536
 
 Applying Cartesian multipole field
    Component          Value
    ---------          -----
     (2,0,0)        1.00000E-11
     (0,2,0)        2.00000E-11
     (0,0,2)       -3.00000E-10
 Nucleus-field energy     =    -0.0000000060 hartrees
 Requested basis set is 6-31G(d,p)
 There are 37 shells and 95 basis functions
 A cutoff of  1.0D-14 yielded    688 shell pairs
 There are      4628 function pairs
 Smallest overlap matrix eigenvalue = 4.64E-03
 Guess from superposition of atomic densities
 Warning:  Energy on first SCF cycle will be non-variational
 SAD guess density has 34.000000 electrons

 -----------------------------------------------------------------------
  General SCF calculation program by
  Eric Jon Sundstrom, Paul Horn, Yuezhi Mao, Dmitri Zuev, Alec White,
  David Stuck, Shaama M.S., Shane Yost, Joonho Lee, David Small,
  Daniel Levine, Susi Lehtola, Hugh Burton, Evgeny Epifanovsky
 -----------------------------------------------------------------------
 Exchange:     0.2000 Hartree-Fock + 0.0800 Slater + 0.7200 B88
 Correlation:  0.1900 VWN1RPA + 0.8100 LYP
 Using SG-1 standard quadrature grid
 using 12 threads for integral computing
 -------------------------------------------------------
 OpenMP Integral computing Module                
 Release: version 1.0, May 2013, Q-Chem Inc. Pittsburgh 
 -------------------------------------------------------
 -------------------------------------------------------
 OpenMP BLAS3 based DFT computing Module                
 Release: version 1.0, May 2013, Q-Chem Inc. Pittsburgh 
 -------------------------------------------------------
 A unrestricted SCF calculation will be
 performed using DIIS
 SCF converges when DIIS error is below 1.0e-06
 Alpha HF Exchange    Energy =  -2.79148824967175
 Beta HF Exchange     Energy =  -2.79148824967175
 DFT Correlation      Energy =  -1.43965525193552
 DFT Exchange         Energy = -21.85872014782827
 One-Electron (alpha) Energy = -271.75171232639462
 One-Electron (beta)  Energy = -271.75171232639462
 Total Coulomb        Energy = 228.06516289604454
 ---------------------------------------
  Cycle       Energy         DIIS error
 ---------------------------------------
    1    -218.5826863354      3.05e-02  
 Alpha HF Exchange    Energy =  -2.93557156445853
 Beta HF Exchange     Energy =  -2.73992317888702
 DFT Correlation      Energy =  -1.46261821995480
 DFT Exchange         Energy = -22.54922498756575
 One-Electron (alpha) Energy = -286.35014805080806
 One-Electron (beta)  Energy = -264.82847671725551
 Total Coulomb        Energy = 237.05952034773753
    2    -218.0695150507      4.58e-03  
 Alpha HF Exchange    Energy =  -2.84302389364752
 Beta HF Exchange     Energy =  -2.67658900216172
 DFT Correlation      Energy =  -1.42643785615196
 DFT Exchange         Energy = -21.91578687276286
 One-Electron (alpha) Energy = -280.74297332508775
 One-Electron (beta)  Energy = -260.79192298730879
 Total Coulomb        Energy = 226.65593783868002
    3    -218.0038687780      6.02e-03  
 Alpha HF Exchange    Energy =  -2.89244419518778
 Beta HF Exchange     Energy =  -2.71222281071512
 DFT Correlation      Energy =  -1.44591644514023
 DFT Exchange         Energy = -22.25893922016773
 One-Electron (alpha) Energy = -284.07920558240642
 One-Electron (beta)  Energy = -263.12031199750481
 Total Coulomb        Energy = 232.59863929818101
    4    -218.1734736325      6.68e-04  
 Alpha HF Exchange    Energy =  -2.89087077139475
 Beta HF Exchange     Energy =  -2.71432909526239
 DFT Correlation      Energy =  -1.44534428390690
 DFT Exchange         Energy = -22.26183647061362
 One-Electron (alpha) Energy = -283.92942953013636
 One-Electron (beta)  Energy = -263.12567774713187
 Total Coulomb        Energy = 232.45533020874441
    5    -218.1752303692      3.18e-04  
 Alpha HF Exchange    Energy =  -2.89105401097846
 Beta HF Exchange     Energy =  -2.71462986487996
 DFT Correlation      Energy =  -1.44519217295598
 DFT Exchange         Energy = -22.26274272497214
 One-Electron (alpha) Energy = -283.94391040739470
 One-Electron (beta)  Energy = -263.13016833545515
 Total Coulomb        Energy = 232.47502080506229
    6    -218.1757493911      6.38e-05  
 Alpha HF Exchange    Energy =  -2.89090252553165
 Beta HF Exchange     Energy =  -2.71508493570004
 DFT Correlation      Energy =  -1.44511084236126
 DFT Exchange         Energy = -22.26361393468840
 One-Electron (alpha) Energy = -283.93864673821543
 One-Electron (beta)  Energy = -263.14482771143145
 Total Coulomb        Energy = 232.48548336887984
    7    -218.1757759986      2.34e-05  
 Alpha HF Exchange    Energy =  -2.89076536225133
 Beta HF Exchange     Energy =  -2.71511157888456
 DFT Correlation      Energy =  -1.44509065679977
 DFT Exchange         Energy = -22.26314705836761
 One-Electron (alpha) Energy = -283.93414784218839
 One-Electron (beta)  Energy = -263.14671201008349
 Total Coulomb        Energy = 232.48226860433903
    8    -218.1757785838      1.78e-05  
 Alpha HF Exchange    Energy =  -2.89077463684582
 Beta HF Exchange     Energy =  -2.71522589179495
 DFT Correlation      Energy =  -1.44508069585241
 DFT Exchange         Energy = -22.26360066152736
 One-Electron (alpha) Energy = -283.93306192087670
 One-Electron (beta)  Energy = -263.14949746562303
 Total Coulomb        Energy = 232.48453421594300
    9    -218.1757797361      2.12e-06  
 Alpha HF Exchange    Energy =  -2.89075584458173
 Beta HF Exchange     Energy =  -2.71522989104438
 DFT Correlation      Energy =  -1.44507857762476
 DFT Exchange         Energy = -22.26355147595360
 One-Electron (alpha) Energy = -283.93218172546642
 One-Electron (beta)  Energy = -263.14989925916547
 Total Coulomb        Energy = 232.48398969065519
   10    -218.1757797627      6.92e-07  Convergence criterion met
 ---------------------------------------
 SCF time:   CPU 21.42s  wall 2.00s 
<S^2> =          2.008193727
 Alpha HF Exchange    Energy =  -2.89075584458173
 Beta HF Exchange     Energy =  -2.71522989104438
 DFT Correlation      Energy =  -1.44507857762476
 DFT Exchange         Energy = -22.26355147595360
 One-Electron (alpha) Energy = -283.93218172546642
 One-Electron (beta)  Energy = -263.14989925916547
 Total Coulomb        Energy = 232.48398969065519
 Nuclear repulsion Energy = 125.73692732045919
 SCF   energy in the final basis set =     -218.1757797627
 Total energy in the final basis set =     -218.1757797627
 
 --------------------------------------------------------------
 
                    Orbital Energies (a.u.)
 --------------------------------------------------------------
 
 Alpha MOs
 -- Occupied --
-24.694 -10.196 -10.183 -10.174  -1.183  -0.776  -0.691  -0.588
 -0.519  -0.457  -0.451  -0.398  -0.393  -0.374  -0.373  -0.352
 -0.175  -0.136
 -- Virtual --
  0.057   0.122   0.139   0.148   0.172   0.196   0.201   0.282
  0.304   0.505   0.523   0.557   0.563   0.620   0.636   0.702
  0.707   0.725   0.769   0.793   0.847   0.863   0.876   0.914
  0.917   0.947   1.137   1.171   1.210   1.313   1.345   1.377
  1.487   1.516   1.621   1.727   1.754   1.789   1.810   1.843
  1.851   1.857   1.898   1.931   2.052   2.090   2.109   2.114
  2.176   2.198   2.320   2.326   2.391   2.413   2.479   2.496
  2.541   2.591   2.627   2.699   2.725   2.749   2.776   2.863
  2.903   3.016   3.187   3.254   3.361   3.427   3.463   3.504
  3.682   4.115   4.272   4.502   4.666
 
 Beta MOs
 -- Occupied --
-24.691 -10.185 -10.174 -10.170  -1.176  -0.748  -0.673  -0.563
 -0.499  -0.447  -0.436  -0.387  -0.386  -0.363  -0.362  -0.343
 -- Virtual --
 -0.026  -0.015   0.101   0.130   0.149   0.157   0.179   0.206
  0.214   0.297   0.319   0.529   0.539   0.583   0.592   0.647
  0.654   0.721   0.729   0.752   0.793   0.812   0.856   0.874
  0.886   0.924   0.930   0.958   1.156   1.184   1.217   1.334
  1.354   1.403   1.497   1.527   1.639   1.756   1.776   1.809
  1.827   1.849   1.861   1.883   1.916   1.958   2.058   2.100
  2.121   2.128   2.186   2.217   2.338   2.343   2.412   2.434
  2.503   2.522   2.557   2.620   2.657   2.713   2.739   2.776
  2.787   2.872   2.916   3.028   3.192   3.270   3.370   3.434
  3.478   3.510   3.716   4.128   4.296   4.512   4.687
 --------------------------------------------------------------
 
          Ground-State Mulliken Net Atomic Charges

     Atom                 Charge (a.u.)    Spin (a.u.)
  --------------------------------------------------------
      1 F                    -0.239139      -0.080218
      2 C                    -0.095782       0.988587
      3 C                    -0.142969       0.688240
      4 C                    -0.322340      -0.066246
      5 H                     0.090062      -0.015425
      6 H                     0.100528       0.003919
      7 H                     0.106716       0.013739
      8 H                     0.106146       0.016078
      9 H                     0.109096       0.051251
     10 H                     0.178795       0.356662
     11 H                     0.108886       0.043412
  --------------------------------------------------------
  Sum of atomic charges =    -0.000000
  Sum of spin   charges =     2.000000

 -----------------------------------------------------------------
                    Cartesian Multipole Moments
 -----------------------------------------------------------------
    Charge (ESU x 10^10)
                -0.0000
    Dipole Moment (Debye)
         X       0.0246      Y       0.5268      Z      -0.1517
       Tot       0.5488
    Quadrupole Moments (Debye-Ang)
        XX     -25.2037     XY      -0.0361     YY     -23.2077
        XZ      -0.1222     YZ      -1.0385     ZZ     -25.3938
    Octopole Moments (Debye-Ang^2)
       XXX      23.7125    XXY       2.9691    XYY       8.4854
       YYY      17.6329    XXZ       2.8537    XYZ       0.4922
       YYZ       0.1683    XZZ       8.7843    YZZ       5.3959
       ZZZ       5.4672
    Hexadecapole Moments (Debye-Ang^3)
      XXXX    -245.7216   XXXY     -14.6125   XXYY     -65.5513
      XYYY     -12.5299   YYYY    -131.0535   XXXZ      18.0817
      XXYZ       5.8313   XYYZ       3.0624   YYYZ      10.3964
      XXZZ     -50.4148   XYZZ      -6.3991   YYZZ     -31.3499
      XZZZ      19.1606   YZZZ      19.0211   ZZZZ     -60.4685
 -----------------------------------------------------------------
 Calculating analytic gradient of the SCF energy
 Gradient of SCF Energy
            1           2           3           4           5           6
    1   0.0066900   0.0006933  -0.0067354  -0.0000135  -0.0002839   0.0000270
    2  -0.0704672  -0.0000529   0.0734070   0.0001262   0.0000033  -0.0000429
    3   0.0234090  -0.0001261  -0.0243976  -0.0000275   0.0000900  -0.0000003
            7           8           9          10          11
    1  -0.0003130  -0.0002818  -0.0000085   0.0002460  -0.0000201
    2   0.0002982   0.0003451  -0.0000192  -0.0035889  -0.0000088
    3  -0.0001598   0.0000193   0.0000070   0.0011913  -0.0000054
 Max gradient component =       7.341E-02
 RMS gradient           =       1.875E-02
 Gradient time:  CPU 7.43 s  wall 0.64 s
 Geometry Optimization Parameters
   NAtoms,    NIC,     NZ,  NCons,   NDum,   NFix, NCnnct, MaxDiis
       11      63       0       1       0       0       0       0

 Cartesian Hessian Update
 Hessian Updated using BFGS Update


** CONSTRAINED OPTIMIZATION IN DELOCALIZED INTERNAL COORDINATES **
   Searching for a Minimum

   Optimization Cycle:   4

                       Coordinates (Angstroms)
     ATOM                X               Y               Z
      1  F         0.6328392340    1.0735742408   -0.6691229853
      2  C        -0.5657777054   -0.9956954240    0.2286262445
      3  C         0.7760083590   -0.5336398525   -0.1339652127
      4  C        -1.7796338417   -0.1218598616    0.1493301577
      5  H        -0.6878132723   -2.0090205007    0.6146499819
      6  H        -2.6855263702   -0.6691237829    0.4252901311
      7  H         1.2390543931   -0.9801491426   -1.0160885035
      8  H         1.4937954050   -0.3918270002    0.6768049694
      9  H        -1.6999434879    0.7521910896    0.8146722514
     10  H         0.5064661473    2.0448311140   -0.9851868780
     11  H        -1.9225728611    0.2859211200   -0.8618141566
   Point Group: c1    Number of degrees of freedom:    27


   Energy is   -218.175779763

              Constraints and their Current Values
                                        Value     Constraint
   Distance(Angs):        1   3             1.700008     1.700000
 Hessian Updated using BFGS Update

   Using Lagrange Multiplier Algorithm


 28 Hessian modes will be used to form the next step
  Hessian Eigenvalues:
    -0.902658    0.044988    0.045001    0.045015    0.055144    0.092392
     0.093122    0.097641    0.156346    0.159998    0.160000    0.160016
     0.160024    0.161084    0.199577    0.200000    0.218422    0.220335
     0.270672    0.325821    0.335031    0.337063    0.343549    0.345675
     0.346908    0.349611    0.368469    1.141505

 Minimum Search - Taking P-RFO Step
 Searching for Lamda that Maximizes Along the Constraint modes Only
 Value Taken    Lamda =   0.00000003
 Searching for Lamda that Minimizes Along All other modes
 Value Taken    Lamda =  -0.00009192
 Step Taken.  Stepsize is  0.030978

                             Maximum     Tolerance    Cnvgd?
         Gradient            0.002998       0.000300      NO
         Displacement        0.027388       0.001200      NO
         Energy change     -0.000764       0.000001      NO


 New Cartesian Coordinates Obtained by Inverse Iteration

 Displacement from previous Coordinates is:  0.031947
 ----------------------------------------------------------------
             Standard Nuclear Orientation (Angstroms)
    I     Atom           X                Y                Z
 ----------------------------------------------------------------
    1      F       0.6327276600     1.0751418797    -0.6696558252
    2      C      -0.5666433061    -0.9952096916     0.2286788818
    3      C       0.7757426339    -0.5320576989    -0.1344392569
    4      C      -1.7807710819    -0.1223122844     0.1497078282
    5      H      -0.6842831063    -2.0091255039     0.6138375362
    6      H      -2.6866919267    -0.6694200178     0.4257512783
    7      H       1.2402331583    -0.9864931600    -1.0123478335
    8      H       1.4945711776    -0.3991241558     0.6775689030
    9      H      -1.7009077587     0.7519276104     0.8147234553
   10      H       0.5063731267     2.0564256049    -0.9892081022
   11      H      -1.9234545768     0.2854494175    -0.8614208650
 ----------------------------------------------------------------
 Nuclear Repulsion Energy =   125.6365784399 hartrees
 There are       18 alpha and       16 beta electrons

                       Distance Matrix (Angstroms)
             F (  1)   C (  2)   C (  3)   C (  4)   H (  5)   H (  6)
   C (  2)  2.555749
   C (  3)  1.700000  1.465730
   C (  4)  2.816066  1.497429  2.604687
   H (  5)  3.590902  1.090968  2.207560  2.231091
   H (  6)  3.906656  2.153969  3.510147  1.093718  2.416574
   H (  7)  2.176428  2.192037  1.092239  3.350171  2.719194  4.193972
   H (  8)  2.175143  2.192128  1.092585  3.329133  2.709903  4.197551
   H (  9)  2.784547  2.163907  2.946748  1.101326  2.949118  1.772935
   H ( 10)  1.039710  3.456456  2.739240  3.357835  4.529473  4.430351
   H ( 11)  2.682248  2.160866  2.912471  1.099550  2.996165  1.775139
             H (  7)   H (  8)   H (  9)   H ( 10)
   H (  8)  1.807072
   H (  9)  3.874352  3.399238
   H ( 10)  3.130246  3.128003  3.134960
   H ( 11)  3.413142  3.810516  1.754021  3.009443
 
 Applying Cartesian multipole field
    Component          Value
    ---------          -----
     (2,0,0)        1.00000E-11
     (0,2,0)        2.00000E-11
     (0,0,2)       -3.00000E-10
 Nucleus-field energy     =    -0.0000000060 hartrees
 Requested basis set is 6-31G(d,p)
 There are 37 shells and 95 basis functions
 A cutoff of  1.0D-14 yielded    688 shell pairs
 There are      4628 function pairs
 Smallest overlap matrix eigenvalue = 4.67E-03
 Guess from superposition of atomic densities
 Warning:  Energy on first SCF cycle will be non-variational
 SAD guess density has 34.000000 electrons

 -----------------------------------------------------------------------
  General SCF calculation program by
  Eric Jon Sundstrom, Paul Horn, Yuezhi Mao, Dmitri Zuev, Alec White,
  David Stuck, Shaama M.S., Shane Yost, Joonho Lee, David Small,
  Daniel Levine, Susi Lehtola, Hugh Burton, Evgeny Epifanovsky
 -----------------------------------------------------------------------
 Exchange:     0.2000 Hartree-Fock + 0.0800 Slater + 0.7200 B88
 Correlation:  0.1900 VWN1RPA + 0.8100 LYP
 Using SG-1 standard quadrature grid
 using 12 threads for integral computing
 -------------------------------------------------------
 OpenMP Integral computing Module                
 Release: version 1.0, May 2013, Q-Chem Inc. Pittsburgh 
 -------------------------------------------------------
 -------------------------------------------------------
 OpenMP BLAS3 based DFT computing Module                
 Release: version 1.0, May 2013, Q-Chem Inc. Pittsburgh 
 -------------------------------------------------------
 A unrestricted SCF calculation will be
 performed using DIIS
 SCF converges when DIIS error is below 1.0e-06
 Alpha HF Exchange    Energy =  -2.79067374059804
 Beta HF Exchange     Energy =  -2.79067374059804
 DFT Correlation      Energy =  -1.43943927783570
 DFT Exchange         Energy = -21.85675046592575
 One-Electron (alpha) Energy = -271.65926466744793
 One-Electron (beta)  Energy = -271.65926466744793
 Total Coulomb        Energy = 227.98411722537818
 ---------------------------------------
  Cycle       Energy         DIIS error
 ---------------------------------------
    1    -218.5753709005      3.04e-02  
 Alpha HF Exchange    Energy =  -2.93458332986264
 Beta HF Exchange     Energy =  -2.73943531308224
 DFT Correlation      Energy =  -1.46236778274716
 DFT Exchange         Energy = -22.54455508516277
 One-Electron (alpha) Energy = -286.23451705609415
 One-Electron (beta)  Energy = -264.74665198546427
 Total Coulomb        Energy = 236.95590546821575
    2    -218.0696266502      4.57e-03  
 Alpha HF Exchange    Energy =  -2.84273547741762
 Beta HF Exchange     Energy =  -2.67609244506299
 DFT Correlation      Energy =  -1.42615487607997
 DFT Exchange         Energy = -21.91312486024214
 One-Electron (alpha) Energy = -280.62567700475790
 One-Electron (beta)  Energy = -260.71033245018157
 Total Coulomb        Energy = 226.55398345487035
    3    -218.0035552249      6.02e-03  
 Alpha HF Exchange    Energy =  -2.89143601759239
 Beta HF Exchange     Energy =  -2.71179310622136
 DFT Correlation      Energy =  -1.44561117285625
 DFT Exchange         Energy = -22.25452812596959
 One-Electron (alpha) Energy = -283.95039135879603
 One-Electron (beta)  Energy = -263.04431039562400
 Total Coulomb        Energy = 232.48800888291905
    4    -218.1734828602      6.72e-04  
 Alpha HF Exchange    Energy =  -2.88990204234468
 Beta HF Exchange     Energy =  -2.71398853166179
 DFT Correlation      Energy =  -1.44502808257878
 DFT Exchange         Energy = -22.25786842697702
 One-Electron (alpha) Energy = -283.79718677365992
 One-Electron (beta)  Energy = -263.05356670103623
 Total Coulomb        Energy = 232.34570558493414
    5    -218.1752565393      3.26e-04  
 Alpha HF Exchange    Energy =  -2.89006285819724
 Beta HF Exchange     Energy =  -2.71432026591588
 DFT Correlation      Energy =  -1.44488700073088
 DFT Exchange         Energy = -22.25882527480630
 One-Electron (alpha) Energy = -283.81208279531404
 One-Electron (beta)  Energy = -263.06098181777708
 Total Coulomb        Energy = 232.36878002985452
    6    -218.1758015489      6.53e-05  
 Alpha HF Exchange    Energy =  -2.88991729319371
 Beta HF Exchange     Energy =  -2.71482467299304
 DFT Correlation      Energy =  -1.44480461702659
 DFT Exchange         Energy = -22.25990050770859
 One-Electron (alpha) Energy = -283.80641881149512
 One-Electron (beta)  Energy = -263.07768543767719
 Total Coulomb        Energy = 232.38114361129144
    7    -218.1758292948      2.62e-05  
 Alpha HF Exchange    Energy =  -2.88976530542662
 Beta HF Exchange     Energy =  -2.71484055012395
 DFT Correlation      Energy =  -1.44478410960022
 DFT Exchange         Energy = -22.25933729637272
 One-Electron (alpha) Energy = -283.80140848366761
 One-Electron (beta)  Energy = -263.07962710197785
 Total Coulomb        Energy = 232.37735209237647
    8    -218.1758323208      1.89e-05  
 Alpha HF Exchange    Energy =  -2.88977146920042
 Beta HF Exchange     Energy =  -2.71496801222915
 DFT Correlation      Energy =  -1.44477290717761
 DFT Exchange         Energy = -22.25982631703231
 One-Electron (alpha) Energy = -283.80001539000074
 One-Electron (beta)  Energy = -263.08285806845657
 Total Coulomb        Energy = 232.37980008607602
    9    -218.1758336440      2.07e-06  
 Alpha HF Exchange    Energy =  -2.88975240700847
 Beta HF Exchange     Energy =  -2.71497304530211
 DFT Correlation      Energy =  -1.44477078747434
 DFT Exchange         Energy = -22.25977996700750
 One-Electron (alpha) Energy = -283.79909087061463
 One-Electron (beta)  Energy = -263.08332173536252
 Total Coulomb        Energy = 232.37927670825678
   10    -218.1758336705      7.15e-07  Convergence criterion met
 ---------------------------------------
 SCF time:   CPU 21.42s  wall 2.00s 
<S^2> =          2.008540591
 Alpha HF Exchange    Energy =  -2.88975240700847
 Beta HF Exchange     Energy =  -2.71497304530211
 DFT Correlation      Energy =  -1.44477078747434
 DFT Exchange         Energy = -22.25977996700750
 One-Electron (alpha) Energy = -283.79909087061463
 One-Electron (beta)  Energy = -263.08332173536252
 Total Coulomb        Energy = 232.37927670825678
 Nuclear repulsion Energy = 125.63657843398488
 SCF   energy in the final basis set =     -218.1758336705
 Total energy in the final basis set =     -218.1758336705
 
 --------------------------------------------------------------
 
                    Orbital Energies (a.u.)
 --------------------------------------------------------------
 
 Alpha MOs
 -- Occupied --
-24.694 -10.198 -10.184 -10.174  -1.180  -0.777  -0.691  -0.587
 -0.519  -0.457  -0.451  -0.398  -0.392  -0.374  -0.373  -0.352
 -0.176  -0.138
 -- Virtual --
  0.055   0.121   0.138   0.147   0.171   0.196   0.200   0.282
  0.303   0.504   0.523   0.557   0.563   0.619   0.637   0.699
  0.704   0.723   0.767   0.793   0.846   0.862   0.875   0.914
  0.916   0.947   1.136   1.172   1.210   1.312   1.344   1.376
  1.486   1.515   1.620   1.728   1.751   1.788   1.810   1.844
  1.852   1.857   1.898   1.929   2.052   2.089   2.103   2.114
  2.170   2.196   2.317   2.323   2.390   2.410   2.477   2.494
  2.539   2.585   2.620   2.695   2.725   2.745   2.774   2.862
  2.902   3.013   3.187   3.251   3.360   3.427   3.461   3.504
  3.675   4.113   4.268   4.500   4.658
 
 Beta MOs
 -- Occupied --
[...]
   Point Group: c1    Number of degrees of freedom:    27


   Energy is   -218.175840505

              Constraints and their Current Values
                                        Value     Constraint
   Distance(Angs):        1   3             1.700000     1.700000
 Hessian Updated using BFGS Update

 26 Hessian modes will be used to form the next step
  Hessian Eigenvalues:
     0.038831    0.044996    0.045016    0.049787    0.085814    0.092399
     0.093552    0.097660    0.158106    0.160000    0.160017    0.160047
     0.160224    0.164955    0.200000    0.220042    0.227895    0.272850
     0.326306    0.335045    0.337074    0.343561    0.345606    0.346886
     0.347871    0.367335

 Minimum Search - Taking Simple RFO Step
 Searching for Lamda that Minimizes Along All modes
 Value Taken    Lamda =  -0.00000117
 Step Taken.  Stepsize is  0.004831

                             Maximum     Tolerance    Cnvgd?
         Gradient           0.000156      0.000300     YES
         Displacement       0.002473      0.001200      NO
         Energy change     -0.000002      0.000001      NO


 New Cartesian Coordinates Obtained by Inverse Iteration

 Displacement from previous Coordinates is:  0.003705
 ----------------------------------------------------------------
             Standard Nuclear Orientation (Angstroms)
    I     Atom           X                Y                Z
 ----------------------------------------------------------------
    1      F       0.6303939708     1.0731374305    -0.6690198833
    2      C      -0.5671258146    -0.9951438902     0.2287029463
    3      C       0.7759941799    -0.5337819512    -0.1336590487
    4      C      -1.7806344495    -0.1220727616     0.1498422496
    5      H      -0.6840095929    -2.0095389578     0.6127692961
    6      H      -2.6865637858    -0.6691753591     0.4256766142
    7      H       1.2410500560    -0.9869463118    -1.0118864104
    8      H       1.4948908721    -0.3990024972     0.6779615669
    9      H      -1.7004593648     0.7520317747     0.8149423203
   10      H       0.5061692008     2.0595960440    -0.9909806307
   11      H      -1.9228092720     0.2860984797    -0.8611530204
 ----------------------------------------------------------------
 Nuclear Repulsion Energy =   125.6431039247 hartrees
 There are       18 alpha and       16 beta electrons

                       Distance Matrix (Angstroms)
             F (  1)   C (  2)   C (  3)   C (  4)   H (  5)   H (  6)
   C (  2)  2.552988
   C (  3)  1.700000  1.465651
   C (  4)  2.812849  1.497022  2.605039
   H (  5)  3.587971  1.090947  2.206043  2.231461
   H (  6)  3.903360  2.153386  3.510056  1.093670  2.416982
   H (  7)  2.175868  2.192859  1.092208  3.350850  2.718650  4.194486
   H (  8)  2.174606  2.192973  1.092569  3.329364  2.710292  4.197762
   H (  9)  2.781749  2.163503  2.947199  1.101292  2.949630  1.773065
   H ( 10)  1.045079  3.459917  2.744707  3.360153  4.532814  4.432455
   H ( 11)  2.678655  2.160381  2.912901  1.099513  2.996168  1.775331
             H (  7)   H (  8)   H (  9)   H ( 10)
   H (  8)  1.807125
   H (  9)  3.874768  3.399104
   H ( 10)  3.133992  3.131716  3.136924
   H ( 11)  3.413703  3.810369  1.753804  3.010330
 
 Applying Cartesian multipole field
    Component          Value
    ---------          -----
     (2,0,0)        1.00000E-11
     (0,2,0)        2.00000E-11
     (0,0,2)       -3.00000E-10
 Nucleus-field energy     =    -0.0000000060 hartrees
 Requested basis set is 6-31G(d,p)
 There are 37 shells and 95 basis functions
 A cutoff of  1.0D-14 yielded    688 shell pairs
 There are      4628 function pairs
 Smallest overlap matrix eigenvalue = 4.67E-03
 Guess from superposition of atomic densities
 Warning:  Energy on first SCF cycle will be non-variational
 SAD guess density has 34.000000 electrons

 -----------------------------------------------------------------------
  General SCF calculation program by
  Eric Jon Sundstrom, Paul Horn, Yuezhi Mao, Dmitri Zuev, Alec White,
  David Stuck, Shaama M.S., Shane Yost, Joonho Lee, David Small,
  Daniel Levine, Susi Lehtola, Hugh Burton, Evgeny Epifanovsky
 -----------------------------------------------------------------------
 Exchange:     0.2000 Hartree-Fock + 0.0800 Slater + 0.7200 B88
 Correlation:  0.1900 VWN1RPA + 0.8100 LYP
 Using SG-1 standard quadrature grid
 using 12 threads for integral computing
 -------------------------------------------------------
 OpenMP Integral computing Module                
 Release: version 1.0, May 2013, Q-Chem Inc. Pittsburgh 
 -------------------------------------------------------
 -------------------------------------------------------
 OpenMP BLAS3 based DFT computing Module                
 Release: version 1.0, May 2013, Q-Chem Inc. Pittsburgh 
 -------------------------------------------------------
 A unrestricted SCF calculation will be
 performed using DIIS
 SCF converges when DIIS error is below 1.0e-06
 Alpha HF Exchange    Energy =  -2.79040152669104
 Beta HF Exchange     Energy =  -2.79040152669104
 DFT Correlation      Energy =  -1.43938540885575
 DFT Exchange         Energy = -21.85604715004231
 One-Electron (alpha) Energy = -271.66900705974115
 One-Electron (beta)  Energy = -271.66900705974115
 Total Coulomb        Energy = 227.99823942202266
 ---------------------------------------
  Cycle       Energy         DIIS error
 ---------------------------------------
    1    -218.5729063910      3.04e-02  
 Alpha HF Exchange    Energy =  -2.93415524349996
 Beta HF Exchange     Energy =  -2.73932192069804
 DFT Correlation      Energy =  -1.46230378881716
 DFT Exchange         Energy = -22.54292476469828
 One-Electron (alpha) Energy = -286.23538994070282
 One-Electron (beta)  Energy = -264.76344833357496
 Total Coulomb        Energy = 236.96487677280439
    2    -218.0695633005      4.57e-03  
 Alpha HF Exchange    Energy =  -2.84262050138487
 Beta HF Exchange     Energy =  -2.67591357685481
 DFT Correlation      Energy =  -1.42606118623617
 DFT Exchange         Energy = -21.91211139571807
 One-Electron (alpha) Energy = -280.62220337777541
 One-Electron (beta)  Energy = -260.72356620523345
 Total Coulomb        Energy = 226.55635034280368
    3    -218.0030219817      6.03e-03  
 Alpha HF Exchange    Energy =  -2.89096033425533
 Beta HF Exchange     Energy =  -2.71167514350962
 DFT Correlation      Energy =  -1.44551635427489
 DFT Exchange         Energy = -22.25275618208797
 One-Electron (alpha) Energy = -283.94272902926843
 One-Electron (beta)  Energy = -263.06244638232181
 Total Coulomb        Energy = 232.48951552790976
    4    -218.1734639791      6.74e-04  
 Alpha HF Exchange    Energy =  -2.88945632046612
 Beta HF Exchange     Energy =  -2.71392903823552
 DFT Correlation      Energy =  -1.44492894454587
 DFT Exchange         Energy = -22.25641206304917
 One-Electron (alpha) Energy = -283.78817944496882
 One-Electron (beta)  Energy = -263.07423594412865
 Total Coulomb        Energy = 232.34878916595838
    5    -218.1752486707      3.30e-04  
 Alpha HF Exchange    Energy =  -2.88960127413504
 Beta HF Exchange     Energy =  -2.71427083686845
 DFT Correlation      Energy =  -1.44479353518725
 DFT Exchange         Energy = -22.25735705689503
 One-Electron (alpha) Energy = -283.80310657226238
 One-Electron (beta)  Energy = -263.08299956159937
 Total Coulomb        Energy = 232.37321670061968
    6    -218.1758082176      6.61e-05  
 Alpha HF Exchange    Energy =  -2.88946024315234
 Beta HF Exchange     Energy =  -2.71480210099187
 DFT Correlation      Energy =  -1.44471068998037
 DFT Exchange         Energy = -22.25854788660047
 One-Electron (alpha) Energy = -283.79727638500668
 One-Electron (beta)  Energy = -263.10079632364886
 Total Coulomb        Energy = 232.38665314110858
    7    -218.1758365696      2.78e-05  
 Alpha HF Exchange    Energy =  -2.88930051761111
 Beta HF Exchange     Energy =  -2.71481251833312
 DFT Correlation      Energy =  -1.44468997474289
 DFT Exchange         Energy = -22.25793462460046
 One-Electron (alpha) Energy = -283.79199862575115
 One-Electron (beta)  Energy = -263.10276207312290
 Total Coulomb        Energy = 232.38255451153424
    8    -218.1758399039      1.93e-05  
 Alpha HF Exchange    Energy =  -2.88930448804618
 Beta HF Exchange     Energy =  -2.71494647498448
 DFT Correlation      Energy =  -1.44467808494153
 DFT Exchange         Energy = -22.25843855572023
 One-Electron (alpha) Energy = -283.79042500712245
 One-Electron (beta)  Energy = -263.10623244048509
 Total Coulomb        Energy = 232.38507982541586
    9    -218.1758413072      2.05e-06  
 Alpha HF Exchange    Energy =  -2.88928534875867
 Beta HF Exchange     Energy =  -2.71495195639528
 DFT Correlation      Energy =  -1.44467596826889
 DFT Exchange         Energy = -22.25839357073900
 One-Electron (alpha) Energy = -283.78948089411853
 One-Electron (beta)  Energy = -263.10672450098917
 Total Coulomb        Energy = 232.38456698689998
   10    -218.1758413337      7.31e-07  Convergence criterion met
 ---------------------------------------
 SCF time:   CPU 20.54s  wall 2.00s 
<S^2> =          2.008719112
 Alpha HF Exchange    Energy =  -2.88928534875867
 Beta HF Exchange     Energy =  -2.71495195639528
 DFT Correlation      Energy =  -1.44467596826889
 DFT Exchange         Energy = -22.25839357073900
 One-Electron (alpha) Energy = -283.78948089411853
 One-Electron (beta)  Energy = -263.10672450098917
 Total Coulomb        Energy = 232.38456698689998
 Nuclear repulsion Energy = 125.64310391871084
 SCF   energy in the final basis set =     -218.1758413337
 Total energy in the final basis set =     -218.1758413337
 
 --------------------------------------------------------------
 
                    Orbital Energies (a.u.)
 --------------------------------------------------------------
 
 Alpha MOs
 -- Occupied --
-24.693 -10.199 -10.184 -10.174  -1.178  -0.777  -0.691  -0.587
 -0.518  -0.457  -0.451  -0.398  -0.392  -0.374  -0.373  -0.353
 -0.176  -0.138
 -- Virtual --
  0.054   0.121   0.138   0.147   0.171   0.195   0.200   0.281
  0.303   0.504   0.522   0.557   0.562   0.619   0.636   0.699
  0.705   0.722   0.766   0.793   0.846   0.862   0.875   0.913
  0.916   0.947   1.135   1.172   1.210   1.312   1.344   1.376
  1.486   1.515   1.620   1.727   1.751   1.789   1.810   1.844
  1.853   1.858   1.898   1.929   2.052   2.089   2.099   2.113
  2.168   2.194   2.317   2.322   2.390   2.410   2.475   2.494
  2.538   2.582   2.616   2.694   2.723   2.742   2.774   2.862
  2.902   3.013   3.187   3.250   3.360   3.427   3.461   3.504
  3.672   4.112   4.267   4.499   4.656
 
 Beta MOs
 -- Occupied --
-24.690 -10.188 -10.174 -10.171  -1.171  -0.749  -0.674  -0.561
 -0.498  -0.447  -0.435  -0.386  -0.385  -0.363  -0.362  -0.343
 -- Virtual --
 -0.027  -0.018   0.100   0.129   0.149   0.156   0.178   0.206
  0.212   0.296   0.318   0.528   0.538   0.582   0.591   0.646
  0.654   0.719   0.727   0.750   0.791   0.811   0.855   0.873
  0.886   0.923   0.929   0.957   1.154   1.186   1.217   1.333
  1.354   1.403   1.495   1.526   1.638   1.756   1.773   1.809
  1.826   1.851   1.862   1.882   1.916   1.957   2.057   2.100
  2.119   2.122   2.178   2.211   2.335   2.339   2.411   2.431
  2.501   2.520   2.555   2.613   2.647   2.708   2.737   2.769
  2.784   2.871   2.914   3.025   3.192   3.265   3.368   3.434
  3.476   3.510   3.707   4.124   4.291   4.509   4.677
 --------------------------------------------------------------
 
          Ground-State Mulliken Net Atomic Charges

     Atom                 Charge (a.u.)    Spin (a.u.)
  --------------------------------------------------------
      1 F                    -0.243819      -0.084669
      2 C                    -0.096319       0.989429
      3 C                    -0.137179       0.670672
      4 C                    -0.322188      -0.066950
      5 H                     0.090986      -0.016400
      6 H                     0.100830       0.003774
      7 H                     0.108017       0.014620
      8 H                     0.107443       0.017000
      9 H                     0.110210       0.051268
     10 H                     0.171846       0.377764
     11 H                     0.110172       0.043492
  --------------------------------------------------------
  Sum of atomic charges =     0.000000
  Sum of spin   charges =     2.000000

 -----------------------------------------------------------------
                    Cartesian Multipole Moments
 -----------------------------------------------------------------
    Charge (ESU x 10^10)
                -0.0000
    Dipole Moment (Debye)
         X       0.0189      Y       0.3955      Z      -0.1059
       Tot       0.4099
    Quadrupole Moments (Debye-Ang)
        XX     -25.1393     XY      -0.1247     YY     -23.3486
        XZ      -0.1014     YZ      -0.9502     ZZ     -25.4425
    Octopole Moments (Debye-Ang^2)
       XXX      23.6853    XXY       2.8465    XYY       8.4337
       YYY      16.9696    XXZ       2.8879    XYZ       0.5335
       YYZ       0.3756    XZZ       8.7635    YZZ       5.2397
       ZZZ       5.5866
    Hexadecapole Moments (Debye-Ang^3)
      XXXX    -245.3970   XXXY     -14.7544   XXYY     -65.6831
      XYYY     -12.7998   YYYY    -132.5899   XXXZ      18.1066
      XXYZ       5.9289   XYYZ       3.1400   YYYZ      10.9615
      XXZZ     -50.4210   XYZZ      -6.4749   YYZZ     -31.6920
      XZZZ      19.2200   YZZZ      19.3364   ZZZZ     -60.6824
 -----------------------------------------------------------------
 Calculating analytic gradient of the SCF energy
 Gradient of SCF Energy
            1           2           3           4           5           6
    1   0.0065701  -0.0000589  -0.0063620   0.0000119   0.0000182  -0.0000020
    2  -0.0689832   0.0000670   0.0687806  -0.0000152   0.0000072   0.0000094
    3   0.0229466  -0.0000284  -0.0228976  -0.0000020   0.0000222  -0.0000046
            7           8           9          10          11
    1   0.0000139   0.0000158   0.0000002  -0.0002130   0.0000058
    2   0.0000007  -0.0000034   0.0000088   0.0001227   0.0000055
    3   0.0000019  -0.0000059  -0.0000050  -0.0000244  -0.0000029
 Max gradient component =       6.898E-02
 RMS gradient           =       1.794E-02
 Gradient time:  CPU 7.44 s  wall 0.64 s
 Geometry Optimization Parameters
   NAtoms,    NIC,     NZ,  NCons,   NDum,   NFix, NCnnct, MaxDiis
       11      63       0       1       0       0       0       0

 Cartesian Hessian Update
 Hessian Updated using BFGS Update


** CONSTRAINED OPTIMIZATION IN DELOCALIZED INTERNAL COORDINATES **
   Searching for a Minimum

   Optimization Cycle:   8

                       Coordinates (Angstroms)
     ATOM                X               Y               Z
      1  F         0.6303939708    1.0731374305   -0.6690198833
      2  C        -0.5671258146   -0.9951438902    0.2287029463
      3  C         0.7759941799   -0.5337819512   -0.1336590487
      4  C        -1.7806344495   -0.1220727616    0.1498422496
      5  H        -0.6840095929   -2.0095389578    0.6127692961
      6  H        -2.6865637858   -0.6691753591    0.4256766142
      7  H         1.2410500560   -0.9869463118   -1.0118864104
      8  H         1.4948908721   -0.3990024972    0.6779615669
      9  H        -1.7004593648    0.7520317747    0.8149423203
     10  H         0.5061692008    2.0595960440   -0.9909806307
     11  H        -1.9228092720    0.2860984797   -0.8611530204
   Point Group: c1    Number of degrees of freedom:    27


   Energy is   -218.175841334

              Constraints and their Current Values
                                        Value     Constraint
   Distance(Angs):        1   3             1.700000     1.700000
 Hessian Updated using BFGS Update

 26 Hessian modes will be used to form the next step
  Hessian Eigenvalues:
     0.024836    0.044999    0.045015    0.048141    0.080675    0.092397
     0.093240    0.097665    0.157368    0.160000    0.160017    0.160043
     0.160355    0.162136    0.200001    0.218789    0.225548    0.281449
     0.326292    0.335034    0.337068    0.343561    0.345689    0.346921
     0.350642    0.370803

 Minimum Search - Taking Simple RFO Step
 Searching for Lamda that Minimizes Along All modes
 Value Taken    Lamda =   0.00000000
 Step Taken.  Stepsize is  0.005143

                             Maximum     Tolerance    Cnvgd?
         Gradient           0.000173      0.000300     YES
         Displacement       0.002754      0.001200      NO
         Energy change     -0.000001      0.000001     YES


                       Distance Matrix (Angstroms)
             F (  1)   C (  2)   C (  3)   C (  4)   H (  5)   H (  6)
   C (  2)  2.552988
   C (  3)  1.700000  1.465651
   C (  4)  2.812849  1.497022  2.605039
   H (  5)  3.587971  1.090947  2.206043  2.231461
   H (  6)  3.903360  2.153386  3.510056  1.093670  2.416982
   H (  7)  2.175868  2.192859  1.092208  3.350850  2.718650  4.194486
   H (  8)  2.174606  2.192973  1.092569  3.329364  2.710292  4.197762
   H (  9)  2.781749  2.163503  2.947199  1.101292  2.949630  1.773065
   H ( 10)  1.045079  3.459917  2.744707  3.360153  4.532814  4.432455
   H ( 11)  2.678655  2.160381  2.912901  1.099513  2.996168  1.775331
             H (  7)   H (  8)   H (  9)   H ( 10)
   H (  8)  1.807125
   H (  9)  3.874768  3.399104
   H ( 10)  3.133992  3.131716  3.136924
   H ( 11)  3.413703  3.810369  1.753804  3.010330
 
 Final energy is   -218.175841333659     


 ******************************
 **  OPTIMIZATION CONVERGED  **
 ******************************

                       Coordinates (Angstroms)
     ATOM                X               Y               Z
      1  F         0.6303939708    1.0731374305   -0.6690198833
      2  C        -0.5671258146   -0.9951438902    0.2287029463
      3  C         0.7759941799   -0.5337819512   -0.1336590487
      4  C        -1.7806344495   -0.1220727616    0.1498422496
      5  H        -0.6840095929   -2.0095389578    0.6127692961
      6  H        -2.6865637858   -0.6691753591    0.4256766142
      7  H         1.2410500560   -0.9869463118   -1.0118864104
      8  H         1.4948908721   -0.3990024972    0.6779615669
      9  H        -1.7004593648    0.7520317747    0.8149423203
     10  H         0.5061692008    2.0595960440   -0.9909806307
     11  H        -1.9228092720    0.2860984797   -0.8611530204

Z-matrix Print:
$molecule
0 3
F 
H  1 1.045079
C  1 1.700000 2 178.055087
H  3 1.092208 1 100.104058 2 125.062148 0
H  3 1.092569 1 100.002297 2 -120.648818 0
C  3 1.465651 1 107.272692 2 2.173277 0
H  6 1.090947 3 118.549400 1 -179.180496 0
C  6 1.497022 3 123.109385 1 -1.756878 0
H  8 1.093670 6 111.495775 3 177.723518 0
H  8 1.099513 6 111.700721 3 56.666222 0
H  8 1.101292 6 111.843165 3 -61.542070 0
$end

PES scan, value:    1.7000 energy: -218.1758413337
------- Summary of potential scan: ------ 
    1.7000      -218.1758413337
----------------------------------------- 
Archival summary:
1\1\hpc0244\JobtypUnspecified\ProcedureUnspecified\6-31G**\137(3)\knomura\WedMar1315:55:012019WedMar1315:55:012019\0\\#,JobtypUnspecified,ProcedureUnspecified,6-31G**,\\0,3\F\H,1,1.04508\C,1,1.7,2,178.055\H,3,1.09221,1,100.104,2,125.062,0\H,3,1.09257,1,100.002,2,-120.649,0\C,3,1.46565,1,107.273,2,2.17328,0\H,6,1.09095,3,118.549,1,-179.18,0\C,6,1.49702,3,123.109,1,-1.75688,0\H,8,1.09367,6,111.496,3,177.724,0\H,8,1.09951,6,111.701,3,56.6662,0\H,8,1.10129,6,111.843,3,-61.5421,0\\\@

 Total job time:  24.36s(wall), 265.93s(cpu) 
 Wed Mar 13 15:55:01 2019

        *************************************************************
        *                                                           *
        *  Thank you very much for using Q-Chem.  Have a nice day.  *
        *                                                           *
        *************************************************************


