
Running Job 1 of 1 halogens/Flourine/02/F_3.xyz.data/inputs/bond_singlet_1.8.in
qchem halogens/Flourine/02/F_3.xyz.data/inputs/bond_singlet_1.8.in_29607.0 /staging/scratch/2868761/qchem29607/ 1
/usr/usc/qchem/5.1.1/exe/qcprog.exe_s halogens/Flourine/02/F_3.xyz.data/inputs/bond_singlet_1.8.in_29607.0 /staging/scratch/2868761/qchem29607/
Check license passed

                  Welcome to Q-Chem
     A Quantum Leap Into The Future Of Chemistry


 Q-Chem 5.1, Q-Chem, Inc., Pleasanton, CA (2018)

 Yihan Shao,  Zhengting Gan,  E. Epifanovsky,  A. T. B. Gilbert,  M. Wormit,  
 J. Kussmann,  A. W. Lange,  A. Behn,  Jia Deng,  Xintian Feng,  D. Ghosh,  
 M. Goldey,  P. R. Horn,  L. D. Jacobson,  I. Kaliman,  T. Kus,  A. Landau,  
 Jie Liu,  E. I. Proynov,  R. M. Richard,  R. P. Steele,  E. J. Sundstrom,  
 H. L. Woodcock III,  P. M. Zimmerman,  D. Zuev,  B. Albrecht,  E. Alguire,  
 S. A. Baeppler,  D. Barton,  Z. Benda,  Y. A. Bernard,  E. J. Berquist,  
 K. B. Bravaya,  H. Burton,  D. Casanova,  Chun-Min Chang,  Yunqing Chen,  
 A. Chien,  K. D. Closser,  M. P. Coons,  S. Coriani,  S. Dasgupta,  
 A. L. Dempwolff,  M. Diedenhofen,  Hainam Do,  R. G. Edgar,  Po-Tung Fang,  
 S. Faraji,  S. Fatehi,  Qingguo Feng,  K. D. Fenk,  J. Fosso-Tande,  
 Qinghui Ge,  A. Ghysels,  G. Gidofalvi,  J. Gomes,  J. Gonthier,  A. Gunina,  
 D. Hait,  M. W. D. Hanson-Heine,  P. H. P. Harbach,  A. W. Hauser,  
 J. E. Herr,  E. G. Hohenstein,  Z. C. Holden,  Kerwin Hui,  B. C. Huynh,  
 T.-C. Jagau,  Hyunjun Ji,  B. Kaduk,  K. Khistyaev,  Jaehoon Kim,  
 P. Klunzinger,  K. Koh,  D. Kosenkov,  L. Koulias,  T. Kowalczyk,  
 C. M. Krauter,  A. Kunitsa,  Ka Un Lao,  A. Laurent,  K. V. Lawler,  
 Joonho Lee,  D. Lefrancois,  S. Lehtola,  D. S. Levine,  Yi-Pei Li,  
 You-Sheng Lin,  Fenglai Liu,  E. Livshits,  A. Luenser,  P. Manohar,  
 E. Mansoor,  S. F. Manzer,  Shan-Ping Mao,  Yuezhi Mao,  N. Mardirossian,  
 A. V. Marenich,  T. Markovich,  L. A. Martinez-Martinez,  S. A. Maurer,  
 N. J. Mayhall,  S. C. McKenzie,  J.-M. Mewes,  A. F. Morrison,  
 J. W. Mullinax,  K. Nanda,  T. S. Nguyen-Beck,  R. Olivares-Amaya,  
 J. A. Parkhill,  T. M. Perrine,  F. Plasser,  P. Pokhilko,  S. Prager,  
 A. Prociuk,  E. Ramos,  D. R. Rehn,  F. Rob,  M. Schneider,  N. Sergueev,  
 S. M. Sharada,  S. Sharma,  D. W. Small,  T. Stauch,  T. Stein,  
 Yu-Chuan Su,  A. J. W. Thom,  A. Tkatchenko,  T. Tsuchimochi,  N. M. Tubman,  
 L. Vogt,  M. L. Vidal,  O. Vydrov,  M. A. Watson,  J. Wenzel,  
 M. de Wergifosse,  T. A. Wesolowski,  A. White,  J. Witte,  A. Yamada,  
 Jun Yang,  K. Yao,  S. Yeganeh,  S. R. Yost,  Zhi-Qiang You,  A. Zech,  
 Igor Ying Zhang,  Xing Zhang,  Yan Zhao,  Ying Zhu,  B. R. Brooks,  
 G. K. L. Chan,  C. J. Cramer,  M. S. Gordon,  W. J. Hehre,  A. Klamt,  
 M. W. Schmidt,  C. D. Sherrill,  D. G. Truhlar,  A. Aspuru-Guzik,  R. Baer,  
 A. T. Bell,  N. A. Besley,  Jeng-Da Chai,  A. E. DePrince, III,  
 R. A. DiStasio Jr.,  A. Dreuw,  B. D. Dunietz,  T. R. Furlani,  
 Chao-Ping Hsu,  Yousung Jung,  Jing Kong,  D. S. Lambrecht,  WanZhen Liang,  
 C. Ochsenfeld,  V. A. Rassolov,  L. V. Slipchenko,  J. E. Subotnik,  
 T. Van Voorhis,  J. M. Herbert,  A. I. Krylov,  P. M. W. Gill,  M. Head-Gordon

 Contributors to earlier versions of Q-Chem not listed above: 
 R. D. Adamson,  B. Austin,  J. Baker,  G. J. O. Beran,  K. Brandhorst,  
 S. T. Brown,  E. F. C. Byrd,  A. K. Chakraborty,  C.-L. Cheng,  
 Siu Hung Chien,  D. M. Chipman,  D. L. Crittenden,  H. Dachsel,  
 R. J. Doerksen,  A. D. Dutoi,  L. Fusti-Molnar,  W. A. Goddard III,  
 A. Golubeva-Zadorozhnaya,  S. R. Gwaltney,  G. Hawkins,  A. Heyden,  
 S. Hirata,  G. Kedziora,  F. J. Keil,  C. Kelley,  Jihan Kim,  R. A. King,  
 R. Z. Khaliullin,  P. P. Korambath,  W. Kurlancheek,  A. M. Lee,  M. S. Lee,  
 S. V. Levchenko,  Ching Yeh Lin,  D. Liotard,  R. C. Lochan,  I. Lotan,  
 P. E. Maslen,  N. Nair,  D. P. O'Neill,  D. Neuhauser,  E. Neuscamman,  
 C. M. Oana,  R. Olson,  B. Peters,  R. Peverati,  P. A. Pieniazek,  
 Y. M. Rhee,  J. Ritchie,  M. A. Rohrdanz,  E. Rosta,  N. J. Russ,  
 H. F. Schaefer III,  N. E. Schultz,  N. Shenvi,  A. C. Simmonett,  A. Sodt,  
 D. Stuck,  K. S. Thanthiriwatte,  V. Vanovschi,  Tao Wang,  A. Warshel,  
 C. F. Williams,  Q. Wu,  X. Xu,  W. Zhang

 Please cite Q-Chem as follows:
 Y. Shao et al., Mol. Phys. 113, 184-215 (2015)
 DOI: 10.1080/00268976.2014.952696

 Q-Chem 5.1.1 for Intel X86 EM64T Linux

 Parts of Q-Chem use Armadillo 8.300.2 (Tropical Shenanigans).
 http://arma.sourceforge.net/

 Q-Chem begins on Wed Mar 13 15:04:53 2019  

Host: 
0

     Scratch files written to /staging/scratch/2868761/qchem29607//
 Aug318 |scratch|qcdevops|jenkins|workspace|build_RNUM 6013   
Processing $rem in /usr/usc/qchem/5.1.1/config/preferences.
 MEM_TOTAL  2000 
Input Ideriv = 2
Curr. Ideriv = -1
Max.  Ideriv = 2

Checking the input file for inconsistencies... 	...done.

--------------------------------------------------------------
User input:
--------------------------------------------------------------

$comment
potential surface scanner
$end

$rem
JOBTYPE  PES_SCAN
UNRESTRICTED TRUE
SYM_IGNORE  TRUE
GEOM_OPT_MAX_CYCLES 400
SCF_MAX_CYCLES 400
METHOD   B3LYP
BASIS   6-31G**
PDB_PRINT 2
SCF_CONVERGENCE 6
THRESH 14
SCF_PRINT 1
$end
$molecule
0 1
F 1.434641 0.801509 0.251419
C -0.656350 -0.653098 0.267181
C 0.716987 -0.627632 -0.325234
C -1.510523 0.548351 -0.142307
H -0.566070 -0.708696 1.357067
H -1.127530 -1.594788 -0.055138
H 1.408831 -1.387704 0.031173
H 0.767226 -0.481422 -1.403110
H -2.489335 0.519692 0.344551
H -0.998190 1.468927 0.143255
H -1.672788 0.570061 -1.225654
$end
$scan
stre 1 3 1.800000 1.801000 0.100000
$end
--------------------------------------------------------------
 ----------------------------------------------------------------
             Standard Nuclear Orientation (Angstroms)
    I     Atom           X                Y                Z
 ----------------------------------------------------------------
    1      F       1.4346410000     0.8015090000     0.2514190000
    2      C      -0.6563500000    -0.6530980000     0.2671810000
    3      C       0.7169870000    -0.6276320000    -0.3252340000
    4      C      -1.5105230000     0.5483510000    -0.1423070000
    5      H      -0.5660700000    -0.7086960000     1.3570670000
    6      H      -1.1275300000    -1.5947880000    -0.0551380000
    7      H       1.4088310000    -1.3877040000     0.0311730000
    8      H       0.7672260000    -0.4814220000    -1.4031100000
    9      H      -2.4893350000     0.5196920000     0.3445510000
   10      H      -0.9981900000     1.4689270000     0.1432550000
   11      H      -1.6727880000     0.5700610000    -1.2256540000
 ----------------------------------------------------------------
 Nuclear Repulsion Energy =   125.3827992673 hartrees
 There are       17 alpha and       17 beta electrons
 Requested basis set is 6-31G(d,p)
 There are 37 shells and 95 basis functions

 Total QAlloc Memory Limit   2000 MB
 Mega-Array Size       188 MB
 MEM_STATIC part       192 MB
A total of 1 constraints
  
            1
    1   1.0100000
    2   1.0100000
    3   3.0100000
    4   1.8000000
    5   1.8010000
    6   0.1000000
    7   0.0000000
    8   0.0000000
    9   0.0000000
   10   0.0000000

                       Distance Matrix (Angstroms)
             F (  1)   C (  2)   C (  3)   C (  4)   H (  5)   H (  6)
   C (  2)  2.547229
   C (  3)  1.700000  1.495881
   C (  4)  2.982130  1.529958  2.525510
   H (  5)  2.739712  1.095031  2.117296  2.172621
   H (  6)  3.521496  1.101218  2.100139  2.178836  1.759181
   H (  7)  2.200415  2.204613  1.087834  3.507283  2.473718  2.546264
   H (  8)  2.197458  2.201344  1.088907  2.799678  3.073745  2.578122
   H (  9)  3.935185  2.177443  3.470658  1.093584  2.496613  2.546623
   H ( 10)  2.525037  2.152952  2.748977  1.091554  2.530239  3.072855
   H ( 11)  3.448395  2.181243  2.820682  1.095647  3.087149  2.520711
             H (  7)   H (  8)   H (  9)   H ( 10)
   H (  8)  1.813883
   H (  9)  4.351099  3.829065
   H ( 10)  3.737199  3.051524  1.779067
   H ( 11)  3.861196  2.662851  1.770545  1.771145
 
 A cutoff of  1.0D-14 yielded    692 shell pairs
 There are      4649 function pairs
 
 -------------------------------------------------------
 OpenMP Integral Computing Module                       
 Release: version 1.0, May 2013, Q-Chem Inc. Pittsburgh 
 -------------------------------------------------------
 Integral Job Info:
 Integral job number is                      11
 Integral operator is                         1
 short-range coefficients                     0
 long-range coefficients              100000000
 Omega coefficients                           0
 if combine SR and LR in K                    0
 Integral screening is                        0
 Integral computing path is                   2
 max size of driver memory is            800000
 size of driver memory is                593474
 size of scratch memory is              2361544
 max col of scratch BK array               1296
 max len of scratch array in speh3          155
 max len of scratch index in speh4           18
 max int batch size is                      520
 min int batch size is                       52
 fixed nKL is                                52
 max L of basis functions is                  2
 order of int derivative is                   0
 number of shells is                         37
 number of basis is                          95
 number of cartesian basis is                95
 number of contracted shell pairs           692
 number of primitive shell pairs           2443
 maxK2 (contraction) of shell pair           36
 max number of K2 of shell pair               1
 max number of CS2 of shell pair             58
 max number of PS2 of shell pair            234
 mem total for path MDJ                  514716
 -------------------------------------------------------
 Smallest overlap matrix eigenvalue = 5.47E-03

 Scale SEOQF with 1.000000e-01/1.000000e-01/1.000000e+00

 Standard Electronic Orientation quadrupole field applied
 Nucleus-field energy     =    -0.0000000044 hartrees
 Guess from superposition of atomic densities
 Warning:  Energy on first SCF cycle will be non-variational
 SAD guess density has 34.000000 electrons

 -----------------------------------------------------------------------
  General SCF calculation program by
  Eric Jon Sundstrom, Paul Horn, Yuezhi Mao, Dmitri Zuev, Alec White,
  David Stuck, Shaama M.S., Shane Yost, Joonho Lee, David Small,
  Daniel Levine, Susi Lehtola, Hugh Burton, Evgeny Epifanovsky
 -----------------------------------------------------------------------
 Exchange:     0.2000 Hartree-Fock + 0.0800 Slater + 0.7200 B88
 Correlation:  0.1900 VWN1RPA + 0.8100 LYP
 Using SG-1 standard quadrature grid
 using 12 threads for integral computing
 -------------------------------------------------------
 OpenMP Integral computing Module                
 Release: version 1.0, May 2013, Q-Chem Inc. Pittsburgh 
 -------------------------------------------------------
 -------------------------------------------------------
 OpenMP BLAS3 based DFT computing Module                
 Release: version 1.0, May 2013, Q-Chem Inc. Pittsburgh 
 -------------------------------------------------------
 A unrestricted SCF calculation will be
 performed using DIIS
 SCF converges when DIIS error is below 1.0e-06
 Alpha HF Exchange    Energy =  -2.79439872824469
 Beta HF Exchange     Energy =  -2.79439872824469
 DFT Correlation      Energy =  -1.43968997935653
 DFT Exchange         Energy = -21.85239885718801
 One-Electron (alpha) Energy = -271.45539619363365
 One-Electron (beta)  Energy = -271.45539619363365
 Total Coulomb        Energy = 227.86773619928195
 ---------------------------------------
  Cycle       Energy         DIIS error
 ---------------------------------------
    1    -218.5411432182      3.03e-02  
 Alpha HF Exchange    Energy =  -2.83989836575325
 Beta HF Exchange     Energy =  -2.83989836575325
 DFT Correlation      Energy =  -1.46836930028122
 DFT Exchange         Energy = -22.55174138311754
 One-Electron (alpha) Energy = -275.06942892883785
 One-Electron (beta)  Energy = -275.06942892883779
 Total Coulomb        Energy = 236.19430998110266
    2    -218.2616560286      4.59e-03  
 Alpha HF Exchange    Energy =  -2.75621883850273
 Beta HF Exchange     Energy =  -2.75621883850273
 DFT Correlation      Energy =  -1.44133681341078
 DFT Exchange         Energy = -21.89550145400647
 One-Electron (alpha) Energy = -271.21964604595138
 One-Electron (beta)  Energy = -271.21964604595132
 Total Coulomb        Energy = 227.71370003840269
    3    -218.1920687351      6.68e-03  
 Alpha HF Exchange    Energy =  -2.80241810542942
 Beta HF Exchange     Energy =  -2.80241810542942
 DFT Correlation      Energy =  -1.45413969135208
 DFT Exchange         Energy = -22.24847756637263
 One-Electron (alpha) Energy = -273.18871679030838
 One-Electron (beta)  Energy = -273.18871679030838
 Total Coulomb        Energy = 231.95812684950104
    4    -218.3439609368      1.35e-03  
 Alpha HF Exchange    Energy =  -2.80125797998892
 Beta HF Exchange     Energy =  -2.80125797998892
 DFT Correlation      Energy =  -1.45574356103608
 DFT Exchange         Energy = -22.24743111687818
 One-Electron (alpha) Energy = -273.35464063457925
 One-Electron (beta)  Energy = -273.35464063457937
 Total Coulomb        Energy = 232.28130862510656
    5    -218.3508640191      2.76e-04  
 Alpha HF Exchange    Energy =  -2.80176638289451
 Beta HF Exchange     Energy =  -2.80176638289450
 DFT Correlation      Energy =  -1.45556992755700
 DFT Exchange         Energy = -22.25039380338412
 One-Electron (alpha) Energy = -273.33290895959755
 One-Electron (beta)  Energy = -273.33290895959726
 Total Coulomb        Energy = 232.24138296500013
    6    -218.3511321881      5.15e-05  
 Alpha HF Exchange    Energy =  -2.80171872309754
 Beta HF Exchange     Energy =  -2.80171872309754
 DFT Correlation      Energy =  -1.45554702917282
 DFT Exchange         Energy = -22.24982065610024
 One-Electron (alpha) Energy = -273.33051269669846
 One-Electron (beta)  Energy = -273.33051269669852
 Total Coulomb        Energy = 232.23588846136067
    7    -218.3511428006      1.59e-05  
 Alpha HF Exchange    Energy =  -2.80176453048713
 Beta HF Exchange     Energy =  -2.80176453048712
 DFT Correlation      Energy =  -1.45556485530965
 DFT Exchange         Energy = -22.25021394221920
 One-Electron (alpha) Energy = -273.33365243016891
 One-Electron (beta)  Energy = -273.33365243016874
 Total Coulomb        Energy = 232.24266963325323
    8    -218.3511438227      1.39e-06  
 Alpha HF Exchange    Energy =  -2.80176451718243
 Beta HF Exchange     Energy =  -2.80176451718242
 DFT Correlation      Energy =  -1.45556466158738
 DFT Exchange         Energy = -22.25021126061226
 One-Electron (alpha) Energy = -273.33355713185324
 One-Electron (beta)  Energy = -273.33355713185318
 Total Coulomb        Energy = 232.24247612558906
    9    -218.3511438318      3.52e-07  Convergence criterion met
 ---------------------------------------
 SCF time:   CPU 19.70s  wall 2.00s 
<S^2> =         -0.000000000
 Alpha HF Exchange    Energy =  -2.80176451718243
 Beta HF Exchange     Energy =  -2.80176451718242
 DFT Correlation      Energy =  -1.45556466158738
 DFT Exchange         Energy = -22.25021126061226
 One-Electron (alpha) Energy = -273.33355713185324
 One-Electron (beta)  Energy = -273.33355713185318
 Total Coulomb        Energy = 232.24247612558906
 Nuclear repulsion Energy = 125.38279926285544
 SCF   energy in the final basis set =     -218.3511438318
 Total energy in the final basis set =     -218.3511438318
 
 --------------------------------------------------------------
 
                    Orbital Energies (a.u.)
 --------------------------------------------------------------
 
 Alpha MOs
 -- Occupied --
-24.621 -10.269 -10.202 -10.180  -1.069  -0.799  -0.691  -0.597
 -0.479  -0.464  -0.428  -0.389  -0.369  -0.360  -0.346  -0.312
 -0.310
 -- Virtual --
  0.009   0.092   0.130   0.136   0.149   0.166   0.180   0.196
  0.220   0.255   0.494   0.506   0.522   0.546   0.564   0.640
  0.663   0.697   0.782   0.808   0.839   0.860   0.881   0.900
  0.907   0.936   0.982   1.127   1.228   1.245   1.337   1.379
  1.422   1.506   1.517   1.650   1.653   1.726   1.778   1.819
  1.849   1.908   1.921   1.946   1.983   2.046   2.050   2.078
  2.101   2.116   2.145   2.218   2.257   2.299   2.379   2.408
  2.459   2.555   2.643   2.649   2.695   2.717   2.782   2.808
  2.880   2.891   2.944   3.187   3.258   3.291   3.392   3.438
  3.494   3.541   3.886   4.310   4.469   4.624
 
 Beta MOs
 -- Occupied --
-24.621 -10.269 -10.202 -10.180  -1.069  -0.799  -0.691  -0.597
 -0.479  -0.464  -0.428  -0.389  -0.369  -0.360  -0.346  -0.312
 -0.310
 -- Virtual --
  0.009   0.092   0.130   0.136   0.149   0.166   0.180   0.196
  0.220   0.255   0.494   0.506   0.522   0.546   0.564   0.640
  0.663   0.697   0.782   0.808   0.839   0.860   0.881   0.900
  0.907   0.936   0.982   1.127   1.228   1.245   1.337   1.379
  1.422   1.506   1.517   1.650   1.653   1.726   1.778   1.819
  1.849   1.908   1.921   1.946   1.983   2.046   2.050   2.078
  2.101   2.116   2.145   2.218   2.257   2.299   2.379   2.408
  2.459   2.555   2.643   2.649   2.695   2.717   2.782   2.808
  2.880   2.891   2.944   3.187   3.258   3.291   3.392   3.438
  3.494   3.541   3.886   4.310   4.469   4.624
 --------------------------------------------------------------
 
          Ground-State Mulliken Net Atomic Charges

     Atom                 Charge (a.u.)    Spin (a.u.)
  --------------------------------------------------------
      1 F                    -0.382923      -0.000000
      2 C                    -0.201274      -0.000000
      3 C                     0.063076       0.000000
      4 C                    -0.319885      -0.000000
      5 H                     0.127630       0.000000
      6 H                     0.105682       0.000000
      7 H                     0.129168      -0.000000
      8 H                     0.129347      -0.000000
      9 H                     0.104851       0.000000
     10 H                     0.142151       0.000000
     11 H                     0.102177       0.000000
  --------------------------------------------------------
  Sum of atomic charges =    -0.000000
  Sum of spin   charges =    -0.000000

 -----------------------------------------------------------------
                    Cartesian Multipole Moments
 -----------------------------------------------------------------
    Charge (ESU x 10^10)
                 0.0000
    Dipole Moment (Debye)
         X      -1.4999      Y      -2.2525      Z      -0.7563
       Tot       2.8099
    Quadrupole Moments (Debye-Ang)
        XX     -27.1277     XY      -2.6817     YY     -24.8315
        XZ      -1.0723     YZ      -0.0504     ZZ     -24.1410
    Octopole Moments (Debye-Ang^2)
       XXX       8.0486    XXY      -3.1860    XYY       3.9931
       YYY       0.9296    XXZ      -0.0555    XYZ      -0.3393
       YYZ       0.4375    XZZ       4.1500    YZZ       0.3097
       ZZZ       0.1297
    Hexadecapole Moments (Debye-Ang^3)
      XXXX    -249.3978   XXXY      -0.2585   XXYY     -59.4463
      XYYY       3.8823   YYYY    -107.8090   XXXZ      -3.7285
      XXYZ      -0.4296   XYYZ       0.0513   YYYZ       0.2443
      XXZZ     -49.8284   XYZZ       1.2777   YYZZ     -28.1043
      XZZZ      -1.6524   YZZZ      -1.0930   ZZZZ     -50.6283
 -----------------------------------------------------------------
 Calculating analytic gradient of the SCF energy
 Gradient of SCF Energy
            1           2           3           4           5           6
    1   0.0325726   0.0000866  -0.0327699  -0.0000496  -0.0000074   0.0000540
    2   0.0648828   0.0001353  -0.0648801  -0.0000480  -0.0000057  -0.0000488
    3   0.0261338   0.0000996  -0.0260753  -0.0000275  -0.0000068  -0.0000622
            7           8           9          10          11
    1   0.0000602   0.0000602  -0.0000010  -0.0000000  -0.0000056
    2   0.0000043  -0.0000262  -0.0000011  -0.0000074  -0.0000050
    3  -0.0000784  -0.0000219   0.0000189   0.0000024   0.0000173
 Max gradient component =       6.488E-02
 RMS gradient           =       1.900E-02
 Gradient time:  CPU 7.62 s  wall 0.69 s
 Geometry Optimization Parameters
   NAtoms,    NIC,     NZ,  NCons,   NDum,   NFix, NCnnct, MaxDiis
       11      68       0       1       0       0       0       0


** CONSTRAINED OPTIMIZATION IN DELOCALIZED INTERNAL COORDINATES **
   Searching for a Minimum

   Optimization Cycle:   1

                       Coordinates (Angstroms)
     ATOM                X               Y               Z
      1  F         1.4346410000    0.8015090000    0.2514190000
      2  C        -0.6563500000   -0.6530980000    0.2671810000
      3  C         0.7169870000   -0.6276320000   -0.3252340000
      4  C        -1.5105230000    0.5483510000   -0.1423070000
      5  H        -0.5660700000   -0.7086960000    1.3570670000
      6  H        -1.1275300000   -1.5947880000   -0.0551380000
      7  H         1.4088310000   -1.3877040000    0.0311730000
      8  H         0.7672260000   -0.4814220000   -1.4031100000
      9  H        -2.4893350000    0.5196920000    0.3445510000
     10  H        -0.9981900000    1.4689270000    0.1432550000
     11  H        -1.6727880000    0.5700610000   -1.2256540000
   Point Group: c1    Number of degrees of freedom:    27


   Energy is   -218.351143832

              Constraints and their Current Values
                                        Value     Constraint
   Distance(Angs):        1   3             1.700000     1.800000

 Attempting to Generate Delocalized Internal Coordinates

   Using Lagrange Multiplier Algorithm


 28 Hessian modes will be used to form the next step
  Hessian Eigenvalues:
    -0.914014    0.045000    0.045000    0.067930    0.075612    0.078030
     0.082847    0.084208    0.087098    0.104361    0.132514    0.160000
     0.160000    0.160000    0.160000    0.160000    0.219408    0.221553
     0.294273    0.328134    0.335478    0.341681    0.342376    0.344018
     0.346336    0.349393    0.350641    1.094075

 Minimum Search - Taking P-RFO Step
 Searching for Lamda that Maximizes Along the Constraint modes Only
 Value Taken    Lamda =   0.03851560
 Searching for Lamda that Minimizes Along All other modes
 Value Taken    Lamda =  -0.00452988
 Step Taken.  Stepsize is  0.183066

                             Maximum     Tolerance    Cnvgd?
         Gradient            0.188973       0.000300      NO
         Displacement        0.183060       0.001200      NO
         Energy change     *********       0.000001      NO


 New Cartesian Coordinates Obtained by Inverse Iteration

 Displacement from previous Coordinates is:  0.168570
 ----------------------------------------------------------------
             Standard Nuclear Orientation (Angstroms)
    I     Atom           X                Y                Z
 ----------------------------------------------------------------
    1      F       1.4766891695     0.8678499428     0.2765625786
    2      C      -0.6614719245    -0.6594295196     0.2649548959
    3      C       0.7107252691    -0.6399274954    -0.3306044993
    4      C      -1.5114189279     0.5454148661    -0.1433483055
    5      H      -0.5686985739    -0.7145586895     1.3546720239
    6      H      -1.1377501460    -1.5991993383    -0.0552561067
    7      H       1.3999604144    -1.4026614813     0.0250966545
    8      H       0.7588455523    -0.4944860632    -1.4086605837
    9      H      -2.4891533015     0.5212125212     0.3459062248
   10      H      -0.9945508769     1.4640679636     0.1402066042
   11      H      -1.6762776545     0.5669172936    -1.2263264868
 ----------------------------------------------------------------
 Nuclear Repulsion Energy =   123.6815159122 hartrees
 There are       17 alpha and       17 beta electrons

                       Distance Matrix (Angstroms)
             F (  1)   C (  2)   C (  3)   C (  4)   H (  5)   H (  6)
   C (  2)  2.627632
   C (  3)  1.796871  1.495993
   C (  4)  3.034647  1.529958  2.525475
   H (  5)  2.801776  1.095048  2.117227  2.172630
   H (  6)  3.609949  1.101155  2.100686  2.178706  1.759064
   H (  7)  2.285683  2.204411  1.087810  3.507065  2.473232  2.546578
   H (  8)  2.282813  2.201249  1.088886  2.799377  3.073567  2.578599
   H (  9)  3.981567  2.177358  3.470610  1.093581  2.496575  2.546246
   H ( 10)  2.545800  2.153078  2.748896  1.091549  2.530354  3.072836
   H ( 11)  3.505772  2.181210  2.820740  1.095665  3.087145  2.520611
             H (  7)   H (  8)   H (  9)   H ( 10)
   H (  8)  1.814241
   H (  9)  4.350795  3.828792
   H ( 10)  3.736987  3.051118  1.779080
   H ( 11)  3.861158  2.662639  1.770529  1.771170
 
 Applying Cartesian multipole field
    Component          Value
    ---------          -----
     (2,0,0)        1.00000E-11
     (0,2,0)        2.00000E-11
     (0,0,2)       -3.00000E-10
 Nucleus-field energy     =    -0.0000000044 hartrees
 Requested basis set is 6-31G(d,p)
 There are 37 shells and 95 basis functions
 A cutoff of  1.0D-14 yielded    692 shell pairs
 There are      4649 function pairs
 Smallest overlap matrix eigenvalue = 5.60E-03
 Guess from superposition of atomic densities
 Warning:  Energy on first SCF cycle will be non-variational
 SAD guess density has 34.000000 electrons

 -----------------------------------------------------------------------
  General SCF calculation program by
  Eric Jon Sundstrom, Paul Horn, Yuezhi Mao, Dmitri Zuev, Alec White,
  David Stuck, Shaama M.S., Shane Yost, Joonho Lee, David Small,
  Daniel Levine, Susi Lehtola, Hugh Burton, Evgeny Epifanovsky
 -----------------------------------------------------------------------
 Exchange:     0.2000 Hartree-Fock + 0.0800 Slater + 0.7200 B88
 Correlation:  0.1900 VWN1RPA + 0.8100 LYP
 Using SG-1 standard quadrature grid
 using 12 threads for integral computing
 -------------------------------------------------------
 OpenMP Integral computing Module                
 Release: version 1.0, May 2013, Q-Chem Inc. Pittsburgh 
 -------------------------------------------------------
 -------------------------------------------------------
 OpenMP BLAS3 based DFT computing Module                
 Release: version 1.0, May 2013, Q-Chem Inc. Pittsburgh 
 -------------------------------------------------------
 A unrestricted SCF calculation will be
 performed using DIIS
 SCF converges when DIIS error is below 1.0e-06
 Alpha HF Exchange    Energy =  -2.78934293596360
 Beta HF Exchange     Energy =  -2.78934293596360
 DFT Correlation      Energy =  -1.43758717539883
 DFT Exchange         Energy = -21.84157866166870
 One-Electron (alpha) Energy = -269.76551862543351
 One-Electron (beta)  Energy = -269.76551862543351
 Total Coulomb        Energy = 226.21342242993012
 ---------------------------------------
  Cycle       Energy         DIIS error
 ---------------------------------------
    1    -218.4939506222      2.99e-02  
 Alpha HF Exchange    Energy =  -2.84010149048418
 Beta HF Exchange     Energy =  -2.84010149048418
 DFT Correlation      Energy =  -1.46674316909245
 DFT Exchange         Energy = -22.55411076779646
 One-Electron (alpha) Energy = -273.42845463941882
 One-Electron (beta)  Energy = -273.42845463941865
 Total Coulomb        Energy = 234.63900302306601
    2    -218.2374472659      4.84e-03  
 Alpha HF Exchange    Energy =  -2.74690060301101
 Beta HF Exchange     Energy =  -2.74690060301100
 DFT Correlation      Energy =  -1.43846906658149
 DFT Exchange         Energy = -21.83338886602500
 One-Electron (alpha) Energy = -269.36305285795169
 One-Electron (beta)  Energy = -269.36305285795174
 Total Coulomb        Energy = 225.71311732104436
    3    -218.0971316257      8.22e-03  
 Alpha HF Exchange    Energy =  -2.79935035385423
 Beta HF Exchange     Energy =  -2.79935035385423
 DFT Correlation      Energy =  -1.45138851964967
 DFT Exchange         Energy = -22.22682562052963
 One-Electron (alpha) Energy = -271.40081862097128
 One-Electron (beta)  Energy = -271.40081862097139
 Total Coulomb        Energy = 230.07412456501518
    4    -218.3229116170      1.79e-03  
 Alpha HF Exchange    Energy =  -2.79864132123000
 Beta HF Exchange     Energy =  -2.79864132123000
 DFT Correlation      Energy =  -1.45382857249984
 DFT Exchange         Energy = -22.23307043664698
 One-Electron (alpha) Energy = -271.67132403523351
 One-Electron (beta)  Energy = -271.67132403523368
 Total Coulomb        Energy = 230.60929520911841
    5    -218.3360186052      3.05e-04  
 Alpha HF Exchange    Energy =  -2.79926520848672
 Beta HF Exchange     Energy =  -2.79926520848673
 DFT Correlation      Energy =  -1.45368058446216
 DFT Exchange         Energy = -22.23699513864841
 One-Electron (alpha) Energy = -271.65284200567993
 One-Electron (beta)  Energy = -271.65284200568004
 Total Coulomb        Energy = 230.57704310005903
    6    -218.3363311436      7.58e-05  
 Alpha HF Exchange    Energy =  -2.79922965595343
 Beta HF Exchange     Energy =  -2.79922965595342
 DFT Correlation      Energy =  -1.45364482896383
 DFT Exchange         Energy = -22.23635948203460
 One-Electron (alpha) Energy = -271.64891571894350
 One-Electron (beta)  Energy = -271.64891571894339
 Total Coulomb        Energy = 230.56842372599911
    7    -218.3363554270      1.88e-05  
 Alpha HF Exchange    Energy =  -2.79929409771360
 Beta HF Exchange     Energy =  -2.79929409771360
 DFT Correlation      Energy =  -1.45366636044155
 DFT Exchange         Energy = -22.23688463394147
 One-Electron (alpha) Energy = -271.65285285338888
 One-Electron (beta)  Energy = -271.65285285338911
 Total Coulomb        Energy = 230.57697221313958
    8    -218.3363567757      2.12e-06  
 Alpha HF Exchange    Energy =  -2.79930139055613
 Beta HF Exchange     Energy =  -2.79930139055614
 DFT Correlation      Energy =  -1.45366727228625
 DFT Exchange         Energy = -22.23693171586234
 One-Electron (alpha) Energy = -271.65294274907274
 One-Electron (beta)  Energy = -271.65294274907296
 Total Coulomb        Energy = 230.57721456573287
    9    -218.3363567939      4.53e-07  Convergence criterion met
 ---------------------------------------
 SCF time:   CPU 19.58s  wall 1.00s 
<S^2> =         -0.000000000
 Alpha HF Exchange    Energy =  -2.79930139055613
 Beta HF Exchange     Energy =  -2.79930139055614
 DFT Correlation      Energy =  -1.45366727228625
 DFT Exchange         Energy = -22.23693171586234
 One-Electron (alpha) Energy = -271.65294274907274
 One-Electron (beta)  Energy = -271.65294274907296
 Total Coulomb        Energy = 230.57721456573287
 Nuclear repulsion Energy = 123.68151590776876
 SCF   energy in the final basis set =     -218.3363567939
 Total energy in the final basis set =     -218.3363567939
 
 --------------------------------------------------------------
 
                    Orbital Energies (a.u.)
 --------------------------------------------------------------
 
 Alpha MOs
 -- Occupied --
-24.612 -10.275 -10.206 -10.181  -1.050  -0.804  -0.694  -0.600
 -0.480  -0.464  -0.429  -0.381  -0.369  -0.360  -0.342  -0.305
 -0.303
 -- Virtual --
 -0.021   0.089   0.128   0.134   0.147   0.164   0.178   0.195
  0.217   0.252   0.492   0.503   0.526   0.543   0.560   0.638
  0.661   0.694   0.775   0.804   0.837   0.858   0.880   0.898
  0.906   0.934   0.980   1.123   1.233   1.246   1.316   1.369
  1.414   1.508   1.514   1.629   1.656   1.715   1.757   1.816
  1.853   1.908   1.926   1.941   1.980   2.033   2.046   2.073
  2.093   2.112   2.128   2.208   2.254   2.293   2.375   2.398
  2.442   2.536   2.610   2.633   2.660   2.694   2.774   2.802
  2.877   2.883   2.922   3.184   3.249   3.286   3.386   3.433
  3.491   3.535   3.832   4.294   4.454   4.617
 
 Beta MOs
 -- Occupied --
-24.612 -10.275 -10.206 -10.181  -1.050  -0.804  -0.694  -0.600
 -0.480  -0.464  -0.429  -0.381  -0.369  -0.360  -0.342  -0.305
 -0.303
 -- Virtual --
 -0.021   0.089   0.128   0.134   0.147   0.164   0.178   0.195
  0.217   0.252   0.492   0.503   0.526   0.543   0.560   0.638
  0.661   0.694   0.775   0.804   0.837   0.858   0.880   0.898
  0.906   0.934   0.980   1.123   1.233   1.246   1.316   1.369
  1.414   1.508   1.514   1.629   1.656   1.715   1.757   1.816
  1.853   1.908   1.926   1.941   1.980   2.033   2.046   2.073
  2.093   2.112   2.128   2.208   2.254   2.293   2.375   2.398
  2.442   2.536   2.610   2.633   2.660   2.694   2.774   2.802
  2.877   2.883   2.922   3.184   3.249   3.286   3.386   3.433
  3.491   3.535   3.832   4.294   4.454   4.617
 --------------------------------------------------------------
 
          Ground-State Mulliken Net Atomic Charges

     Atom                 Charge (a.u.)    Spin (a.u.)
  --------------------------------------------------------
      1 F                    -0.383768       0.000000
      2 C                    -0.203474       0.000000
      3 C                     0.037403      -0.000000
      4 C                    -0.319975       0.000000
      5 H                     0.132130      -0.000000
      6 H                     0.110916      -0.000000
      7 H                     0.136155       0.000000
      8 H                     0.136546       0.000000
      9 H                     0.105404       0.000000
     10 H                     0.146157      -0.000000
     11 H                     0.102506       0.000000
  --------------------------------------------------------
  Sum of atomic charges =    -0.000000
  Sum of spin   charges =     0.000000

 -----------------------------------------------------------------
                    Cartesian Multipole Moments
 -----------------------------------------------------------------
    Charge (ESU x 10^10)
                -0.0000
    Dipole Moment (Debye)
         X      -1.7189      Y      -2.5287      Z      -0.8459
       Tot       3.1725
    Quadrupole Moments (Debye-Ang)
        XX     -27.4105     XY      -3.0090     YY     -24.8171
        XZ      -1.2080     YZ      -0.0723     ZZ     -24.0758
    Octopole Moments (Debye-Ang^2)
       XXX       6.7480    XXY      -3.9695    XYY       3.5386
       YYY      -0.1857    XXZ      -0.2886    XYZ      -0.3758
       YYZ       0.2842    XZZ       3.9373    YZZ      -0.0263
       ZZZ      -0.2159
    Hexadecapole Moments (Debye-Ang^3)
      XXXX    -254.1878   XXXY      -3.2715   XXYY     -60.7664
      XYYY       1.2704   YYYY    -111.3367   XXXZ      -4.7457
      XXYZ      -0.7578   XYYZ      -0.2865   YYYZ      -0.4916
      XXZZ     -50.5372   XYZZ       0.4613   YYZZ     -28.7747
      XZZZ      -2.5433   YZZZ      -1.7577   ZZZZ     -50.6739
 -----------------------------------------------------------------
 Calculating analytic gradient of the SCF energy
 Gradient of SCF Energy
            1           2           3           4           5           6
    1   0.0359706  -0.0028937  -0.0296084   0.0004624   0.0002130  -0.0007062
    2   0.0696756  -0.0041525  -0.0606176  -0.0002800   0.0002184   0.0004997
    3   0.0280351  -0.0013323  -0.0250820   0.0001541   0.0000237   0.0005411
            7           8           9          10          11
    1  -0.0015898  -0.0014513   0.0000279  -0.0004339   0.0000095
    2  -0.0027366  -0.0030357   0.0000985   0.0003273   0.0000030
    3  -0.0013016  -0.0010095   0.0000461  -0.0000628  -0.0000118
 Max gradient component =       6.968E-02
 RMS gradient           =       1.920E-02
 Gradient time:  CPU 7.44 s  wall 0.64 s
 Geometry Optimization Parameters
   NAtoms,    NIC,     NZ,  NCons,   NDum,   NFix, NCnnct, MaxDiis
       11      68       0       1       0       0       0       0

 Cartesian Hessian Update
 Hessian Updated using BFGS Update


** CONSTRAINED OPTIMIZATION IN DELOCALIZED INTERNAL COORDINATES **
   Searching for a Minimum

   Optimization Cycle:   2

                       Coordinates (Angstroms)
     ATOM                X               Y               Z
      1  F         1.4766891695    0.8678499428    0.2765625786
      2  C        -0.6614719245   -0.6594295196    0.2649548959
      3  C         0.7107252691   -0.6399274954   -0.3306044993
      4  C        -1.5114189279    0.5454148661   -0.1433483055
      5  H        -0.5686985739   -0.7145586895    1.3546720239
      6  H        -1.1377501460   -1.5991993383   -0.0552561067
      7  H         1.3999604144   -1.4026614813    0.0250966545
      8  H         0.7588455523   -0.4944860632   -1.4086605837
      9  H        -2.4891533015    0.5212125212    0.3459062248
     10  H        -0.9945508769    1.4640679636    0.1402066042
     11  H        -1.6762776545    0.5669172936   -1.2263264868
   Point Group: c1    Number of degrees of freedom:    27


   Energy is   -218.336356794

              Constraints and their Current Values
                                        Value     Constraint
   Distance(Angs):        1   3             1.796871     1.800000
 Hessian Updated using BFGS Update

   Using Lagrange Multiplier Algorithm


 25 Hessian modes will be used to form the next step
  Hessian Eigenvalues:
    -0.984029    0.045000    0.045017    0.067996    0.078028    0.082830
     0.084198    0.086913    0.092813    0.105239    0.133590    0.160000
     0.168270    0.219417    0.227169    0.294275    0.335060    0.337176
     0.341683    0.342379    0.344018    0.346340    0.349716    0.351144
     1.017707

 Minimum Search - Taking P-RFO Step
 Searching for Lamda that Maximizes Along the Constraint modes Only
 Value Taken    Lamda =   0.00012846
 Searching for Lamda that Minimizes Along All other modes
 Value Taken    Lamda =  -0.00071194
 Step Taken.  Stepsize is  0.051737

                             Maximum     Tolerance    Cnvgd?
         Gradient            0.021826       0.000300      NO
         Displacement        0.040177       0.001200      NO
         Energy change      0.014787       0.000001      NO


 New Cartesian Coordinates Obtained by Inverse Iteration

 Displacement from previous Coordinates is:  0.047175
 ----------------------------------------------------------------
             Standard Nuclear Orientation (Angstroms)
    I     Atom           X                Y                Z
 ----------------------------------------------------------------
    1      F       1.4600570299     0.8670757045     0.2773378817
    2      C      -0.6622895046    -0.6607266896     0.2651812166
    3      C       0.7048038531    -0.6481960332    -0.3338295047
    4      C      -1.5092354220     0.5459958039    -0.1435653316
    5      H      -0.5678386045    -0.7146984038     1.3547892067
    6      H      -1.1384585672    -1.6013659173    -0.0536804313
    7      H       1.4057738348    -1.3973307548     0.0261138426
    8      H       0.7619220955    -0.4900730862    -1.4090531670
    9      H      -2.4861238344     0.5262026197     0.3475933015
   10      H      -0.9858409754     1.4613100238     0.1385843026
   11      H      -1.6758709053     0.5670067330    -1.2262683170
 ----------------------------------------------------------------
 Nuclear Repulsion Energy =   123.8636437575 hartrees
 There are       17 alpha and       17 beta electrons

                       Distance Matrix (Angstroms)
             F (  1)   C (  2)   C (  3)   C (  4)   H (  5)   H (  6)
   C (  2)  2.615088
   C (  3)  1.799995  1.492620
   C (  4)  3.016115  1.529892  2.522749
   H (  5)  2.788417  1.095025  2.115532  2.172704
   H (  6)  3.599314  1.101459  2.093951  2.180990  1.759424
   H (  7)  2.278946  2.208308  1.087254  3.507505  2.475179  2.553648
   H (  8)  2.274458  2.204668  1.088288  2.798759  3.075312  2.585238
   H (  9)  3.961499  2.177605  3.467790  1.093590  2.496817  2.550249
   H ( 10)  2.520870  2.150291  2.744352  1.091490  2.527626  3.072498
   H ( 11)  3.490690  2.181536  2.817938  1.095653  3.087452  2.523017
             H (  7)   H (  8)   H (  9)   H ( 10)
   H (  8)  1.815865
   H (  9)  4.353182  3.829938
   H ( 10)  3.728847  3.042656  1.780157
   H ( 11)  3.863110  2.663393  1.770654  1.771650
 
 Applying Cartesian multipole field
    Component          Value
    ---------          -----
     (2,0,0)        1.00000E-11
     (0,2,0)        2.00000E-11
     (0,0,2)       -3.00000E-10
 Nucleus-field energy     =    -0.0000000045 hartrees
 Requested basis set is 6-31G(d,p)
 There are 37 shells and 95 basis functions
 A cutoff of  1.0D-14 yielded    692 shell pairs
 There are      4649 function pairs
 Smallest overlap matrix eigenvalue = 5.58E-03
 Guess from superposition of atomic densities
 Warning:  Energy on first SCF cycle will be non-variational
 SAD guess density has 34.000000 electrons

 -----------------------------------------------------------------------
  General SCF calculation program by
  Eric Jon Sundstrom, Paul Horn, Yuezhi Mao, Dmitri Zuev, Alec White,
  David Stuck, Shaama M.S., Shane Yost, Joonho Lee, David Small,
  Daniel Levine, Susi Lehtola, Hugh Burton, Evgeny Epifanovsky
 -----------------------------------------------------------------------
 Exchange:     0.2000 Hartree-Fock + 0.0800 Slater + 0.7200 B88
 Correlation:  0.1900 VWN1RPA + 0.8100 LYP
 Using SG-1 standard quadrature grid
 using 12 threads for integral computing
 -------------------------------------------------------
 OpenMP Integral computing Module                
 Release: version 1.0, May 2013, Q-Chem Inc. Pittsburgh 
 -------------------------------------------------------
 -------------------------------------------------------
 OpenMP BLAS3 based DFT computing Module                
 Release: version 1.0, May 2013, Q-Chem Inc. Pittsburgh 
 -------------------------------------------------------
 A unrestricted SCF calculation will be
 performed using DIIS
 SCF converges when DIIS error is below 1.0e-06
 Alpha HF Exchange    Energy =  -2.78968802573857
 Beta HF Exchange     Energy =  -2.78968802573857
 DFT Correlation      Energy =  -1.43772983861282
 DFT Exchange         Energy = -21.84226370280739
 One-Electron (alpha) Energy = -269.94585497103270
 One-Electron (beta)  Energy = -269.94585497103270
 Total Coulomb        Energy = 226.39033948959784
 ---------------------------------------
  Cycle       Energy         DIIS error
 ---------------------------------------
    1    -218.4970962924      2.99e-02  
 Alpha HF Exchange    Energy =  -2.84056622140266
 Beta HF Exchange     Energy =  -2.84056622140266
 DFT Correlation      Energy =  -1.46694947523713
 DFT Exchange         Energy = -22.55733658215394
 One-Electron (alpha) Energy = -273.62667885051286
 One-Electron (beta)  Energy = -273.62667885051297
 Total Coulomb        Energy = 234.85877534037218
    2    -218.2363571079      4.86e-03  
 Alpha HF Exchange    Energy =  -2.74657032168096
 Beta HF Exchange     Energy =  -2.74657032168096
 DFT Correlation      Energy =  -1.43855162075928
 DFT Exchange         Energy = -21.83112730474253
 One-Electron (alpha) Energy = -269.52549498144850
 One-Electron (beta)  Energy = -269.52549498144845
 Total Coulomb        Energy = 225.85972892287162
    3    -218.0904368559      8.33e-03  
 Alpha HF Exchange    Energy =  -2.79951862319271
 Beta HF Exchange     Energy =  -2.79951862319271
 DFT Correlation      Energy =  -1.45151105167441
 DFT Exchange         Energy = -22.22786295276212
 One-Electron (alpha) Energy = -271.58240199222649
 One-Electron (beta)  Energy = -271.58240199222661
 Total Coulomb        Energy = 230.25725791846793
    4    -218.3223135638      1.81e-03  
 Alpha HF Exchange    Energy =  -2.79885271734748
 Beta HF Exchange     Energy =  -2.79885271734749
 DFT Correlation      Energy =  -1.45400260766612
 DFT Exchange         Energy = -22.23467575335922
 One-Electron (alpha) Energy = -271.85885841211871
 One-Electron (beta)  Energy = -271.85885841211882
 Total Coulomb        Energy = 230.80468498270858
    5    -218.3357718843      3.07e-04  
 Alpha HF Exchange    Energy =  -2.79947468848267
 Beta HF Exchange     Energy =  -2.79947468848267
 DFT Correlation      Energy =  -1.45385197794753
 DFT Exchange         Energy = -22.23858971511956
 One-Electron (alpha) Energy = -271.84003769188530
 One-Electron (beta)  Energy = -271.84003769188547
 Total Coulomb        Energy = 230.77173547890513
    6    -218.3360872219      7.73e-05  
 Alpha HF Exchange    Energy =  -2.79944110798900
 Beta HF Exchange     Energy =  -2.79944110798900
 DFT Correlation      Energy =  -1.45381619653380
 DFT Exchange         Energy = -22.23795948200772
 One-Electron (alpha) Energy = -271.83618520318163
 One-Electron (beta)  Energy = -271.83618520318163
 Total Coulomb        Energy = 230.76327199172439
    7    -218.3361125562      1.89e-05  
 Alpha HF Exchange    Energy =  -2.79950652185186
 Beta HF Exchange     Energy =  -2.79950652185186
 DFT Correlation      Energy =  -1.45383772712587
 DFT Exchange         Energy = -22.23849025939286
 One-Electron (alpha) Energy = -271.84013998116455
 One-Electron (beta)  Energy = -271.84013998116450
 Total Coulomb        Energy = 230.77186332055848
    8    -218.3361139190      2.22e-06  
 Alpha HF Exchange    Energy =  -2.79951444419390
 Beta HF Exchange     Energy =  -2.79951444419390
 DFT Correlation      Energy =  -1.45383871908037
 DFT Exchange         Energy = -22.23854154638097
 One-Electron (alpha) Energy = -271.84024249459122
 One-Electron (beta)  Energy = -271.84024249459111
 Total Coulomb        Energy = 230.77213645127230
    9    -218.3361139388      4.48e-07  Convergence criterion met
 ---------------------------------------
 SCF time:   CPU 18.62s  wall 2.00s 
<S^2> =         -0.000000000
 Alpha HF Exchange    Energy =  -2.79951444419390
 Beta HF Exchange     Energy =  -2.79951444419390
 DFT Correlation      Energy =  -1.45383871908037
 DFT Exchange         Energy = -22.23854154638097
 One-Electron (alpha) Energy = -271.84024249459122
 One-Electron (beta)  Energy = -271.84024249459111
 Total Coulomb        Energy = 230.77213645127230
 Nuclear repulsion Energy = 123.86364375297818
 SCF   energy in the final basis set =     -218.3361139388
 Total energy in the final basis set =     -218.3361139388
 
 --------------------------------------------------------------
 
                    Orbital Energies (a.u.)
 --------------------------------------------------------------
 
 Alpha MOs
 -- Occupied --
-24.610 -10.275 -10.206 -10.181  -1.049  -0.804  -0.694  -0.600
 -0.481  -0.464  -0.429  -0.380  -0.369  -0.360  -0.341  -0.303
 -0.302
 -- Virtual --
 -0.021   0.090   0.128   0.134   0.146   0.164   0.178   0.195
  0.218   0.253   0.491   0.503   0.526   0.544   0.561   0.639
  0.660   0.695   0.777   0.804   0.837   0.859   0.880   0.897
  0.906   0.935   0.981   1.124   1.232   1.246   1.319   1.371
  1.417   1.505   1.515   1.632   1.657   1.716   1.757   1.816
  1.854   1.911   1.925   1.942   1.983   2.033   2.046   2.074
  2.095   2.113   2.129   2.206   2.254   2.294   2.376   2.399
  2.442   2.534   2.614   2.634   2.659   2.696   2.774   2.802
  2.878   2.884   2.925   3.185   3.248   3.286   3.389   3.434
  3.492   3.536   3.834   4.298   4.454   4.618
 
 Beta MOs
 -- Occupied --
-24.610 -10.275 -10.206 -10.181  -1.049  -0.804  -0.694  -0.600
 -0.481  -0.464  -0.429  -0.380  -0.369  -0.360  -0.341  -0.303
 -0.302
 -- Virtual --
 -0.021   0.090   0.128   0.134   0.146   0.164   0.178   0.195
  0.218   0.253   0.491   0.503   0.526   0.544   0.561   0.639
  0.660   0.695   0.777   0.804   0.837   0.859   0.880   0.897
  0.906   0.935   0.981   1.124   1.232   1.246   1.319   1.371
  1.417   1.505   1.515   1.632   1.657   1.716   1.757   1.816
  1.854   1.911   1.925   1.942   1.983   2.033   2.046   2.074
  2.095   2.113   2.129   2.206   2.254   2.294   2.376   2.399
  2.442   2.534   2.614   2.634   2.659   2.696   2.774   2.802
  2.878   2.884   2.925   3.185   3.248   3.286   3.389   3.434
  3.492   3.536   3.834   4.298   4.454   4.618
 --------------------------------------------------------------
 
          Ground-State Mulliken Net Atomic Charges

     Atom                 Charge (a.u.)    Spin (a.u.)
  --------------------------------------------------------
      1 F                    -0.386276      -0.000000
      2 C                    -0.202322       0.000000
      3 C                     0.036465       0.000000
      4 C                    -0.320192      -0.000000
      5 H                     0.132572       0.000000
      6 H                     0.110292       0.000000
      7 H                     0.137180       0.000000
      8 H                     0.137688      -0.000000
      9 H                     0.105264       0.000000
     10 H                     0.146989       0.000000
     11 H                     0.102340       0.000000
  --------------------------------------------------------
  Sum of atomic charges =    -0.000000
  Sum of spin   charges =     0.000000

 -----------------------------------------------------------------
                    Cartesian Multipole Moments
 -----------------------------------------------------------------
    Charge (ESU x 10^10)
                -0.0000
    Dipole Moment (Debye)
         X      -1.6964      Y      -2.5460      Z      -0.8544
       Tot       3.1765
    Quadrupole Moments (Debye-Ang)
        XX     -27.3409     XY      -3.0264     YY     -24.8242
        XZ      -1.2224     YZ      -0.0816     ZZ     -24.0522
    Octopole Moments (Debye-Ang^2)
       XXX       7.2146    XXY      -3.9126    XYY       3.6527
       YYY      -0.0722    XXZ      -0.2811    XYZ      -0.3813
       YYZ       0.2933    XZZ       4.0398    YZZ       0.0121
       ZZZ      -0.1959
    Hexadecapole Moments (Debye-Ang^3)
      XXXX    -251.9186   XXXY      -3.1454   XXYY     -60.4846
      XYYY       1.4584   YYYY    -111.6921   XXXZ      -4.6791
      XXYZ      -0.7805   XYYZ      -0.2616   YYYZ      -0.5455
      XXZZ     -50.1845   XYZZ       0.5196   YYZZ     -28.8371
      XZZZ      -2.5246   YZZZ      -1.8311   ZZZZ     -50.6821
 -----------------------------------------------------------------
 Calculating analytic gradient of the SCF energy
 Gradient of SCF Energy
            1           2           3           4           5           6
    1   0.0344784  -0.0015642  -0.0315824   0.0003319   0.0000236   0.0000326
    2   0.0687711  -0.0022706  -0.0636113  -0.0002207   0.0002455   0.0003263
    3   0.0277606  -0.0007854  -0.0258162   0.0001577   0.0001267   0.0002432
            7           8           9          10          11
    1  -0.0008376  -0.0005963  -0.0000292  -0.0002476  -0.0000090
    2  -0.0016707  -0.0019649   0.0001040   0.0002771   0.0000141
    3  -0.0010870  -0.0006055   0.0000273  -0.0000019  -0.0000195
 Max gradient component =       6.877E-02
 RMS gradient           =       1.940E-02
 Gradient time:  CPU 7.53 s  wall 0.66 s
 Geometry Optimization Parameters
   NAtoms,    NIC,     NZ,  NCons,   NDum,   NFix, NCnnct, MaxDiis
       11      68       0       1       0       0       0       0

 Cartesian Hessian Update
 Hessian Updated using BFGS Update


** CONSTRAINED OPTIMIZATION IN DELOCALIZED INTERNAL COORDINATES **
   Searching for a Minimum

   Optimization Cycle:   3

                       Coordinates (Angstroms)
     ATOM                X               Y               Z
      1  F         1.4600570299    0.8670757045    0.2773378817
      2  C        -0.6622895046   -0.6607266896    0.2651812166
      3  C         0.7048038531   -0.6481960332   -0.3338295047
      4  C        -1.5092354220    0.5459958039   -0.1435653316
      5  H        -0.5678386045   -0.7146984038    1.3547892067
      6  H        -1.1384585672   -1.6013659173   -0.0536804313
      7  H         1.4057738348   -1.3973307548    0.0261138426
      8  H         0.7619220955   -0.4900730862   -1.4090531670
      9  H        -2.4861238344    0.5262026197    0.3475933015
     10  H        -0.9858409754    1.4613100238    0.1385843026
     11  H        -1.6758709053    0.5670067330   -1.2262683170
   Point Group: c1    Number of degrees of freedom:    27


   Energy is   -218.336113939

              Constraints and their Current Values
                                        Value     Constraint
   Distance(Angs):        1   3             1.799995     1.800000
 Hessian Updated using BFGS Update

   Using Lagrange Multiplier Algorithm


 26 Hessian modes will be used to form the next step
  Hessian Eigenvalues:
    -0.979933    0.043831    0.045001    0.047111    0.068172    0.078131
     0.082845    0.084204    0.087100    0.104896    0.136086    0.158896
     0.160000    0.165140    0.219198    0.225038    0.294270    0.327517
     0.336363    0.341685    0.342546    0.344052    0.346430    0.349231
     0.350531    1.022327

 Minimum Search - Taking P-RFO Step
 Searching for Lamda that Maximizes Along the Constraint modes Only
 Value Taken    Lamda =   0.00000000
 Searching for Lamda that Minimizes Along All other modes
 Value Taken    Lamda =  -0.00022235
 Step Taken.  Stepsize is  0.067942

                             Maximum     Tolerance    Cnvgd?
         Gradient            0.002343       0.000300      NO
         Displacement        0.054077       0.001200      NO
         Energy change      0.000243       0.000001      NO


 New Cartesian Coordinates Obtained by Inverse Iteration

 Displacement from previous Coordinates is:  0.063197
 ----------------------------------------------------------------
             Standard Nuclear Orientation (Angstroms)
    I     Atom           X                Y                Z
 ----------------------------------------------------------------
    1      F       1.4407378271     0.8633623504     0.2772035486
    2      C      -0.6634547697    -0.6629771606     0.2650142773
    3      C       0.6987706633    -0.6569946610    -0.3376122688
    4      C      -1.5062937424     0.5460548250    -0.1444809065
    5      H      -0.5649064790    -0.7168826748     1.3539077249
    6      H      -1.1448689027    -1.6031857607    -0.0509898936
    7      H       1.4133059716    -1.3882089628     0.0305105241
    8      H       0.7644978605    -0.4800265436    -1.4087014027
    9      H      -2.4813371303     0.5319709798     0.3502536818
   10      H      -0.9735555360     1.4564509620     0.1347535627
   11      H      -1.6759967623     0.5656366462    -1.2266558479
 ----------------------------------------------------------------
 Nuclear Repulsion Energy =   124.1272559812 hartrees
 There are       17 alpha and       17 beta electrons

                       Distance Matrix (Angstroms)
             F (  1)   C (  2)   C (  3)   C (  4)   H (  5)   H (  6)
   C (  2)  2.599517
   C (  3)  1.800000  1.489581
   C (  4)  2.993910  1.529648  2.519313
   H (  5)  2.771114  1.094672  2.112275  2.174026
   H (  6)  3.588444  1.102547  2.091994  2.181422  1.759439
   H (  7)  2.265212  2.212213  1.086623  3.506574  2.472930  2.568485
   H (  8)  2.259263  2.207678  1.087598  2.794207  3.074968  2.598182
   H (  9)  3.936728  2.177123  3.464085  1.093467  2.497932  2.550694
   H ( 10)  2.490152  2.145951  2.736139  1.091148  2.525215  3.070053
   H ( 11)  3.473366  2.181700  2.815093  1.095575  3.088476  2.523505
             H (  7)   H (  8)   H (  9)   H ( 10)
   H (  8)  1.821285
   H (  9)  4.354029  3.827990
   H ( 10)  3.714844  3.025397  1.781715
   H ( 11)  3.865459  2.661309  1.770974  1.772120
 
 Applying Cartesian multipole field
    Component          Value
    ---------          -----
     (2,0,0)        1.00000E-11
     (0,2,0)        2.00000E-11
     (0,0,2)       -3.00000E-10
 Nucleus-field energy     =    -0.0000000045 hartrees
 Requested basis set is 6-31G(d,p)
 There are 37 shells and 95 basis functions
 A cutoff of  1.0D-14 yielded    692 shell pairs
 There are      4649 function pairs
 Smallest overlap matrix eigenvalue = 5.55E-03
 Guess from superposition of atomic densities
 Warning:  Energy on first SCF cycle will be non-variational
 SAD guess density has 34.000000 electrons

 -----------------------------------------------------------------------
  General SCF calculation program by
  Eric Jon Sundstrom, Paul Horn, Yuezhi Mao, Dmitri Zuev, Alec White,
  David Stuck, Shaama M.S., Shane Yost, Joonho Lee, David Small,
  Daniel Levine, Susi Lehtola, Hugh Burton, Evgeny Epifanovsky
 -----------------------------------------------------------------------
 Exchange:     0.2000 Hartree-Fock + 0.0800 Slater + 0.7200 B88
 Correlation:  0.1900 VWN1RPA + 0.8100 LYP
 Using SG-1 standard quadrature grid
 using 12 threads for integral computing
 -------------------------------------------------------
 OpenMP Integral computing Module                
 Release: version 1.0, May 2013, Q-Chem Inc. Pittsburgh 
 -------------------------------------------------------
 -------------------------------------------------------
 OpenMP BLAS3 based DFT computing Module                
 Release: version 1.0, May 2013, Q-Chem Inc. Pittsburgh 
 -------------------------------------------------------
 A unrestricted SCF calculation will be
 performed using DIIS
 SCF converges when DIIS error is below 1.0e-06
 Alpha HF Exchange    Energy =  -2.79020023481275
 Beta HF Exchange     Energy =  -2.79020023481275
 DFT Correlation      Energy =  -1.43797040123784
 DFT Exchange         Energy = -21.84330367267435
 One-Electron (alpha) Energy = -270.20732987657118
 One-Electron (beta)  Energy = -270.20732987657118
 Total Coulomb        Energy = 226.64736389682858
 ---------------------------------------
  Cycle       Energy         DIIS error
 ---------------------------------------
    1    -218.5017144231      3.00e-02  
 Alpha HF Exchange    Energy =  -2.84106647470693
 Beta HF Exchange     Energy =  -2.84106647470693
 DFT Correlation      Energy =  -1.46724087365001
 DFT Exchange         Energy = -22.56079380785270
 One-Electron (alpha) Energy = -273.90625130904368
 One-Electron (beta)  Energy = -273.90625130904363
 Total Coulomb        Energy = 235.15956184402597
    2    -218.2358524283      4.88e-03  
 Alpha HF Exchange    Energy =  -2.74651619820107
 Beta HF Exchange     Energy =  -2.74651619820107
 DFT Correlation      Energy =  -1.43875875642186
 DFT Exchange         Energy = -21.83078060945810
 One-Electron (alpha) Energy = -269.77377917880187
 One-Electron (beta)  Energy = -269.77377917880176
 Total Coulomb        Energy = 226.09608160620547
    3    -218.0867925370      8.40e-03  
 Alpha HF Exchange    Energy =  -2.79981217146909
 Beta HF Exchange     Energy =  -2.79981217146909
 DFT Correlation      Energy =  -1.45175114635276
 DFT Exchange         Energy = -22.22978013232337
 One-Electron (alpha) Energy = -271.84905829945814
 One-Electron (beta)  Energy = -271.84905829945814
 Total Coulomb        Energy = 230.52976689227899
    4    -218.3222493515      1.82e-03  
 Alpha HF Exchange    Energy =  -2.79916891457903
 Beta HF Exchange     Energy =  -2.79916891457903
 DFT Correlation      Energy =  -1.45426968365194
 DFT Exchange         Energy = -22.23690149962616
 One-Electron (alpha) Energy = -272.12812851186919
 One-Electron (beta)  Energy = -272.12812851186919
 Total Coulomb        Energy = 231.08262151735516
    5    -218.3358885421      3.07e-04  
 Alpha HF Exchange    Energy =  -2.79978464056634
 Beta HF Exchange     Energy =  -2.79978464056635
 DFT Correlation      Energy =  -1.45411635852497
 DFT Exchange         Energy = -22.24077248154691
 One-Electron (alpha) Energy = -272.10896575778031
 One-Electron (beta)  Energy = -272.10896575778042
 Total Coulomb        Energy = 231.04893006219348
    6    -218.3362035978      7.81e-05  
 Alpha HF Exchange    Energy =  -2.79975171667023
 Beta HF Exchange     Energy =  -2.79975171667023
 DFT Correlation      Energy =  -1.45408063850037
 DFT Exchange         Energy = -22.24014220046895
 One-Electron (alpha) Energy = -272.10519932854663
 One-Electron (beta)  Energy = -272.10519932854675
 Total Coulomb        Energy = 231.04063945792407
    7    -218.3362294948      1.90e-05  
 Alpha HF Exchange    Energy =  -2.79981732045333
 Beta HF Exchange     Energy =  -2.79981732045333
 DFT Correlation      Energy =  -1.45410203053434
 DFT Exchange         Energy = -22.24067320932427
 One-Electron (alpha) Energy = -272.10914308204832
 One-Electron (beta)  Energy = -272.10914308204872
 Total Coulomb        Energy = 231.04920920841641
    8    -218.3362308597      2.27e-06  
 Alpha HF Exchange    Energy =  -2.79982558260560
 Beta HF Exchange     Energy =  -2.79982558260560
 DFT Correlation      Energy =  -1.45410306913880
 DFT Exchange         Energy = -22.24072680698737
 One-Electron (alpha) Energy = -272.10925320482153
 One-Electron (beta)  Energy = -272.10925320482175
 Total Coulomb        Energy = 231.04950059395318
    9    -218.3362308803      4.44e-07  Convergence criterion met
 ---------------------------------------
 SCF time:   CPU 20.29s  wall 2.00s 
<S^2> =          0.000000000
 Alpha HF Exchange    Energy =  -2.79982558260560
 Beta HF Exchange     Energy =  -2.79982558260560
 DFT Correlation      Energy =  -1.45410306913880
 DFT Exchange         Energy = -22.24072680698737
 One-Electron (alpha) Energy = -272.10925320482153
 One-Electron (beta)  Energy = -272.10925320482175
 Total Coulomb        Energy = 231.04950059395318
 Nuclear repulsion Energy = 124.12725597672306
 SCF   energy in the final basis set =     -218.3362308803
 Total energy in the final basis set =     -218.3362308803
 
 --------------------------------------------------------------
 
                    Orbital Energies (a.u.)
 --------------------------------------------------------------
 
 Alpha MOs
 -- Occupied --
-24.609 -10.274 -10.206 -10.181  -1.048  -0.804  -0.693  -0.600
 -0.482  -0.464  -0.430  -0.380  -0.370  -0.360  -0.339  -0.302
 -0.301
 -- Virtual --
 -0.021   0.090   0.128   0.133   0.146   0.165   0.178   0.196
  0.219   0.254   0.490   0.504   0.525   0.545   0.561   0.641
  0.659   0.696   0.779   0.805   0.837   0.860   0.880   0.896
  0.908   0.936   0.982   1.125   1.230   1.247   1.322   1.373
  1.421   1.502   1.516   1.637   1.657   1.718   1.758   1.815
  1.856   1.911   1.924   1.943   1.988   2.034   2.046   2.074
  2.096   2.114   2.130   2.205   2.256   2.296   2.377   2.401
  2.443   2.533   2.619   2.633   2.662   2.698   2.773   2.803
  2.879   2.884   2.928   3.187   3.249   3.286   3.391   3.434
  3.494   3.537   3.837   4.303   4.456   4.620
 
 Beta MOs
 -- Occupied --
-24.609 -10.274 -10.206 -10.181  -1.048  -0.804  -0.693  -0.600
 -0.482  -0.464  -0.430  -0.380  -0.370  -0.360  -0.339  -0.302
 -0.301
 -- Virtual --
 -0.021   0.090   0.128   0.133   0.146   0.165   0.178   0.196
  0.219   0.254   0.490   0.504   0.525   0.545   0.561   0.641
  0.659   0.696   0.779   0.805   0.837   0.860   0.880   0.896
  0.908   0.936   0.982   1.125   1.230   1.247   1.322   1.373
  1.421   1.502   1.516   1.637   1.657   1.718   1.758   1.815
  1.856   1.911   1.924   1.943   1.988   2.034   2.046   2.074
  2.096   2.114   2.130   2.205   2.256   2.296   2.377   2.401
  2.443   2.533   2.619   2.633   2.662   2.698   2.773   2.803
  2.879   2.884   2.928   3.187   3.249   3.286   3.391   3.434
  3.494   3.537   3.837   4.303   4.456   4.620
 --------------------------------------------------------------
 
          Ground-State Mulliken Net Atomic Charges

     Atom                 Charge (a.u.)    Spin (a.u.)
  --------------------------------------------------------
      1 F                    -0.389193      -0.000000
      2 C                    -0.201253       0.000000
      3 C                     0.036090       0.000000
      4 C                    -0.320581      -0.000000
      5 H                     0.132853       0.000000
      6 H                     0.109493       0.000000
      7 H                     0.138456       0.000000
      8 H                     0.139050      -0.000000
      9 H                     0.105108      -0.000000
     10 H                     0.147838       0.000000
     11 H                     0.102141       0.000000
  --------------------------------------------------------
  Sum of atomic charges =     0.000000
  Sum of spin   charges =     0.000000

 -----------------------------------------------------------------
                    Cartesian Multipole Moments
 -----------------------------------------------------------------
    Charge (ESU x 10^10)
                 0.0000
    Dipole Moment (Debye)
         X      -1.6629      Y      -2.5533      Z      -0.8596
       Tot       3.1660
    Quadrupole Moments (Debye-Ang)
        XX     -27.2495     XY      -3.0223     YY     -24.8439
        XZ      -1.2235     YZ      -0.1051     ZZ     -24.0280
    Octopole Moments (Debye-Ang^2)
       XXX       7.7538    XXY      -3.8288    XYY       3.7897
       YYY       0.1341    XXZ      -0.2466    XYZ      -0.3988
       YYZ       0.3312    XZZ       4.1592    YZZ       0.0832
       ZZZ      -0.1474
    Hexadecapole Moments (Debye-Ang^3)
      XXXX    -249.2855   XXXY      -2.9510   XXYY     -60.1136
      XYYY       1.7075   YYYY    -111.9464   XXXZ      -4.5850
      XXYZ      -0.7987   XYYZ      -0.2193   YYYZ      -0.5706
      XXZZ     -49.7780   XYZZ       0.5891   YYZZ     -28.8729
      XZZZ      -2.4947   YZZZ      -1.8695   ZZZZ     -50.6811
 -----------------------------------------------------------------
 Calculating analytic gradient of the SCF energy
 Gradient of SCF Energy
            1           2           3           4           5           6
    1   0.0328651   0.0001736  -0.0332978   0.0000379   0.0000231   0.0001085
    2   0.0674504   0.0003110  -0.0671218  -0.0001557   0.0000780  -0.0001128
    3   0.0272629   0.0001068  -0.0268674  -0.0000723  -0.0000253  -0.0000798
            7           8           9          10          11
    1   0.0000079   0.0000624  -0.0000055   0.0000417  -0.0000169
    2  -0.0002382  -0.0002115   0.0000016  -0.0000522   0.0000512
    3  -0.0002820  -0.0000846   0.0000086   0.0000351  -0.0000019
 Max gradient component =       6.745E-02
 RMS gradient           =       1.962E-02
 Gradient time:  CPU 7.50 s  wall 0.66 s
 Geometry Optimization Parameters
   NAtoms,    NIC,     NZ,  NCons,   NDum,   NFix, NCnnct, MaxDiis
       11      68       0       1       0       0       0       0

 Cartesian Hessian Update
 Hessian Updated using BFGS Update


** CONSTRAINED OPTIMIZATION IN DELOCALIZED INTERNAL COORDINATES **
   Searching for a Minimum

   Optimization Cycle:   4

                       Coordinates (Angstroms)
     ATOM                X               Y               Z
      1  F         1.4407378271    0.8633623504    0.2772035486
      2  C        -0.6634547697   -0.6629771606    0.2650142773
      3  C         0.6987706633   -0.6569946610   -0.3376122688
      4  C        -1.5062937424    0.5460548250   -0.1444809065
      5  H        -0.5649064790   -0.7168826748    1.3539077249
      6  H        -1.1448689027   -1.6031857607   -0.0509898936
      7  H         1.4133059716   -1.3882089628    0.0305105241
      8  H         0.7644978605   -0.4800265436   -1.4087014027
      9  H        -2.4813371303    0.5319709798    0.3502536818
     10  H        -0.9735555360    1.4564509620    0.1347535627
     11  H        -1.6759967623    0.5656366462   -1.2266558479
   Point Group: c1    Number of degrees of freedom:    27


   Energy is   -218.336230880

              Constraints and their Current Values
                                        Value     Constraint
   Distance(Angs):        1   3             1.800000     1.800000
 Hessian Updated using BFGS Update

 25 Hessian modes will be used to form the next step
  Hessian Eigenvalues:
     0.040031    0.045001    0.046286    0.068345    0.078190    0.082883
     0.084203    0.087179    0.105098    0.136097    0.159692    0.160000
     0.160234    0.166778    0.219212    0.226893    0.294464    0.333207
     0.336572    0.341689    0.342549    0.344060    0.346430    0.349128
     0.350459

 Minimum Search - Taking Simple RFO Step
 Searching for Lamda that Minimizes Along All modes
 Value Taken    Lamda =  -0.00000361
 Step Taken.  Stepsize is  0.007917

                             Maximum     Tolerance    Cnvgd?
         Gradient           0.000300      0.000300      NO
         Displacement       0.005520      0.001200      NO
         Energy change     -0.000117      0.000001      NO


 New Cartesian Coordinates Obtained by Inverse Iteration

 Displacement from previous Coordinates is:  0.007129
 ----------------------------------------------------------------
             Standard Nuclear Orientation (Angstroms)
    I     Atom           X                Y                Z
 ----------------------------------------------------------------
    1      F       1.4401707393     0.8628329720     0.2770487403
    2      C      -0.6637034305    -0.6636210364     0.2646398929
    3      C       0.6989241537    -0.6577009854    -0.3381985170
    4      C      -1.5061914141     0.5461570540    -0.1443983548
    5      H      -0.5647283791    -0.7177549712     1.3535279585
    6      H      -1.1465647659    -1.6032026217    -0.0506998772
    7      H       1.4142467767    -1.3870199493     0.0317251493
    8      H       0.7651850528    -0.4788210683    -1.4088294795
    9      H      -2.4809336559     0.5326372941     0.3509079980
   10      H      -0.9730690481     1.4566233840     0.1339568364
   11      H      -1.6764370289     0.5650699282    -1.2264773467
 ----------------------------------------------------------------
 Nuclear Repulsion Energy =   124.1246342556 hartrees
 There are       17 alpha and       17 beta electrons

                       Distance Matrix (Angstroms)
             F (  1)   C (  2)   C (  3)   C (  4)   H (  5)   H (  6)
   C (  2)  2.599327
   C (  3)  1.800000  1.490035
   C (  4)  2.993151  1.529922  2.519795
   H (  5)  2.770683  1.094716  2.112431  2.174307
   H (  6)  3.588865  1.102455  2.093432  2.181251  1.759093
   H (  7)  2.263337  2.212562  1.086479  3.506730  2.472129  2.571242
   H (  8)  2.257837  2.208251  1.087492  2.794372  3.075122  2.600680
   H (  9)  3.935676  2.177338  3.464573  1.093450  2.498113  2.550224
   H ( 10)  2.489335  2.146677  2.736578  1.091169  2.526265  3.070299
   H ( 11)  3.473111  2.181454  2.815413  1.095553  3.088359  2.522820
             H (  7)   H (  8)   H (  9)   H ( 10)
   H (  8)  1.822445
   H (  9)  4.354238  3.828448
   H ( 10)  3.714301  3.024510  1.781705
   H ( 11)  3.866013  2.661668  1.770992  1.772110
 
 Applying Cartesian multipole field
    Component          Value
    ---------          -----
     (2,0,0)        1.00000E-11
     (0,2,0)        2.00000E-11
     (0,0,2)       -3.00000E-10
 Nucleus-field energy     =    -0.0000000045 hartrees
 Requested basis set is 6-31G(d,p)
 There are 37 shells and 95 basis functions
 A cutoff of  1.0D-14 yielded    692 shell pairs
 There are      4649 function pairs
 Smallest overlap matrix eigenvalue = 5.55E-03
 Guess from superposition of atomic densities
 Warning:  Energy on first SCF cycle will be non-variational
 SAD guess density has 34.000000 electrons

 -----------------------------------------------------------------------
  General SCF calculation program by
  Eric Jon Sundstrom, Paul Horn, Yuezhi Mao, Dmitri Zuev, Alec White,
  David Stuck, Shaama M.S., Shane Yost, Joonho Lee, David Small,
  Daniel Levine, Susi Lehtola, Hugh Burton, Evgeny Epifanovsky
 -----------------------------------------------------------------------
 Exchange:     0.2000 Hartree-Fock + 0.0800 Slater + 0.7200 B88
 Correlation:  0.1900 VWN1RPA + 0.8100 LYP
 Using SG-1 standard quadrature grid
 using 12 threads for integral computing
 -------------------------------------------------------
 OpenMP Integral computing Module                
 Release: version 1.0, May 2013, Q-Chem Inc. Pittsburgh 
 -------------------------------------------------------
 -------------------------------------------------------
 OpenMP BLAS3 based DFT computing Module                
 Release: version 1.0, May 2013, Q-Chem Inc. Pittsburgh 
 -------------------------------------------------------
 A unrestricted SCF calculation will be
 performed using DIIS
 SCF converges when DIIS error is below 1.0e-06
 Alpha HF Exchange    Energy =  -2.79013167213809
 Beta HF Exchange     Energy =  -2.79013167213809
 DFT Correlation      Energy =  -1.43796019163158
 DFT Exchange         Energy = -21.84318049523574
 One-Electron (alpha) Energy = -270.20486747717513
 One-Electron (beta)  Energy = -270.20486747717513
 Total Coulomb        Energy = 226.64545561968592
 ---------------------------------------
  Cycle       Energy         DIIS error
 ---------------------------------------
    1    -218.5010491147      3.00e-02  
 Alpha HF Exchange    Energy =  -2.84106459652312
 Beta HF Exchange     Energy =  -2.84106459652312
 DFT Correlation      Energy =  -1.46723035921298
 DFT Exchange         Energy = -22.56075497115953
 One-Electron (alpha) Energy = -273.90409927877425
 One-Electron (beta)  Energy = -273.90409927877420
 Total Coulomb        Energy = 235.15784227915364
    2    -218.2358365507      4.88e-03  
 Alpha HF Exchange    Energy =  -2.74649399583673
 Beta HF Exchange     Energy =  -2.74649399583673
 DFT Correlation      Energy =  -1.43875522081058
 DFT Exchange         Energy = -21.83063089367181
 One-Electron (alpha) Energy = -269.77175738516587
 One-Electron (beta)  Energy = -269.77175738516576
 Total Coulomb        Energy = 226.09481719787544
    3    -218.0864374275      8.40e-03  
 Alpha HF Exchange    Energy =  -2.79979704015860
 Beta HF Exchange     Energy =  -2.79979704015861
 DFT Correlation      Energy =  -1.45174082802659
 DFT Exchange         Energy = -22.22964934187020
 One-Electron (alpha) Energy = -271.84683975236879
 One-Electron (beta)  Energy = -271.84683975236896
 Total Coulomb        Energy = 230.52778986263385
    4    -218.3222396412      1.82e-03  
 Alpha HF Exchange    Energy =  -2.79915972380399
 Beta HF Exchange     Energy =  -2.79915972380399
 DFT Correlation      Energy =  -1.45426247550994
 DFT Exchange         Energy = -22.23682865836673
 One-Electron (alpha) Energy = -272.12618209812706
 One-Electron (beta)  Energy = -272.12618209812706
 Total Coulomb        Energy = 231.08124993283633
    5    -218.3358905938      3.07e-04  
 Alpha HF Exchange    Energy =  -2.79977548090818
 Beta HF Exchange     Energy =  -2.79977548090818
 DFT Correlation      Energy =  -1.45410911178924
 DFT Exchange         Energy = -22.24070065031125
 One-Electron (alpha) Energy = -272.10703776297430
 One-Electron (beta)  Energy = -272.10703776297430
 Total Coulomb        Energy = 231.04759627051033
    6    -218.3362057283      7.82e-05  
 Alpha HF Exchange    Energy =  -2.79974221367464
 Beta HF Exchange     Energy =  -2.79974221367464
 DFT Correlation      Energy =  -1.45407324247179
 DFT Exchange         Energy = -22.24006691801450
 One-Electron (alpha) Energy = -272.10324924539020
 One-Electron (beta)  Energy = -272.10324924539015
 Total Coulomb        Energy = 231.03925708411876
    7    -218.3362317434      1.90e-05  
 Alpha HF Exchange    Energy =  -2.79980790190573
 Beta HF Exchange     Energy =  -2.79980790190573
 DFT Correlation      Energy =  -1.45409464002475
 DFT Exchange         Energy = -22.24059843937939
 One-Electron (alpha) Energy = -272.10719574242762
 One-Electron (beta)  Energy = -272.10719574242762
 Total Coulomb        Energy = 231.04783300720783
    8    -218.3362331098      2.28e-06  
 Alpha HF Exchange    Energy =  -2.79981620298263
 Beta HF Exchange     Energy =  -2.79981620298263
 DFT Correlation      Energy =  -1.45409568604346
 DFT Exchange         Energy = -22.24065231984289
 One-Electron (alpha) Energy = -272.10730735077095
 One-Electron (beta)  Energy = -272.10730735077078
 Total Coulomb        Energy = 231.04812773188135
    9    -218.3362331304      4.45e-07  Convergence criterion met
 ---------------------------------------
 SCF time:   CPU 20.01s  wall 1.00s 
<S^2> =         -0.000000000
 Alpha HF Exchange    Energy =  -2.79981620298263
 Beta HF Exchange     Energy =  -2.79981620298263
 DFT Correlation      Energy =  -1.45409568604346
 DFT Exchange         Energy = -22.24065231984289
 One-Electron (alpha) Energy = -272.10730735077095
 One-Electron (beta)  Energy = -272.10730735077078
 Total Coulomb        Energy = 231.04812773188135
 Nuclear repulsion Energy = 124.12463425107364
 SCF   energy in the final basis set =     -218.3362331304
 Total energy in the final basis set =     -218.3362331304
 
 --------------------------------------------------------------
 
                    Orbital Energies (a.u.)
 --------------------------------------------------------------
 
 Alpha MOs
 -- Occupied --
-24.608 -10.274 -10.206 -10.181  -1.048  -0.804  -0.693  -0.600
 -0.482  -0.464  -0.430  -0.380  -0.370  -0.360  -0.339  -0.302
 -0.300
 -- Virtual --
 -0.021   0.090   0.128   0.133   0.146   0.165   0.178   0.196
  0.219   0.253   0.490   0.504   0.525   0.545   0.561   0.641
  0.659   0.696   0.779   0.805   0.837   0.860   0.880   0.896
  0.908   0.936   0.982   1.125   1.231   1.247   1.321   1.373
  1.421   1.501   1.516   1.637   1.658   1.718   1.758   1.815
  1.856   1.911   1.924   1.943   1.988   2.033   2.046   2.074
  2.096   2.114   2.130   2.205   2.256   2.296   2.377   2.401
  2.443   2.533   2.618   2.634   2.662   2.698   2.773   2.803
  2.879   2.884   2.928   3.187   3.249   3.286   3.392   3.434
  3.493   3.537   3.837   4.303   4.456   4.620
 
 Beta MOs
 -- Occupied --
-24.608 -10.274 -10.206 -10.181  -1.048  -0.804  -0.693  -0.600
 -0.482  -0.464  -0.430  -0.380  -0.370  -0.360  -0.339  -0.302
 -0.300
 -- Virtual --
 -0.021   0.090   0.128   0.133   0.146   0.165   0.178   0.196
  0.219   0.253   0.490   0.504   0.525   0.545   0.561   0.641
  0.659   0.696   0.779   0.805   0.837   0.860   0.880   0.896
  0.908   0.936   0.982   1.125   1.231   1.247   1.321   1.373
  1.421   1.501   1.516   1.637   1.658   1.718   1.758   1.815
  1.856   1.911   1.924   1.943   1.988   2.033   2.046   2.074
  2.096   2.114   2.130   2.205   2.256   2.296   2.377   2.401
  2.443   2.533   2.618   2.634   2.662   2.698   2.773   2.803
  2.879   2.884   2.928   3.187   3.249   3.286   3.392   3.434
  3.493   3.537   3.837   4.303   4.456   4.620
 --------------------------------------------------------------
 
          Ground-State Mulliken Net Atomic Charges

     Atom                 Charge (a.u.)    Spin (a.u.)
  --------------------------------------------------------
      1 F                    -0.389398       0.000000
      2 C                    -0.201320       0.000000
      3 C                     0.036011       0.000000
      4 C                    -0.320606      -0.000000
      5 H                     0.132819       0.000000
      6 H                     0.109533       0.000000
      7 H                     0.138644      -0.000000
      8 H                     0.139218       0.000000
      9 H                     0.105114      -0.000000
     10 H                     0.147862      -0.000000
     11 H                     0.102121       0.000000
  --------------------------------------------------------
  Sum of atomic charges =    -0.000000
  Sum of spin   charges =     0.000000

 -----------------------------------------------------------------
                    Cartesian Multipole Moments
 -----------------------------------------------------------------
    Charge (ESU x 10^10)
                -0.0000
    Dipole Moment (Debye)
         X      -1.6612      Y      -2.5531      Z      -0.8600
       Tot       3.1650
    Quadrupole Moments (Debye-Ang)
        XX     -27.2434     XY      -3.0212     YY     -24.8441
[...]
      6  H        -1.1465647659   -1.6032026217   -0.0506998772
      7  H         1.4142467767   -1.3870199493    0.0317251493
      8  H         0.7651850528   -0.4788210683   -1.4088294795
      9  H        -2.4809336559    0.5326372941    0.3509079980
     10  H        -0.9730690481    1.4566233840    0.1339568364
     11  H        -1.6764370289    0.5650699282   -1.2264773467
   Point Group: c1    Number of degrees of freedom:    27


   Energy is   -218.336233130

              Constraints and their Current Values
                                        Value     Constraint
   Distance(Angs):        1   3             1.800000     1.800000
 Hessian Updated using BFGS Update

 26 Hessian modes will be used to form the next step
  Hessian Eigenvalues:
     0.032526    0.044999    0.050552    0.066730    0.078033    0.082417
     0.084258    0.086448    0.103700    0.133441    0.154898    0.159838
     0.160000    0.160054    0.164134    0.218909    0.222614    0.295734
     0.323659    0.337588    0.341987    0.342580    0.344071    0.346566
     0.348904    0.350384

 Minimum Search - Taking Simple RFO Step
 Searching for Lamda that Minimizes Along All modes
 Value Taken    Lamda =   0.00000000
 Step Taken.  Stepsize is  0.003507

                             Maximum     Tolerance    Cnvgd?
         Gradient           0.000089      0.000300     YES
         Displacement       0.001873      0.001200      NO
         Energy change     -0.000002      0.000001      NO


 New Cartesian Coordinates Obtained by Inverse Iteration

 Displacement from previous Coordinates is:  0.003557
 ----------------------------------------------------------------
             Standard Nuclear Orientation (Angstroms)
    I     Atom           X                Y                Z
 ----------------------------------------------------------------
    1      F       1.4398306598     0.8629920733     0.2769390476
    2      C      -0.6638151531    -0.6639904464     0.2643195345
    3      C       0.6990664945    -0.6577567549    -0.3383581625
    4      C      -1.5060049349     0.5461716986    -0.1443583980
    5      H      -0.5646537505    -0.7182876111     1.3532094771
    6      H      -1.1473637172    -1.6031619466    -0.0508111717
    7      H       1.4144570295    -1.3864213105     0.0325775841
    8      H       0.7652879782    -0.4786922341    -1.4089143843
    9      H      -2.4805450971     0.5328516754     0.3513496742
   10      H      -0.9726067872     1.4565710932     0.1336309721
   11      H      -1.6767537222     0.5649237631    -1.2263811730
 ----------------------------------------------------------------
 Nuclear Repulsion Energy =   124.1253905131 hartrees
 There are       17 alpha and       17 beta electrons

                       Distance Matrix (Angstroms)
             F (  1)   C (  2)   C (  3)   C (  4)   H (  5)   H (  6)
   C (  2)  2.599454
   C (  3)  1.800000  1.490203
   C (  4)  2.992627  1.529965  2.519805
   H (  5)  2.770697  1.094743  2.112357  2.174330
   H (  6)  3.589277  1.102347  2.094225  2.181057  1.758928
   H (  7)  2.262790  2.212425  1.086429  3.506468  2.471305  2.572325
   H (  8)  2.257704  2.208253  1.087447  2.794319  3.074976  2.601368
   H (  9)  3.934956  2.177272  3.464560  1.093450  2.497942  2.549835
   H ( 10)  2.488519  2.146908  2.736357  1.091155  2.526620  3.070265
   H ( 11)  3.473027  2.181390  2.815680  1.095573  3.088314  2.522462
             H (  7)   H (  8)   H (  9)   H ( 10)
   H (  8)  1.822990
   H (  9)  4.353879  3.828470
   H ( 10)  3.713609  3.024065  1.781723
   H ( 11)  3.866304  2.661958  1.770973  1.772143
 
 Applying Cartesian multipole field
    Component          Value
    ---------          -----
     (2,0,0)        1.00000E-11
     (0,2,0)        2.00000E-11
     (0,0,2)       -3.00000E-10
 Nucleus-field energy     =    -0.0000000045 hartrees
 Requested basis set is 6-31G(d,p)
 There are 37 shells and 95 basis functions
 A cutoff of  1.0D-14 yielded    692 shell pairs
 There are      4649 function pairs
 Smallest overlap matrix eigenvalue = 5.55E-03
 Guess from superposition of atomic densities
 Warning:  Energy on first SCF cycle will be non-variational
 SAD guess density has 34.000000 electrons

 -----------------------------------------------------------------------
  General SCF calculation program by
  Eric Jon Sundstrom, Paul Horn, Yuezhi Mao, Dmitri Zuev, Alec White,
  David Stuck, Shaama M.S., Shane Yost, Joonho Lee, David Small,
  Daniel Levine, Susi Lehtola, Hugh Burton, Evgeny Epifanovsky
 -----------------------------------------------------------------------
 Exchange:     0.2000 Hartree-Fock + 0.0800 Slater + 0.7200 B88
 Correlation:  0.1900 VWN1RPA + 0.8100 LYP
 Using SG-1 standard quadrature grid
 using 12 threads for integral computing
 -------------------------------------------------------
 OpenMP Integral computing Module                
 Release: version 1.0, May 2013, Q-Chem Inc. Pittsburgh 
 -------------------------------------------------------
 -------------------------------------------------------
 OpenMP BLAS3 based DFT computing Module                
 Release: version 1.0, May 2013, Q-Chem Inc. Pittsburgh 
 -------------------------------------------------------
 A unrestricted SCF calculation will be
 performed using DIIS
 SCF converges when DIIS error is below 1.0e-06
 Alpha HF Exchange    Energy =  -2.79011833935101
 Beta HF Exchange     Energy =  -2.79011833935101
 DFT Correlation      Energy =  -1.43795958189715
 DFT Exchange         Energy = -21.84315709311015
 One-Electron (alpha) Energy = -270.20563353625499
 One-Electron (beta)  Energy = -270.20563353625499
 Total Coulomb        Energy = 226.64633109677655
 ---------------------------------------
  Cycle       Energy         DIIS error
 ---------------------------------------
    1    -218.5008988208      3.00e-02  
 Alpha HF Exchange    Energy =  -2.84106321136692
 Beta HF Exchange     Energy =  -2.84106321136692
 DFT Correlation      Energy =  -1.46722884077306
 DFT Exchange         Energy = -22.56074054001652
 One-Electron (alpha) Energy = -273.90480528977508
 One-Electron (beta)  Energy = -273.90480528977531
 Total Coulomb        Energy = 235.15847509833389
    2    -218.2358407761      4.88e-03  
 Alpha HF Exchange    Energy =  -2.74649739508205
 Beta HF Exchange     Energy =  -2.74649739508205
 DFT Correlation      Energy =  -1.43875768362165
 DFT Exchange         Energy = -21.83065832983339
 One-Electron (alpha) Energy = -269.77289448051420
 One-Electron (beta)  Energy = -269.77289448051414
 Total Coulomb        Energy = 226.09636730413774
    3    -218.0864419519      8.40e-03  
 Alpha HF Exchange    Energy =  -2.79979695592708
 Beta HF Exchange     Energy =  -2.79979695592708
 DFT Correlation      Energy =  -1.45174078156613
 DFT Exchange         Energy = -22.22964537295118
 One-Electron (alpha) Energy = -271.84774058675436
 One-Electron (beta)  Energy = -271.84774058675441
 Total Coulomb        Energy = 230.52883250430227
    4    -218.3222382269      1.82e-03  
 Alpha HF Exchange    Energy =  -2.79915896184767
 Beta HF Exchange     Energy =  -2.79915896184767
 DFT Correlation      Energy =  -1.45426225411859
 DFT Exchange         Energy = -22.23682062800028
 One-Electron (alpha) Energy = -272.12702381661745
 One-Electron (beta)  Energy = -272.12702381661757
 Total Coulomb        Energy = 231.08216696458706
    5    -218.3358909658      3.07e-04  
 Alpha HF Exchange    Energy =  -2.79977500110914
 Beta HF Exchange     Energy =  -2.79977500110914
 DFT Correlation      Energy =  -1.45410903575109
 DFT Exchange         Energy = -22.24069517427389
 One-Electron (alpha) Energy = -272.10790575348511
 One-Electron (beta)  Energy = -272.10790575348528
 Total Coulomb        Energy = 231.04856913679626
    6    -218.3362060738      7.83e-05  
 Alpha HF Exchange    Energy =  -2.79974155508459
 Beta HF Exchange     Energy =  -2.79974155508459
 DFT Correlation      Energy =  -1.45407308922239
 DFT Exchange         Energy = -22.24005988805700
 One-Electron (alpha) Energy = -272.10410463691903
 One-Electron (beta)  Energy = -272.10410463691909
 Total Coulomb        Energy = 231.04020274537089
    7    -218.3362321073      1.90e-05  
 Alpha HF Exchange    Energy =  -2.79980725948691
 Beta HF Exchange     Energy =  -2.79980725948691
 DFT Correlation      Energy =  -1.45409449394124
 DFT Exchange         Energy = -22.24059155057884
 One-Electron (alpha) Energy = -272.10805286656563
 One-Electron (beta)  Energy = -272.10805286656563
 Total Coulomb        Energy = 231.04878231426136
    8    -218.3362334737      2.28e-06  
 Alpha HF Exchange    Energy =  -2.79981555926265
 Beta HF Exchange     Energy =  -2.79981555926265
 DFT Correlation      Energy =  -1.45409553940369
 DFT Exchange         Energy = -22.24064542230841
 One-Electron (alpha) Energy = -272.10816443302861
 One-Electron (beta)  Energy = -272.10816443302838
 Total Coulomb        Energy = 231.04907694328421
    9    -218.3362334944      4.45e-07  Convergence criterion met
 ---------------------------------------
 SCF time:   CPU 23.79s  wall 3.00s 
<S^2> =          0.000000000
 Alpha HF Exchange    Energy =  -2.79981555926265
 Beta HF Exchange     Energy =  -2.79981555926265
 DFT Correlation      Energy =  -1.45409553940369
 DFT Exchange         Energy = -22.24064542230841
 One-Electron (alpha) Energy = -272.10816443302861
 One-Electron (beta)  Energy = -272.10816443302838
 Total Coulomb        Energy = 231.04907694328421
 Nuclear repulsion Energy = 124.12539050863799
 SCF   energy in the final basis set =     -218.3362334944
 Total energy in the final basis set =     -218.3362334944
 
 --------------------------------------------------------------
 
                    Orbital Energies (a.u.)
 --------------------------------------------------------------
 
 Alpha MOs
 -- Occupied --
-24.608 -10.274 -10.206 -10.181  -1.048  -0.804  -0.693  -0.600
 -0.482  -0.464  -0.430  -0.380  -0.369  -0.360  -0.339  -0.302
 -0.300
 -- Virtual --
 -0.021   0.090   0.128   0.133   0.146   0.165   0.178   0.196
  0.219   0.253   0.490   0.504   0.525   0.545   0.561   0.640
  0.659   0.696   0.779   0.805   0.837   0.860   0.880   0.896
  0.908   0.936   0.982   1.125   1.231   1.247   1.321   1.373
  1.421   1.501   1.517   1.637   1.658   1.718   1.758   1.815
  1.856   1.910   1.924   1.943   1.988   2.033   2.046   2.074
  2.096   2.114   2.130   2.205   2.256   2.296   2.377   2.402
  2.443   2.533   2.618   2.634   2.662   2.698   2.773   2.803
  2.879   2.884   2.928   3.187   3.249   3.286   3.392   3.434
  3.493   3.537   3.837   4.303   4.456   4.620
 
 Beta MOs
 -- Occupied --
-24.608 -10.274 -10.206 -10.181  -1.048  -0.804  -0.693  -0.600
 -0.482  -0.464  -0.430  -0.380  -0.369  -0.360  -0.339  -0.302
 -0.300
 -- Virtual --
 -0.021   0.090   0.128   0.133   0.146   0.165   0.178   0.196
  0.219   0.253   0.490   0.504   0.525   0.545   0.561   0.640
  0.659   0.696   0.779   0.805   0.837   0.860   0.880   0.896
  0.908   0.936   0.982   1.125   1.231   1.247   1.321   1.373
  1.421   1.501   1.517   1.637   1.658   1.718   1.758   1.815
  1.856   1.910   1.924   1.943   1.988   2.033   2.046   2.074
  2.096   2.114   2.130   2.205   2.256   2.296   2.377   2.402
  2.443   2.533   2.618   2.634   2.662   2.698   2.773   2.803
  2.879   2.884   2.928   3.187   3.249   3.286   3.392   3.434
  3.493   3.537   3.837   4.303   4.456   4.620
 --------------------------------------------------------------
 
          Ground-State Mulliken Net Atomic Charges

     Atom                 Charge (a.u.)    Spin (a.u.)
  --------------------------------------------------------
      1 F                    -0.389399      -0.000000
      2 C                    -0.201386       0.000000
      3 C                     0.036002       0.000000
      4 C                    -0.320611       0.000000
      5 H                     0.132780      -0.000000
      6 H                     0.109584      -0.000000
      7 H                     0.138696      -0.000000
      8 H                     0.139255      -0.000000
      9 H                     0.105103      -0.000000
     10 H                     0.147876      -0.000000
     11 H                     0.102100      -0.000000
  --------------------------------------------------------
  Sum of atomic charges =     0.000000
  Sum of spin   charges =     0.000000

 -----------------------------------------------------------------
                    Cartesian Multipole Moments
 -----------------------------------------------------------------
    Charge (ESU x 10^10)
                 0.0000
    Dipole Moment (Debye)
         X      -1.6601      Y      -2.5533      Z      -0.8598
       Tot       3.1646
    Quadrupole Moments (Debye-Ang)
        XX     -27.2409     XY      -3.0197     YY     -24.8451
        XZ      -1.2217     YZ      -0.1097     ZZ     -24.0269
    Octopole Moments (Debye-Ang^2)
       XXX       7.7783    XXY      -3.8261    XYY       3.7887
       YYY       0.1676    XXZ      -0.2323    XYZ      -0.4050
       YYZ       0.3452    XZZ       4.1686    YZZ       0.0913
       ZZZ      -0.1351
    Hexadecapole Moments (Debye-Ang^3)
      XXXX    -249.2144   XXXY      -2.9421   XXYY     -60.0989
      XYYY       1.7201   YYYY    -111.9935   XXXZ      -4.5659
      XXYZ      -0.8026   XYYZ      -0.2093   YYYZ      -0.5792
      XXZZ     -49.7634   XYZZ       0.5918   YYZZ     -28.8794
      XZZZ      -2.4858   YZZZ      -1.8687   ZZZZ     -50.6715
 -----------------------------------------------------------------
 Calculating analytic gradient of the SCF energy
 Gradient of SCF Energy
            1           2           3           4           5           6
    1   0.0328152   0.0000124  -0.0328329  -0.0000207   0.0000227  -0.0000050
    2   0.0673269   0.0000339  -0.0674012  -0.0000239   0.0000335  -0.0000142
    3   0.0272193   0.0000146  -0.0272701  -0.0000182   0.0000043   0.0000523
            7           8           9          10          11
    1  -0.0000098  -0.0000050   0.0000079   0.0000015   0.0000139
    2  -0.0000158   0.0000347   0.0000064   0.0000140   0.0000057
    3  -0.0000264   0.0000011   0.0000102   0.0000053   0.0000075
 Max gradient component =       6.740E-02
 RMS gradient           =       1.963E-02
 Gradient time:  CPU 7.40 s  wall 0.68 s
 Geometry Optimization Parameters
   NAtoms,    NIC,     NZ,  NCons,   NDum,   NFix, NCnnct, MaxDiis
       11      68       0       1       0       0       0       0

 Cartesian Hessian Update
 Hessian Updated using BFGS Update


** CONSTRAINED OPTIMIZATION IN DELOCALIZED INTERNAL COORDINATES **
   Searching for a Minimum

   Optimization Cycle:   6

                       Coordinates (Angstroms)
     ATOM                X               Y               Z
      1  F         1.4398306598    0.8629920733    0.2769390476
      2  C        -0.6638151531   -0.6639904464    0.2643195345
      3  C         0.6990664945   -0.6577567549   -0.3383581625
      4  C        -1.5060049349    0.5461716986   -0.1443583980
      5  H        -0.5646537505   -0.7182876111    1.3532094771
      6  H        -1.1473637172   -1.6031619466   -0.0508111717
      7  H         1.4144570295   -1.3864213105    0.0325775841
      8  H         0.7652879782   -0.4786922341   -1.4089143843
      9  H        -2.4805450971    0.5328516754    0.3513496742
     10  H        -0.9726067872    1.4565710932    0.1336309721
     11  H        -1.6767537222    0.5649237631   -1.2263811730
   Point Group: c1    Number of degrees of freedom:    27


   Energy is   -218.336233494

              Constraints and their Current Values
                                        Value     Constraint
   Distance(Angs):        1   3             1.800000     1.800000
 Hessian Updated using BFGS Update

 26 Hessian modes will be used to form the next step
  Hessian Eigenvalues:
     0.022349    0.044998    0.051475    0.066358    0.078494    0.082325
     0.084237    0.085940    0.104298    0.136120    0.158894    0.159917
     0.160005    0.162182    0.164227    0.219839    0.228676    0.295730
     0.325356    0.337586    0.341971    0.342573    0.344159    0.346473
     0.349262    0.350604

 Minimum Search - Taking Simple RFO Step
 Searching for Lamda that Minimizes Along All modes
 Value Taken    Lamda =   0.00000000
 Step Taken.  Stepsize is  0.002413

                             Maximum     Tolerance    Cnvgd?
         Gradient           0.000051      0.000300     YES
         Displacement       0.001845      0.001200      NO
         Energy change     -0.000000      0.000001     YES


                       Distance Matrix (Angstroms)
             F (  1)   C (  2)   C (  3)   C (  4)   H (  5)   H (  6)
   C (  2)  2.599454
   C (  3)  1.800000  1.490203
   C (  4)  2.992627  1.529965  2.519805
   H (  5)  2.770697  1.094743  2.112357  2.174330
   H (  6)  3.589277  1.102347  2.094225  2.181057  1.758928
   H (  7)  2.262790  2.212425  1.086429  3.506468  2.471305  2.572325
   H (  8)  2.257704  2.208253  1.087447  2.794319  3.074976  2.601368
   H (  9)  3.934956  2.177272  3.464560  1.093450  2.497942  2.549835
   H ( 10)  2.488519  2.146908  2.736357  1.091155  2.526620  3.070265
   H ( 11)  3.473027  2.181390  2.815680  1.095573  3.088314  2.522462
             H (  7)   H (  8)   H (  9)   H ( 10)
   H (  8)  1.822990
   H (  9)  4.353879  3.828470
   H ( 10)  3.713609  3.024065  1.781723
   H ( 11)  3.866304  2.661958  1.770973  1.772143
 
 Final energy is   -218.336233494372     


 ******************************
 **  OPTIMIZATION CONVERGED  **
 ******************************

                       Coordinates (Angstroms)
     ATOM                X               Y               Z
      1  F         1.4398306598    0.8629920733    0.2769390476
      2  C        -0.6638151531   -0.6639904464    0.2643195345
      3  C         0.6990664945   -0.6577567549   -0.3383581625
      4  C        -1.5060049349    0.5461716986   -0.1443583980
      5  H        -0.5646537505   -0.7182876111    1.3532094771
      6  H        -1.1473637172   -1.6031619466   -0.0508111717
      7  H         1.4144570295   -1.3864213105    0.0325775841
      8  H         0.7652879782   -0.4786922341   -1.4089143843
      9  H        -2.4805450971    0.5328516754    0.3513496742
     10  H        -0.9726067872    1.4565710932    0.1336309721
     11  H        -1.6767537222    0.5649237631   -1.2263811730

Z-matrix Print:
$molecule
0 1
C 
H  1 1.094743
H  1 1.102347 2 106.368903
C  1 1.490203 2 108.640617 3 -114.651855 0
H  4 1.086429 1 117.473046 2 46.379910 0
H  4 1.087447 1 117.034512 2 -172.390608 0
C  1 1.529965 2 110.779912 3 120.556373 0
H  7 1.091155 1 108.832655 2 65.224733 0
H  7 1.093450 1 111.092302 2 -55.149602 0
H  7 1.095573 1 111.293294 2 -175.536198 0
F  4 1.800000 1 103.984699 2 -63.335512 0
$end

PES scan, value:    1.8000 energy: -218.3362334944
------- Summary of potential scan: ------ 
    1.8000      -218.3362334944
----------------------------------------- 
Archival summary:
1\1\hpc0244\JobtypUnspecified\ProcedureUnspecified\6-31G**\137\knomura\WedMar1315:05:112019WedMar1315:05:112019\0\\#,JobtypUnspecified,ProcedureUnspecified,6-31G**,\\0,1\C\H,1,1.09474\H,1,1.10235,2,106.369\C,1,1.4902,2,108.641,3,-114.652,0\H,4,1.08643,1,117.473,2,46.3799,0\H,4,1.08745,1,117.035,2,-172.391,0\C,1,1.52997,2,110.78,3,120.556,0\H,7,1.09115,1,108.833,2,65.2247,0\H,7,1.09345,1,111.092,2,-55.1496,0\H,7,1.09557,1,111.293,2,-175.536,0\F,4,1.8,1,103.985,2,-63.3355,0\\\@

 Total job time:  17.92s(wall), 193.09s(cpu) 
 Wed Mar 13 15:05:11 2019

        *************************************************************
        *                                                           *
        *  Thank you very much for using Q-Chem.  Have a nice day.  *
        *                                                           *
        *************************************************************


