
Running Job 1 of 1 halogens/Flourine/02/F_3.xyz.data/inputs/bond_triplet_3.2.in
qchem halogens/Flourine/02/F_3.xyz.data/inputs/bond_triplet_3.2.in_31133.0 /staging/scratch/2868761/qchem31133/ 1
/usr/usc/qchem/5.1.1/exe/qcprog.exe_s halogens/Flourine/02/F_3.xyz.data/inputs/bond_triplet_3.2.in_31133.0 /staging/scratch/2868761/qchem31133/
Check license passed

                  Welcome to Q-Chem
     A Quantum Leap Into The Future Of Chemistry


 Q-Chem 5.1, Q-Chem, Inc., Pleasanton, CA (2018)

 Yihan Shao,  Zhengting Gan,  E. Epifanovsky,  A. T. B. Gilbert,  M. Wormit,  
 J. Kussmann,  A. W. Lange,  A. Behn,  Jia Deng,  Xintian Feng,  D. Ghosh,  
 M. Goldey,  P. R. Horn,  L. D. Jacobson,  I. Kaliman,  T. Kus,  A. Landau,  
 Jie Liu,  E. I. Proynov,  R. M. Richard,  R. P. Steele,  E. J. Sundstrom,  
 H. L. Woodcock III,  P. M. Zimmerman,  D. Zuev,  B. Albrecht,  E. Alguire,  
 S. A. Baeppler,  D. Barton,  Z. Benda,  Y. A. Bernard,  E. J. Berquist,  
 K. B. Bravaya,  H. Burton,  D. Casanova,  Chun-Min Chang,  Yunqing Chen,  
 A. Chien,  K. D. Closser,  M. P. Coons,  S. Coriani,  S. Dasgupta,  
 A. L. Dempwolff,  M. Diedenhofen,  Hainam Do,  R. G. Edgar,  Po-Tung Fang,  
 S. Faraji,  S. Fatehi,  Qingguo Feng,  K. D. Fenk,  J. Fosso-Tande,  
 Qinghui Ge,  A. Ghysels,  G. Gidofalvi,  J. Gomes,  J. Gonthier,  A. Gunina,  
 D. Hait,  M. W. D. Hanson-Heine,  P. H. P. Harbach,  A. W. Hauser,  
 J. E. Herr,  E. G. Hohenstein,  Z. C. Holden,  Kerwin Hui,  B. C. Huynh,  
 T.-C. Jagau,  Hyunjun Ji,  B. Kaduk,  K. Khistyaev,  Jaehoon Kim,  
 P. Klunzinger,  K. Koh,  D. Kosenkov,  L. Koulias,  T. Kowalczyk,  
 C. M. Krauter,  A. Kunitsa,  Ka Un Lao,  A. Laurent,  K. V. Lawler,  
 Joonho Lee,  D. Lefrancois,  S. Lehtola,  D. S. Levine,  Yi-Pei Li,  
 You-Sheng Lin,  Fenglai Liu,  E. Livshits,  A. Luenser,  P. Manohar,  
 E. Mansoor,  S. F. Manzer,  Shan-Ping Mao,  Yuezhi Mao,  N. Mardirossian,  
 A. V. Marenich,  T. Markovich,  L. A. Martinez-Martinez,  S. A. Maurer,  
 N. J. Mayhall,  S. C. McKenzie,  J.-M. Mewes,  A. F. Morrison,  
 J. W. Mullinax,  K. Nanda,  T. S. Nguyen-Beck,  R. Olivares-Amaya,  
 J. A. Parkhill,  T. M. Perrine,  F. Plasser,  P. Pokhilko,  S. Prager,  
 A. Prociuk,  E. Ramos,  D. R. Rehn,  F. Rob,  M. Schneider,  N. Sergueev,  
 S. M. Sharada,  S. Sharma,  D. W. Small,  T. Stauch,  T. Stein,  
 Yu-Chuan Su,  A. J. W. Thom,  A. Tkatchenko,  T. Tsuchimochi,  N. M. Tubman,  
 L. Vogt,  M. L. Vidal,  O. Vydrov,  M. A. Watson,  J. Wenzel,  
 M. de Wergifosse,  T. A. Wesolowski,  A. White,  J. Witte,  A. Yamada,  
 Jun Yang,  K. Yao,  S. Yeganeh,  S. R. Yost,  Zhi-Qiang You,  A. Zech,  
 Igor Ying Zhang,  Xing Zhang,  Yan Zhao,  Ying Zhu,  B. R. Brooks,  
 G. K. L. Chan,  C. J. Cramer,  M. S. Gordon,  W. J. Hehre,  A. Klamt,  
 M. W. Schmidt,  C. D. Sherrill,  D. G. Truhlar,  A. Aspuru-Guzik,  R. Baer,  
 A. T. Bell,  N. A. Besley,  Jeng-Da Chai,  A. E. DePrince, III,  
 R. A. DiStasio Jr.,  A. Dreuw,  B. D. Dunietz,  T. R. Furlani,  
 Chao-Ping Hsu,  Yousung Jung,  Jing Kong,  D. S. Lambrecht,  WanZhen Liang,  
 C. Ochsenfeld,  V. A. Rassolov,  L. V. Slipchenko,  J. E. Subotnik,  
 T. Van Voorhis,  J. M. Herbert,  A. I. Krylov,  P. M. W. Gill,  M. Head-Gordon

 Contributors to earlier versions of Q-Chem not listed above: 
 R. D. Adamson,  B. Austin,  J. Baker,  G. J. O. Beran,  K. Brandhorst,  
 S. T. Brown,  E. F. C. Byrd,  A. K. Chakraborty,  C.-L. Cheng,  
 Siu Hung Chien,  D. M. Chipman,  D. L. Crittenden,  H. Dachsel,  
 R. J. Doerksen,  A. D. Dutoi,  L. Fusti-Molnar,  W. A. Goddard III,  
 A. Golubeva-Zadorozhnaya,  S. R. Gwaltney,  G. Hawkins,  A. Heyden,  
 S. Hirata,  G. Kedziora,  F. J. Keil,  C. Kelley,  Jihan Kim,  R. A. King,  
 R. Z. Khaliullin,  P. P. Korambath,  W. Kurlancheek,  A. M. Lee,  M. S. Lee,  
 S. V. Levchenko,  Ching Yeh Lin,  D. Liotard,  R. C. Lochan,  I. Lotan,  
 P. E. Maslen,  N. Nair,  D. P. O'Neill,  D. Neuhauser,  E. Neuscamman,  
 C. M. Oana,  R. Olson,  B. Peters,  R. Peverati,  P. A. Pieniazek,  
 Y. M. Rhee,  J. Ritchie,  M. A. Rohrdanz,  E. Rosta,  N. J. Russ,  
 H. F. Schaefer III,  N. E. Schultz,  N. Shenvi,  A. C. Simmonett,  A. Sodt,  
 D. Stuck,  K. S. Thanthiriwatte,  V. Vanovschi,  Tao Wang,  A. Warshel,  
 C. F. Williams,  Q. Wu,  X. Xu,  W. Zhang

 Please cite Q-Chem as follows:
 Y. Shao et al., Mol. Phys. 113, 184-215 (2015)
 DOI: 10.1080/00268976.2014.952696

 Q-Chem 5.1.1 for Intel X86 EM64T Linux

 Parts of Q-Chem use Armadillo 8.300.2 (Tropical Shenanigans).
 http://arma.sourceforge.net/

 Q-Chem begins on Wed Mar 13 15:37:29 2019  

Host: 
0

     Scratch files written to /staging/scratch/2868761/qchem31133//
 Aug318 |scratch|qcdevops|jenkins|workspace|build_RNUM 6013   
Processing $rem in /usr/usc/qchem/5.1.1/config/preferences.
 MEM_TOTAL  2000 
Input Ideriv = 2
Curr. Ideriv = -1
Max.  Ideriv = 2

Checking the input file for inconsistencies... 	...done.

--------------------------------------------------------------
User input:
--------------------------------------------------------------

$comment
potential surface scanner
$end

$rem
JOBTYPE  PES_SCAN
UNRESTRICTED TRUE
SYM_IGNORE  TRUE
GEOM_OPT_MAX_CYCLES 400
SCF_MAX_CYCLES 400
METHOD   B3LYP
BASIS   6-31G**
PDB_PRINT 2
SCF_CONVERGENCE 6
THRESH 14
SCF_PRINT 1
$end
$molecule
0 3
F 0.454955 2.180422 -0.189956
C -0.320829 -0.534739 0.443525
C 0.692632 -1.101467 -0.440381
C -1.667600 -0.115567 -0.079274
H -0.228761 -0.706493 1.519504
H -2.223441 -0.979330 -0.477356
H 0.647485 -2.142813 -0.759226
H 1.473186 -0.484384 -0.880219
H -2.280176 0.342811 0.702370
H 0.318686 1.397121 0.306386
H -1.559238 0.599636 -0.902176
$end
$scan
stre 1 3 3.200000 3.201000 0.100000
$end
--------------------------------------------------------------
 ----------------------------------------------------------------
             Standard Nuclear Orientation (Angstroms)
    I     Atom           X                Y                Z
 ----------------------------------------------------------------
    1      F       0.4549550000     2.1804220000    -0.1899560000
    2      C      -0.3208290000    -0.5347390000     0.4435250000
    3      C       0.6926320000    -1.1014670000    -0.4403810000
    4      C      -1.6676000000    -0.1155670000    -0.0792740000
    5      H      -0.2287610000    -0.7064930000     1.5195040000
    6      H      -2.2234410000    -0.9793300000    -0.4773560000
    7      H       0.6474850000    -2.1428130000    -0.7592260000
    8      H       1.4731860000    -0.4843840000    -0.8802190000
    9      H      -2.2801760000     0.3428110000     0.7023700000
   10      H       0.3186860000     1.3971210000     0.3063860000
   11      H      -1.5592380000     0.5996360000    -0.9021760000
 ----------------------------------------------------------------
 Nuclear Repulsion Energy =   115.0606878342 hartrees
 There are       18 alpha and       16 beta electrons
 Requested basis set is 6-31G(d,p)
 There are 37 shells and 95 basis functions

 Total QAlloc Memory Limit   2000 MB
 Mega-Array Size       188 MB
 MEM_STATIC part       192 MB
A total of 1 constraints
  
            1
    1   1.0100000
    2   1.0100000
    3   3.0100000
    4   3.2000000
    5   3.2010000
    6   0.1000000
    7   0.0000000
    8   0.0000000
    9   0.0000000
   10   0.0000000

                       Distance Matrix (Angstroms)
             F (  1)   C (  2)   C (  3)   C (  4)   H (  5)   H (  6)
   C (  2)  2.894000
   C (  3)  3.300000  1.459306
   C (  4)  3.128747  1.504266  2.583233
   H (  5)  3.424033  1.093484  2.201390  2.230592
   H (  6)  4.152160  2.160004  2.918864  1.101597  2.835602
   H (  7)  4.364802  2.229382  1.090001  3.151457  2.832566  3.110524
   H (  8)  2.935038  2.230095  1.087894  3.262219  2.950360  3.751309
   H (  9)  3.413796  2.162437  3.497057  1.093767  2.444801  1.772859
   H ( 10)  0.937275  2.039576  2.634471  2.526320  2.489286  3.567097
   H ( 11)  2.657652  2.152063  2.859707  1.095639  3.056252  1.764871
             H (  7)   H (  8)   H (  9)   H ( 10)
   H (  8)  1.856558
   H (  9)  4.109232  4.156509
   H ( 10)  3.711438  2.506185  2.832394
   H ( 11)  3.522937  3.220431  1.777717  2.371329
 
 A cutoff of  1.0D-14 yielded    687 shell pairs
 There are      4627 function pairs
 
 -------------------------------------------------------
 OpenMP Integral Computing Module                       
 Release: version 1.0, May 2013, Q-Chem Inc. Pittsburgh 
 -------------------------------------------------------
 Integral Job Info:
 Integral job number is                      11
 Integral operator is                         1
 short-range coefficients                     0
 long-range coefficients              100000000
 Omega coefficients                           0
 if combine SR and LR in K                    0
 Integral screening is                        0
 Integral computing path is                   2
 max size of driver memory is            800000
 size of driver memory is                593474
 size of scratch memory is              2361544
 max col of scratch BK array               1296
 max len of scratch array in speh3          155
 max len of scratch index in speh4           18
 max int batch size is                      520
 min int batch size is                       52
 fixed nKL is                                52
 max L of basis functions is                  2
 order of int derivative is                   0
 number of shells is                         37
 number of basis is                          95
 number of cartesian basis is                95
 number of contracted shell pairs           687
 number of primitive shell pairs           2367
 maxK2 (contraction) of shell pair           36
 max number of K2 of shell pair               1
 max number of CS2 of shell pair             63
 max number of PS2 of shell pair            252
 mem total for path MDJ                  514716
 -------------------------------------------------------
 Smallest overlap matrix eigenvalue = 6.39E-03

 Scale SEOQF with 1.000000e-01/1.000000e-01/1.000000e+00

 Standard Electronic Orientation quadrupole field applied
 Nucleus-field energy     =    -0.0000000029 hartrees
 Guess from superposition of atomic densities
 Warning:  Energy on first SCF cycle will be non-variational
 SAD guess density has 34.000000 electrons

 -----------------------------------------------------------------------
  General SCF calculation program by
  Eric Jon Sundstrom, Paul Horn, Yuezhi Mao, Dmitri Zuev, Alec White,
  David Stuck, Shaama M.S., Shane Yost, Joonho Lee, David Small,
  Daniel Levine, Susi Lehtola, Hugh Burton, Evgeny Epifanovsky
 -----------------------------------------------------------------------
 Exchange:     0.2000 Hartree-Fock + 0.0800 Slater + 0.7200 B88
 Correlation:  0.1900 VWN1RPA + 0.8100 LYP
 Using SG-1 standard quadrature grid
 using 12 threads for integral computing
 -------------------------------------------------------
 OpenMP Integral computing Module                
 Release: version 1.0, May 2013, Q-Chem Inc. Pittsburgh 
 -------------------------------------------------------
 -------------------------------------------------------
 OpenMP BLAS3 based DFT computing Module                
 Release: version 1.0, May 2013, Q-Chem Inc. Pittsburgh 
 -------------------------------------------------------
 A unrestricted SCF calculation will be
 performed using DIIS
 SCF converges when DIIS error is below 1.0e-06
 Alpha HF Exchange    Energy =  -2.78308072393325
 Beta HF Exchange     Energy =  -2.78308072393325
 DFT Correlation      Energy =  -1.43182287373225
 DFT Exchange         Energy = -21.84342799431358
 One-Electron (alpha) Energy = -261.02059753870208
 One-Electron (beta)  Energy = -261.02059753870208
 Total Coulomb        Energy = 217.32297860005028
 ---------------------------------------
  Cycle       Energy         DIIS error
 ---------------------------------------
    1    -218.4989409620      2.99e-02  
 Alpha HF Exchange    Energy =  -2.93835618897795
 Beta HF Exchange     Energy =  -2.75127392759169
 DFT Correlation      Energy =  -1.45273728296401
 DFT Exchange         Energy = -22.57992688000092
 One-Electron (alpha) Energy = -274.64596665887376
 One-Electron (beta)  Energy = -254.37738274905388
 Total Coulomb        Energy = 225.52122068050576
    2    -218.1637351757      4.61e-03  
 Alpha HF Exchange    Energy =  -2.85811576515795
 Beta HF Exchange     Energy =  -2.67915090331049
 DFT Correlation      Energy =  -1.42375557152437
 DFT Exchange         Energy = -21.95959737046013
 One-Electron (alpha) Energy = -271.03745892695133
 One-Electron (beta)  Energy = -250.94294789816189
 Total Coulomb        Energy = 217.67991928389509
    3    -218.1604193204      5.05e-03  
 Alpha HF Exchange    Energy =  -2.89990046511734
 Beta HF Exchange     Energy =  -2.71705749089562
 DFT Correlation      Energy =  -1.43728509736226
 DFT Exchange         Energy = -22.27891877023896
 One-Electron (alpha) Energy = -272.96818890294890
 One-Electron (beta)  Energy = -252.67897666198797
 Total Coulomb        Energy = 221.66912542798246
    4    -218.2505141293      3.48e-04  
 Alpha HF Exchange    Energy =  -2.90067711218558
 Beta HF Exchange     Energy =  -2.71651056763916
 DFT Correlation      Energy =  -1.43749084114868
 DFT Exchange         Energy = -22.28005469967693
 One-Electron (alpha) Energy = -273.03169544326892
 One-Electron (beta)  Energy = -252.67298941599910
 Total Coulomb        Energy = 221.72784920855838
    5    -218.2508810401      1.98e-04  
 Alpha HF Exchange    Energy =  -2.90067110220321
 Beta HF Exchange     Energy =  -2.71672354300920
 DFT Correlation      Energy =  -1.43714637900900
 DFT Exchange         Energy = -22.27999856673992
 One-Electron (alpha) Energy = -273.01131720856608
 One-Electron (beta)  Energy = -252.64242181984781
 Total Coulomb        Energy = 221.67655117357970
    6    -218.2510396145      3.96e-05  
 Alpha HF Exchange    Energy =  -2.90077979574749
 Beta HF Exchange     Energy =  -2.71668575381769
 DFT Correlation      Energy =  -1.43713945623569
 DFT Exchange         Energy = -22.28024497183664
 One-Electron (alpha) Energy = -273.02315677581913
 One-Electron (beta)  Energy = -252.64227535929348
 Total Coulomb        Energy = 221.68854637402706
    7    -218.2510479074      1.45e-05  
 Alpha HF Exchange    Energy =  -2.90081812343355
 Beta HF Exchange     Energy =  -2.71666957134876
 DFT Correlation      Energy =  -1.43711827717588
 DFT Exchange         Energy = -22.28027972738204
 One-Electron (alpha) Energy = -273.02391417843842
 One-Electron (beta)  Energy = -252.63843324476693
 Total Coulomb        Energy = 221.68549625994979
    8    -218.2510490313      7.27e-06  
 Alpha HF Exchange    Energy =  -2.90083115589172
 Beta HF Exchange     Energy =  -2.71665866656639
 DFT Correlation      Energy =  -1.43711219825269
 DFT Exchange         Energy = -22.28028079506419
 One-Electron (alpha) Energy = -273.02511947453178
 One-Electron (beta)  Energy = -252.63746527711953
 Total Coulomb        Energy = 221.68573039753943
    9    -218.2510493386      1.14e-06  
 Alpha HF Exchange    Energy =  -2.90083597099378
 Beta HF Exchange     Energy =  -2.71665655211045
 DFT Correlation      Energy =  -1.43711179488718
 DFT Exchange         Energy = -22.28029198576984
 One-Electron (alpha) Energy = -273.02535355294242
 One-Electron (beta)  Energy = -252.63731370341193
 Total Coulomb        Energy = 221.68582638084249
   10    -218.2510493480      4.06e-07  Convergence criterion met
 ---------------------------------------
 SCF time:   CPU 21.67s  wall 2.00s 
<S^2> =          2.004260117
 Alpha HF Exchange    Energy =  -2.90083597099378
 Beta HF Exchange     Energy =  -2.71665655211045
 DFT Correlation      Energy =  -1.43711179488718
 DFT Exchange         Energy = -22.28029198576984
 One-Electron (alpha) Energy = -273.02535355294242
 One-Electron (beta)  Energy = -252.63731370341193
 Total Coulomb        Energy = 221.68582638084249
 Nuclear repulsion Energy = 115.06068783127328
 SCF   energy in the final basis set =     -218.2510493480
 Total energy in the final basis set =     -218.2510493480
 
 --------------------------------------------------------------
 
                    Orbital Energies (a.u.)
 --------------------------------------------------------------
 
 Alpha MOs
 -- Occupied --
-24.646 -10.219 -10.207 -10.194  -1.149  -0.801  -0.699  -0.585
 -0.508  -0.462  -0.450  -0.417  -0.408  -0.375  -0.361  -0.359
 -0.221  -0.218
 -- Virtual --
  0.095   0.112   0.135   0.154   0.163   0.173   0.214   0.238
  0.280   0.486   0.515   0.530   0.571   0.587   0.618   0.643
  0.680   0.733   0.784   0.817   0.846   0.860   0.874   0.886
  0.910   0.938   1.063   1.157   1.213   1.277   1.284   1.300
  1.426   1.531   1.594   1.633   1.653   1.733   1.761   1.817
  1.847   1.865   1.893   1.895   1.950   1.988   2.004   2.037
  2.092   2.151   2.268   2.339   2.366   2.398   2.432   2.540
  2.556   2.605   2.612   2.659   2.748   2.770   2.782   2.828
  2.848   2.969   3.173   3.271   3.336   3.404   3.457   3.467
  3.711   3.945   4.226   4.398   4.555
 
 Beta MOs
 -- Occupied --
-24.645 -10.207 -10.194 -10.194  -1.146  -0.771  -0.673  -0.555
 -0.499  -0.449  -0.429  -0.403  -0.394  -0.366  -0.359  -0.358
 -- Virtual --
 -0.080  -0.061   0.106   0.128   0.145   0.165   0.170   0.182
  0.233   0.254   0.296   0.494   0.548   0.560   0.582   0.623
  0.643   0.669   0.701   0.744   0.799   0.827   0.855   0.873
  0.882   0.903   0.918   0.952   1.088   1.160   1.216   1.282
  1.294   1.322   1.471   1.537   1.608   1.643   1.679   1.751
  1.779   1.841   1.870   1.884   1.897   1.908   1.992   1.997
  2.029   2.044   2.099   2.167   2.289   2.351   2.378   2.421
  2.456   2.565   2.575   2.620   2.630   2.668   2.750   2.773
  2.794   2.835   2.857   2.980   3.179   3.283   3.347   3.412
  3.466   3.478   3.713   3.947   4.253   4.419   4.573
 --------------------------------------------------------------
 
          Ground-State Mulliken Net Atomic Charges

     Atom                 Charge (a.u.)    Spin (a.u.)
  --------------------------------------------------------
      1 F                    -0.377192       0.027232
      2 C                    -0.171837       0.881069
      3 C                    -0.232495       1.009516
      4 C                    -0.330819      -0.034431
      5 H                     0.122360       0.001106
      6 H                     0.123719       0.056734
      7 H                     0.122076       0.004020
      8 H                     0.133767      -0.009795
      9 H                     0.118522       0.011710
     10 H                     0.351266       0.024758
     11 H                     0.140631       0.028079
  --------------------------------------------------------
  Sum of atomic charges =    -0.000000
  Sum of spin   charges =     2.000000

 -----------------------------------------------------------------
                    Cartesian Multipole Moments
 -----------------------------------------------------------------
    Charge (ESU x 10^10)
                -0.0000
    Dipole Moment (Debye)
         X      -0.7478      Y      -2.1508      Z       0.6779
       Tot       2.3758
    Quadrupole Moments (Debye-Ang)
        XX     -24.5401     XY      -0.9756     YY     -30.2718
        XZ      -0.2944     YZ       1.4748     ZZ     -24.6282
    Octopole Moments (Debye-Ang^2)
       XXX      20.2642    XXY      -0.0256    XYY       4.1923
       YYY     -15.7433    XXZ       0.8507    XYZ       0.6374
       YYZ       2.2109    XZZ       7.1470    YZZ       0.3731
       ZZZ       7.1333
    Hexadecapole Moments (Debye-Ang^3)
      XXXX    -199.8085   XXXY      -3.8515   XXYY     -76.3474
      XYYY     -11.9804   YYYY    -270.1960   XXXZ       6.4670
      XXYZ       1.4055   XYYZ       3.3319   YYYZ       4.7825
      XXZZ     -42.1109   XYZZ      -2.4670   YYZZ     -49.7078
      XZZZ       8.1988   YZZZ      -3.3968   ZZZZ     -58.8614
 -----------------------------------------------------------------
 Calculating analytic gradient of the SCF energy
 Gradient of SCF Energy
            1           2           3           4           5           6
    1  -0.0001043  -0.0002741   0.0002805   0.0000874   0.0000711  -0.0000080
    2   0.0012290   0.0001419  -0.0012253  -0.0000110  -0.0000444   0.0000097
    3   0.0000258   0.0000996  -0.0001364  -0.0000343  -0.0000159  -0.0000168
            7           8           9          10          11
    1  -0.0000845   0.0000062  -0.0000267   0.0000395   0.0000129
    2   0.0000287   0.0000280  -0.0000056  -0.0001661   0.0000151
    3  -0.0000335   0.0000743  -0.0000134   0.0000426   0.0000078
 Max gradient component =       1.229E-03
 RMS gradient           =       3.158E-04
 Gradient time:  CPU 7.35 s  wall 0.66 s
 Geometry Optimization Parameters
   NAtoms,    NIC,     NZ,  NCons,   NDum,   NFix, NCnnct, MaxDiis
       11      66       0       1       0       0       0       0


** CONSTRAINED OPTIMIZATION IN DELOCALIZED INTERNAL COORDINATES **
   Searching for a Minimum

   Optimization Cycle:   1

                       Coordinates (Angstroms)
     ATOM                X               Y               Z
      1  F         0.4549550000    2.1804220000   -0.1899560000
      2  C        -0.3208290000   -0.5347390000    0.4435250000
      3  C         0.6926320000   -1.1014670000   -0.4403810000
      4  C        -1.6676000000   -0.1155670000   -0.0792740000
      5  H        -0.2287610000   -0.7064930000    1.5195040000
      6  H        -2.2234410000   -0.9793300000   -0.4773560000
      7  H         0.6474850000   -2.1428130000   -0.7592260000
      8  H         1.4731860000   -0.4843840000   -0.8802190000
      9  H        -2.2801760000    0.3428110000    0.7023700000
     10  H         0.3186860000    1.3971210000    0.3063860000
     11  H        -1.5592380000    0.5996360000   -0.9021760000
   Point Group: c1    Number of degrees of freedom:    27


   Energy is   -218.251049348

              Constraints and their Current Values
                                        Value     Constraint
   Distance(Angs):        1   3             3.300000     3.200000

 Attempting to Generate Delocalized Internal Coordinates

   Using Lagrange Multiplier Algorithm


 28 Hessian modes will be used to form the next step
  Hessian Eigenvalues:
    -0.993677    0.044706    0.045000    0.045000    0.045161    0.051735
     0.065098    0.082128    0.083285    0.095405    0.125673    0.150936
     0.160000    0.160000    0.160000    0.160000    0.160000    0.176604
     0.319339    0.335062    0.341690    0.343809    0.344131    0.348125
     0.350571    0.353125    0.545973    1.006363

 Minimum Search - Taking P-RFO Step
 Searching for Lamda that Maximizes Along the Constraint modes Only
 Value Taken    Lamda =   0.01755805
 Searching for Lamda that Minimizes Along All other modes
 Value Taken    Lamda =  -0.01753773
 Step Taken.  Stepsize is  0.185724

                             Maximum     Tolerance    Cnvgd?
         Gradient            0.188972       0.000300      NO
         Displacement        0.185713       0.001200      NO
         Energy change     *********       0.000001      NO


 New Cartesian Coordinates Obtained by Inverse Iteration

 Displacement from previous Coordinates is:  0.212910
 ----------------------------------------------------------------
             Standard Nuclear Orientation (Angstroms)
    I     Atom           X                Y                Z
 ----------------------------------------------------------------
    1      F       0.4868786912     2.1165750397    -0.2168334471
    2      C      -0.3273374959    -0.5310106356     0.4476929827
    3      C       0.6874866910    -1.0714640530    -0.4340968148
    4      C      -1.6757721737    -0.1190195870    -0.0767810869
    5      H      -0.2403543581    -0.7051986122     1.5237058490
    6      H      -2.2260026231    -0.9855513861    -0.4766228185
    7      H       0.6552075881    -2.1092880951    -0.7658059796
    8      H       1.4623321313    -0.4404645912    -0.8641955987
    9      H      -2.2920663234     0.3350339757     0.7044469864
   10      H       0.3468184525     1.3679422175     0.3004869252
   11      H      -1.5702915801     0.5976427273    -0.8987999978
 ----------------------------------------------------------------
 Nuclear Repulsion Energy =   115.9399743747 hartrees
 There are       18 alpha and       16 beta electrons

                       Distance Matrix (Angstroms)
             F (  1)   C (  2)   C (  3)   C (  4)   H (  5)   H (  6)
   C (  2)  2.848553
   C (  3)  3.201725  1.448969
   C (  4)  3.113608  1.504356  2.572901
   H (  5)  3.394223  1.093486  2.197278  2.228360
   H (  6)  4.129213  2.160069  2.915066  1.101592  2.832439
   H (  7)  4.264695  2.220120  1.090024  3.141559  2.831142  3.106088
   H (  8)  2.812301  2.220848  1.087902  3.251315  2.944707  3.748486
   H (  9)  3.427124  2.162433  3.486008  1.093755  2.441883  1.772917
   H ( 10)  0.920700  2.020440  2.570286  2.538555  2.477690  3.572428
   H ( 11)  2.646542  2.152170  2.845950  1.095649  3.055268  1.764850
             H (  7)   H (  8)   H (  9)   H ( 10)
   H (  8)  1.856368
   H (  9)  4.101558  4.142167
   H ( 10)  3.650098  2.423054  2.862481
   H ( 11)  3.506852  3.205569  1.777730  2.388925
 
 Applying Cartesian multipole field
    Component          Value
    ---------          -----
     (2,0,0)        1.00000E-11
     (0,2,0)        2.00000E-11
     (0,0,2)       -3.00000E-10
 Nucleus-field energy     =    -0.0000000032 hartrees
 Requested basis set is 6-31G(d,p)
 There are 37 shells and 95 basis functions
 A cutoff of  1.0D-14 yielded    687 shell pairs
 There are      4627 function pairs
 Smallest overlap matrix eigenvalue = 6.28E-03
 Guess from superposition of atomic densities
 Warning:  Energy on first SCF cycle will be non-variational
 SAD guess density has 34.000000 electrons

 -----------------------------------------------------------------------
  General SCF calculation program by
  Eric Jon Sundstrom, Paul Horn, Yuezhi Mao, Dmitri Zuev, Alec White,
  David Stuck, Shaama M.S., Shane Yost, Joonho Lee, David Small,
  Daniel Levine, Susi Lehtola, Hugh Burton, Evgeny Epifanovsky
 -----------------------------------------------------------------------
 Exchange:     0.2000 Hartree-Fock + 0.0800 Slater + 0.7200 B88
 Correlation:  0.1900 VWN1RPA + 0.8100 LYP
 Using SG-1 standard quadrature grid
 using 12 threads for integral computing
 -------------------------------------------------------
 OpenMP Integral computing Module                
 Release: version 1.0, May 2013, Q-Chem Inc. Pittsburgh 
 -------------------------------------------------------
 -------------------------------------------------------
 OpenMP BLAS3 based DFT computing Module                
 Release: version 1.0, May 2013, Q-Chem Inc. Pittsburgh 
 -------------------------------------------------------
 A unrestricted SCF calculation will be
 performed using DIIS
 SCF converges when DIIS error is below 1.0e-06
 Alpha HF Exchange    Energy =  -2.78591450185958
 Beta HF Exchange     Energy =  -2.78591450185958
 DFT Correlation      Energy =  -1.43272289237028
 DFT Exchange         Energy = -21.84967206218879
 One-Electron (alpha) Energy = -261.87575085434258
 One-Electron (beta)  Energy = -261.87575085434258
 Total Coulomb        Energy = 218.14246456777693
 ---------------------------------------
  Cycle       Energy         DIIS error
 ---------------------------------------
    1    -218.5232867277      3.02e-02  
 Alpha HF Exchange    Energy =  -2.94003640026361
 Beta HF Exchange     Energy =  -2.75243165313528
 DFT Correlation      Energy =  -1.45371017450519
 DFT Exchange         Energy = -22.59021458359274
 One-Electron (alpha) Energy = -275.57574553383546
 One-Electron (beta)  Energy = -255.20637471488754
 Total Coulomb        Energy = 226.41527606595665
    2    -218.1632626228      4.62e-03  
 Alpha HF Exchange    Energy =  -2.85961847608123
 Beta HF Exchange     Energy =  -2.68050653875852
 DFT Correlation      Energy =  -1.42468923200398
 DFT Exchange         Energy = -21.96944634844803
 One-Electron (alpha) Energy = -271.93572177428814
 One-Electron (beta)  Energy = -251.74931889840570
 Total Coulomb        Energy = 218.51878873506388
    3    -218.1605381614      5.02e-03  
 Alpha HF Exchange    Energy =  -2.90142320849894
 Beta HF Exchange     Energy =  -2.71825243150987
 DFT Correlation      Energy =  -1.43826116314361
 DFT Exchange         Energy = -22.28842719988464
 One-Electron (alpha) Energy = -273.88455205488964
 One-Electron (beta)  Energy = -253.49817571172400
 Total Coulomb        Energy = 222.53875815030418
    4    -218.2503592478      3.32e-04  
 Alpha HF Exchange    Energy =  -2.90215513861173
 Beta HF Exchange     Energy =  -2.71771545899635
 DFT Correlation      Energy =  -1.43842454811961
 DFT Exchange         Energy = -22.28934119151048
 One-Electron (alpha) Energy = -273.94247843996106
 One-Electron (beta)  Energy = -253.48751327159295
 Total Coulomb        Energy = 222.58695811844626
    5    -218.2506955588      1.91e-04  
 Alpha HF Exchange    Energy =  -2.90213905351937
 Beta HF Exchange     Energy =  -2.71793306448379
 DFT Correlation      Energy =  -1.43809212936470
 DFT Exchange         Energy = -22.28929559214692
 One-Electron (alpha) Energy = -273.92325802868180
 One-Electron (beta)  Energy = -253.45878007694319
 Total Coulomb        Energy = 222.53867870768985
    6    -218.2508448660      3.89e-05  
 Alpha HF Exchange    Energy =  -2.90224870154475
 Beta HF Exchange     Energy =  -2.71789465357999
 DFT Correlation      Energy =  -1.43808716575322
 DFT Exchange         Energy = -22.28954405512768
 One-Electron (alpha) Energy = -273.93510812790635
 One-Electron (beta)  Energy = -253.45865956853393
 Total Coulomb        Energy = 222.55071498669986
    7    -218.2508529142      1.36e-05  
 Alpha HF Exchange    Energy =  -2.90228287664581
 Beta HF Exchange     Energy =  -2.71788087549382
 DFT Correlation      Energy =  -1.43806479132446
 DFT Exchange         Energy = -22.28957038724256
 One-Electron (alpha) Energy = -273.93564983188224
 One-Electron (beta)  Energy = -253.45476304326198
 Total Coulomb        Energy = 222.54738352038308
    8    -218.2508539140      7.27e-06  
 Alpha HF Exchange    Energy =  -2.90229545112916
 Beta HF Exchange     Energy =  -2.71787107497775
 DFT Correlation      Energy =  -1.43805982627581
 DFT Exchange         Energy = -22.28957602088509
 One-Electron (alpha) Energy = -273.93689102278461
 One-Electron (beta)  Energy = -253.45395737942007
 Total Coulomb        Energy = 222.54782219095841
    9    -218.2508542130      1.16e-06  
 Alpha HF Exchange    Energy =  -2.90229997034257
 Beta HF Exchange     Energy =  -2.71786914758086
 DFT Correlation      Energy =  -1.43805934533074
 DFT Exchange         Energy = -22.28958663223063
 One-Electron (alpha) Energy = -273.93710952366820
 One-Electron (beta)  Energy = -253.45380614250377
 Total Coulomb        Energy = 222.54790216768046
   10    -218.2508542225      4.17e-07  Convergence criterion met
 ---------------------------------------
 SCF time:   CPU 21.21s  wall 2.00s 
<S^2> =          2.004196116
 Alpha HF Exchange    Energy =  -2.90229997034257
 Beta HF Exchange     Energy =  -2.71786914758086
 DFT Correlation      Energy =  -1.43805934533074
 DFT Exchange         Energy = -22.28958663223063
 One-Electron (alpha) Energy = -273.93710952366820
 One-Electron (beta)  Energy = -253.45380614250377
 Total Coulomb        Energy = 222.54790216768046
 Nuclear repulsion Energy = 115.93997437149663
 SCF   energy in the final basis set =     -218.2508542225
 Total energy in the final basis set =     -218.2508542225
 
 --------------------------------------------------------------
 
                    Orbital Energies (a.u.)
 --------------------------------------------------------------
 
 Alpha MOs
 -- Occupied --
-24.647 -10.217 -10.205 -10.193  -1.156  -0.802  -0.698  -0.585
 -0.513  -0.462  -0.451  -0.417  -0.407  -0.375  -0.364  -0.362
 -0.220  -0.217
 -- Virtual --
  0.098   0.113   0.136   0.158   0.164   0.174   0.217   0.239
  0.284   0.485   0.516   0.532   0.571   0.588   0.621   0.645
  0.684   0.734   0.783   0.816   0.845   0.860   0.874   0.887
  0.911   0.941   1.072   1.155   1.220   1.281   1.289   1.302
  1.427   1.530   1.591   1.630   1.659   1.739   1.765   1.825
  1.845   1.868   1.893   1.899   1.953   1.991   2.008   2.037
  2.093   2.154   2.270   2.341   2.370   2.402   2.435   2.544
  2.562   2.610   2.641   2.663   2.767   2.783   2.789   2.837
  2.849   2.975   3.174   3.272   3.339   3.405   3.460   3.469
  3.730   3.956   4.230   4.397   4.558
 
 Beta MOs
 -- Occupied --
-24.646 -10.205 -10.193 -10.192  -1.153  -0.771  -0.674  -0.554
 -0.504  -0.449  -0.429  -0.402  -0.393  -0.367  -0.362  -0.360
 -- Virtual --
 -0.078  -0.061   0.108   0.129   0.146   0.167   0.172   0.183
  0.236   0.255   0.300   0.494   0.551   0.561   0.582   0.624
  0.645   0.671   0.705   0.745   0.798   0.826   0.855   0.873
  0.883   0.904   0.919   0.954   1.096   1.158   1.224   1.285
  1.299   1.324   1.471   1.534   1.607   1.641   1.683   1.757
  1.783   1.848   1.868   1.882   1.898   1.916   1.997   2.000
  2.032   2.045   2.100   2.170   2.290   2.353   2.382   2.424
  2.461   2.570   2.581   2.634   2.647   2.672   2.768   2.788
  2.799   2.843   2.858   2.986   3.180   3.284   3.350   3.413
  3.469   3.481   3.732   3.958   4.258   4.418   4.576
 --------------------------------------------------------------
 
          Ground-State Mulliken Net Atomic Charges

     Atom                 Charge (a.u.)    Spin (a.u.)
  --------------------------------------------------------
      1 F                    -0.368427       0.026246
      2 C                    -0.173017       0.879890
      3 C                    -0.233045       1.005231
      4 C                    -0.329294      -0.033104
      5 H                     0.121432       0.002705
      6 H                     0.123105       0.056377
      7 H                     0.121386       0.005754
      8 H                     0.134009      -0.007558
      9 H                     0.117433       0.012175
     10 H                     0.346521       0.024624
     11 H                     0.139898       0.027659
  --------------------------------------------------------
  Sum of atomic charges =     0.000000
  Sum of spin   charges =     2.000000

 -----------------------------------------------------------------
                    Cartesian Multipole Moments
 -----------------------------------------------------------------
    Charge (ESU x 10^10)
                -0.0000
    Dipole Moment (Debye)
         X      -0.7459      Y      -2.0397      Z       0.7178
       Tot       2.2873
    Quadrupole Moments (Debye-Ang)
        XX     -24.5865     XY      -0.9783     YY     -29.8935
        XZ      -0.2360     YZ       1.5292     ZZ     -24.6426
    Octopole Moments (Debye-Ang^2)
       XXX      20.1920    XXY       0.0944    XYY       4.1875
       YYY     -13.8975    XXZ       0.9725    XYZ       0.6962
       YYZ       2.3599    XZZ       7.0947    YZZ       0.4856
       ZZZ       7.2772
    Hexadecapole Moments (Debye-Ang^3)
      XXXX    -202.2230   XXXY      -5.2853   XXYY     -74.8370
      XYYY     -13.2196   YYYY    -255.6065   XXXZ       6.8418
      XXYZ       1.7674   XYYZ       3.5605   YYYZ       5.9904
      XXZZ     -42.5397   XYZZ      -2.8940   YYZZ     -47.8178
      XZZZ       8.4985   YZZZ      -2.2445   ZZZZ     -59.0640
 -----------------------------------------------------------------
 Calculating analytic gradient of the SCF energy
 Gradient of SCF Energy
            1           2           3           4           5           6
    1  -0.0033844   0.0045348  -0.0041238   0.0004132  -0.0001535   0.0000367
    2  -0.0144375  -0.0015891   0.0013793  -0.0002013   0.0001891   0.0000134
    3   0.0104694  -0.0034699   0.0031682  -0.0000935  -0.0001256  -0.0000552
            7           8           9          10          11
    1  -0.0003269  -0.0000885   0.0000640   0.0031608  -0.0001322
    2   0.0001796   0.0001370   0.0000273   0.0142271   0.0000751
    3   0.0001425   0.0003373  -0.0000480  -0.0102651  -0.0000603
 Max gradient component =       1.444E-02
 RMS gradient           =       4.645E-03
 Gradient time:  CPU 7.32 s  wall 0.63 s
 Geometry Optimization Parameters
   NAtoms,    NIC,     NZ,  NCons,   NDum,   NFix, NCnnct, MaxDiis
       11      66       0       1       0       0       0       0

 Cartesian Hessian Update
 Hessian Updated using BFGS Update


** CONSTRAINED OPTIMIZATION IN DELOCALIZED INTERNAL COORDINATES **
   Searching for a Minimum

   Optimization Cycle:   2

                       Coordinates (Angstroms)
     ATOM                X               Y               Z
      1  F         0.4868786912    2.1165750397   -0.2168334471
      2  C        -0.3273374959   -0.5310106356    0.4476929827
      3  C         0.6874866910   -1.0714640530   -0.4340968148
      4  C        -1.6757721737   -0.1190195870   -0.0767810869
      5  H        -0.2403543581   -0.7051986122    1.5237058490
      6  H        -2.2260026231   -0.9855513861   -0.4766228185
      7  H         0.6552075881   -2.1092880951   -0.7658059796
      8  H         1.4623321313   -0.4404645912   -0.8641955987
      9  H        -2.2920663234    0.3350339757    0.7044469864
     10  H         0.3468184525    1.3679422175    0.3004869252
     11  H        -1.5702915801    0.5976427273   -0.8987999978
   Point Group: c1    Number of degrees of freedom:    27


   Energy is   -218.250854222

              Constraints and their Current Values
                                        Value     Constraint
   Distance(Angs):        1   3             3.201725     3.200000
 Hessian Updated using BFGS Update

   Using Lagrange Multiplier Algorithm


 25 Hessian modes will be used to form the next step
  Hessian Eigenvalues:
    -0.990606    0.044837    0.044998    0.045007    0.045162    0.051778
     0.065100    0.082128    0.083285    0.095438    0.125861    0.151186
     0.159991    0.160148    0.176766    0.319346    0.335062    0.341691
     0.343809    0.344134    0.348127    0.350572    0.380937    0.877625
     1.045606

 Minimum Search - Taking P-RFO Step
 Searching for Lamda that Maximizes Along the Constraint modes Only
 Value Taken    Lamda =   0.00000997
 Searching for Lamda that Minimizes Along All other modes
 Value Taken    Lamda =  -0.00037486
 Step Taken.  Stepsize is  0.022846

                             Maximum     Tolerance    Cnvgd?
         Gradient            0.010559       0.000300      NO
         Displacement        0.010462       0.001200      NO
         Energy change      0.000195       0.000001      NO


 New Cartesian Coordinates Obtained by Inverse Iteration

 Displacement from previous Coordinates is:  0.033510
 ----------------------------------------------------------------
             Standard Nuclear Orientation (Angstroms)
    I     Atom           X                Y                Z
 ----------------------------------------------------------------
    1      F       0.4949696104     2.1171634310    -0.2239332012
    2      C      -0.3308019781    -0.5317736664     0.4493980060
    3      C       0.6898058363    -1.0699430081    -0.4346322890
    4      C      -1.6793867602    -0.1194542911    -0.0753565780
    5      H      -0.2446397349    -0.7067590860     1.5254934763
    6      H      -2.2294508795    -0.9856305576    -0.4762144198
    7      H       0.6616915769    -2.1074528581    -0.7683096224
    8      H       1.4638513335    -0.4368442166    -0.8633398849
    9      H      -2.2962341052     0.3339615529     0.7058595192
   10      H       0.3499332448     1.3641712640     0.3009159518
   11      H      -1.5728391440     0.5977584360    -0.8966839580
 ----------------------------------------------------------------
 Nuclear Repulsion Energy =   115.7579779582 hartrees
 There are       18 alpha and       16 beta electrons

                       Distance Matrix (Angstroms)
             F (  1)   C (  2)   C (  3)   C (  4)   H (  5)   H (  6)
   C (  2)  2.855196
   C (  3)  3.200000  1.453539
   C (  4)  3.122877  1.504678  2.577903
   H (  5)  3.403242  1.093629  2.201632  2.228485
   H (  6)  4.136840  2.160466  2.920770  1.101598  2.832681
   H (  7)  4.262807  2.224999  1.090210  3.148487  2.836355  3.114885
   H (  8)  2.805446  2.225550  1.088003  3.256010  2.949292  3.753867
   H (  9)  3.440224  2.162913  3.491147  1.093794  2.442118  1.772874
   H ( 10)  0.929247  2.019914  2.565435  2.541823  2.478278  3.574734
   H ( 11)  2.652738  2.151845  2.848558  1.095594  3.054967  1.764952
             H (  7)   H (  8)   H (  9)   H ( 10)
   H (  8)  1.855647
   H (  9)  4.108893  4.146658
   H ( 10)  3.645903  2.416601  2.868364
   H ( 11)  3.511093  3.208271  1.777930  2.391378
 
 Applying Cartesian multipole field
    Component          Value
    ---------          -----
     (2,0,0)        1.00000E-11
     (0,2,0)        2.00000E-11
     (0,0,2)       -3.00000E-10
 Nucleus-field energy     =    -0.0000000032 hartrees
 Requested basis set is 6-31G(d,p)
 There are 37 shells and 95 basis functions
 A cutoff of  1.0D-14 yielded    687 shell pairs
 There are      4627 function pairs
 Smallest overlap matrix eigenvalue = 6.33E-03
 Guess from superposition of atomic densities
 Warning:  Energy on first SCF cycle will be non-variational
 SAD guess density has 34.000000 electrons

 -----------------------------------------------------------------------
  General SCF calculation program by
  Eric Jon Sundstrom, Paul Horn, Yuezhi Mao, Dmitri Zuev, Alec White,
  David Stuck, Shaama M.S., Shane Yost, Joonho Lee, David Small,
  Daniel Levine, Susi Lehtola, Hugh Burton, Evgeny Epifanovsky
 -----------------------------------------------------------------------
 Exchange:     0.2000 Hartree-Fock + 0.0800 Slater + 0.7200 B88
 Correlation:  0.1900 VWN1RPA + 0.8100 LYP
 Using SG-1 standard quadrature grid
 using 12 threads for integral computing
 -------------------------------------------------------
 OpenMP Integral computing Module                
 Release: version 1.0, May 2013, Q-Chem Inc. Pittsburgh 
 -------------------------------------------------------
 -------------------------------------------------------
 OpenMP BLAS3 based DFT computing Module                
 Release: version 1.0, May 2013, Q-Chem Inc. Pittsburgh 
 -------------------------------------------------------
 A unrestricted SCF calculation will be
 performed using DIIS
 SCF converges when DIIS error is below 1.0e-06
 Alpha HF Exchange    Energy =  -2.78465784886369
 Beta HF Exchange     Energy =  -2.78465784886369
 DFT Correlation      Energy =  -1.43244777633621
 DFT Exchange         Energy = -21.84680153519536
 One-Electron (alpha) Energy = -261.70629817090918
 One-Electron (beta)  Energy = -261.70629817090918
 Total Coulomb        Energy = 217.99075595917375
 ---------------------------------------
  Cycle       Energy         DIIS error
 ---------------------------------------
    1    -218.5124274369      3.01e-02  
 Alpha HF Exchange    Energy =  -2.93916387496778
 Beta HF Exchange     Energy =  -2.75172773269470
 DFT Correlation      Energy =  -1.45335386850150
 DFT Exchange         Energy = -22.58458858345830
 One-Electron (alpha) Energy = -275.38689543709398
 One-Electron (beta)  Energy = -255.03268310416988
 Total Coulomb        Energy = 226.22664349804469
    2    -218.1637911479      4.61e-03  
 Alpha HF Exchange    Energy =  -2.85889026676911
 Beta HF Exchange     Energy =  -2.67970449071389
 DFT Correlation      Energy =  -1.42439312366628
 DFT Exchange         Energy = -21.96436709262373
 One-Electron (alpha) Energy = -271.76259012623882
 One-Electron (beta)  Energy = -251.58480113029381
 Total Coulomb        Energy = 218.35611814427335
    3    -218.1606501311      5.03e-03  
 Alpha HF Exchange    Energy =  -2.90067131906680
 Beta HF Exchange     Energy =  -2.71756041981951
 DFT Correlation      Energy =  -1.43792576755744
 DFT Exchange         Energy = -22.28349004731092
 One-Electron (alpha) Energy = -273.70257773253564
 One-Electron (beta)  Energy = -253.32862942727439
 Total Coulomb        Energy = 222.36227746746459
    4    -218.2505992911      3.43e-04  
 Alpha HF Exchange    Energy =  -2.90142122420543
 Beta HF Exchange     Energy =  -2.71700493444633
 DFT Correlation      Energy =  -1.43811420755482
 DFT Exchange         Energy = -22.28446665656928
 One-Electron (alpha) Energy = -273.76377944755529
 One-Electron (beta)  Energy = -253.32047009228714
 Total Coulomb        Energy = 222.41632196951889
    5    -218.2509566381      1.96e-04  
 Alpha HF Exchange    Energy =  -2.90141240998738
 Beta HF Exchange     Energy =  -2.71722442470685
 DFT Correlation      Energy =  -1.43777423896955
 DFT Exchange         Energy = -22.28443040585883
 One-Electron (alpha) Energy = -273.74381956507028
 One-Electron (beta)  Energy = -253.29058625583127
 Total Coulomb        Energy = 222.36615681983741
    6    -218.2511125256      3.93e-05  
 Alpha HF Exchange    Energy =  -2.90152104812940
 Beta HF Exchange     Energy =  -2.71718609635994
 DFT Correlation      Energy =  -1.43776816153910
 DFT Exchange         Energy = -22.28467446674133
 One-Electron (alpha) Energy = -273.75569079427419
 One-Electron (beta)  Energy = -253.29044816224379
 Total Coulomb        Energy = 222.37819005921074
    7    -218.2511207151      1.42e-05  
 Alpha HF Exchange    Energy =  -2.90155753214752
 Beta HF Exchange     Energy =  -2.71717119501535
 DFT Correlation      Energy =  -1.43774641331345
 DFT Exchange         Energy = -22.28470609970987
 One-Electron (alpha) Energy = -273.75635457624412
 One-Electron (beta)  Energy = -253.28658057524095
 Total Coulomb        Energy = 222.37501664004114
    8    -218.2511217967      7.27e-06  
 Alpha HF Exchange    Energy =  -2.90157046635909
 Beta HF Exchange     Energy =  -2.71716073787683
 DFT Correlation      Energy =  -1.43774076979322
 DFT Exchange         Energy = -22.28470923633908
 One-Electron (alpha) Energy = -273.75757916119261
 One-Electron (beta)  Energy = -253.28566453427223
 Total Coulomb        Energy = 222.37532484933692
    9    -218.2511221015      1.15e-06  
 Alpha HF Exchange    Energy =  -2.90157517983602
 Beta HF Exchange     Energy =  -2.71715872181595
 DFT Correlation      Energy =  -1.43774033925928
 DFT Exchange         Energy = -22.28472036808839
 One-Electron (alpha) Energy = -273.75781089020074
 One-Electron (beta)  Energy = -253.28551645209325
 Total Coulomb        Energy = 222.37542188539024
   10    -218.2511221109      4.16e-07  Convergence criterion met
 ---------------------------------------
 SCF time:   CPU 21.37s  wall 2.00s 
<S^2> =          2.004224658
 Alpha HF Exchange    Energy =  -2.90157517983602
 Beta HF Exchange     Energy =  -2.71715872181595
 DFT Correlation      Energy =  -1.43774033925928
 DFT Exchange         Energy = -22.28472036808839
 One-Electron (alpha) Energy = -273.75781089020074
 One-Electron (beta)  Energy = -253.28551645209325
 Total Coulomb        Energy = 222.37542188539024
 Nuclear repulsion Energy = 115.75797795496202
 SCF   energy in the final basis set =     -218.2511221109
 Total energy in the final basis set =     -218.2511221109
 
 --------------------------------------------------------------
 
                    Orbital Energies (a.u.)
 --------------------------------------------------------------
 
 Alpha MOs
 -- Occupied --
-24.647 -10.218 -10.206 -10.194  -1.153  -0.801  -0.698  -0.585
 -0.511  -0.462  -0.450  -0.417  -0.407  -0.375  -0.363  -0.361
 -0.221  -0.217
 -- Virtual --
  0.097   0.113   0.136   0.156   0.164   0.173   0.216   0.239
  0.282   0.486   0.515   0.531   0.571   0.588   0.620   0.644
  0.682   0.733   0.782   0.815   0.845   0.860   0.874   0.887
  0.911   0.939   1.069   1.155   1.222   1.280   1.289   1.302
  1.427   1.529   1.590   1.628   1.657   1.738   1.764   1.822
  1.844   1.867   1.894   1.898   1.952   1.992   2.007   2.037
  2.093   2.153   2.270   2.341   2.369   2.400   2.434   2.542
  2.559   2.607   2.626   2.661   2.758   2.779   2.784   2.834
  2.848   2.974   3.174   3.271   3.337   3.405   3.459   3.468
  3.719   3.945   4.228   4.397   4.557
 
 Beta MOs
 -- Occupied --
-24.646 -10.206 -10.193 -10.193  -1.150  -0.771  -0.673  -0.555
 -0.502  -0.449  -0.429  -0.402  -0.393  -0.367  -0.361  -0.359
 -- Virtual --
 -0.079  -0.061   0.108   0.129   0.146   0.166   0.171   0.182
  0.235   0.255   0.298   0.494   0.550   0.561   0.581   0.624
  0.644   0.671   0.704   0.744   0.797   0.825   0.854   0.873
  0.883   0.903   0.918   0.953   1.094   1.159   1.225   1.284
  1.299   1.323   1.471   1.534   1.606   1.639   1.681   1.756
  1.782   1.846   1.867   1.883   1.899   1.914   1.996   2.000
  2.031   2.044   2.099   2.169   2.290   2.353   2.381   2.423
  2.459   2.567   2.577   2.632   2.633   2.670   2.759   2.782
  2.796   2.840   2.857   2.985   3.179   3.283   3.348   3.413
  3.468   3.480   3.721   3.947   4.256   4.418   4.575
 --------------------------------------------------------------
 
          Ground-State Mulliken Net Atomic Charges

     Atom                 Charge (a.u.)    Spin (a.u.)
  --------------------------------------------------------
      1 F                    -0.372114       0.027298
      2 C                    -0.173311       0.880044
      3 C                    -0.233443       1.006689
      4 C                    -0.329158      -0.033584
      5 H                     0.121735       0.001999
      6 H                     0.123383       0.056398
      7 H                     0.121546       0.005020
      8 H                     0.134490      -0.008164
      9 H                     0.117604       0.012069
     10 H                     0.349116       0.024643
     11 H                     0.140151       0.027588
  --------------------------------------------------------
  Sum of atomic charges =    -0.000000
  Sum of spin   charges =     2.000000

 -----------------------------------------------------------------
                    Cartesian Multipole Moments
 -----------------------------------------------------------------
    Charge (ESU x 10^10)
                 0.0000
    Dipole Moment (Debye)
         X      -0.7607      Y      -2.0540      Z       0.7288
       Tot       2.3084
    Quadrupole Moments (Debye-Ang)
        XX     -24.5836     XY      -1.0107     YY     -29.9241
        XZ      -0.2368     YZ       1.5538     ZZ     -24.6475
    Octopole Moments (Debye-Ang^2)
       XXX      20.0985    XXY       0.0402    XYY       4.1295
       YYY     -13.9810    XXZ       0.9883    XYZ       0.7230
       YYZ       2.4076    XZZ       7.0727    YZZ       0.4506
       ZZZ       7.3354
    Hexadecapole Moments (Debye-Ang^3)
      XXXX    -203.1468   XXXY      -5.5989   XXYY     -75.0375
      XYYY     -13.6776   YYYY    -255.7485   XXXZ       7.0250
      XXYZ       1.8771   XYYZ       3.6354   YYYZ       6.3408
      XXZZ     -42.7220   XYZZ      -2.9948   YYZZ     -47.8464
      XZZZ       8.6832   YZZZ      -1.9989   ZZZZ     -59.2099
 -----------------------------------------------------------------
 Calculating analytic gradient of the SCF energy
 Gradient of SCF Energy
            1           2           3           4           5           6
    1  -0.0019186   0.0027163  -0.0023191   0.0000573  -0.0002934   0.0000198
    2  -0.0064953  -0.0010068   0.0006104  -0.0000372   0.0002638   0.0000064
    3   0.0050591  -0.0019374   0.0017255   0.0000038   0.0000953  -0.0000433
            7           8           9          10          11
    1  -0.0001026   0.0001227  -0.0000144   0.0018231  -0.0000912
    2   0.0000282  -0.0000082   0.0000462   0.0065565   0.0000360
    3  -0.0000602   0.0001339  -0.0000557  -0.0048872  -0.0000336
 Max gradient component =       6.556E-03
 RMS gradient           =       2.221E-03
 Gradient time:  CPU 7.28 s  wall 0.62 s
 Geometry Optimization Parameters
   NAtoms,    NIC,     NZ,  NCons,   NDum,   NFix, NCnnct, MaxDiis
       11      66       0       1       0       0       0       0

 Cartesian Hessian Update
 Hessian Updated using BFGS Update


** CONSTRAINED OPTIMIZATION IN DELOCALIZED INTERNAL COORDINATES **
   Searching for a Minimum

   Optimization Cycle:   3

                       Coordinates (Angstroms)
     ATOM                X               Y               Z
      1  F         0.4949696104    2.1171634310   -0.2239332012
      2  C        -0.3308019781   -0.5317736664    0.4493980060
      3  C         0.6898058363   -1.0699430081   -0.4346322890
      4  C        -1.6793867602   -0.1194542911   -0.0753565780
      5  H        -0.2446397349   -0.7067590860    1.5254934763
      6  H        -2.2294508795   -0.9856305576   -0.4762144198
      7  H         0.6616915769   -2.1074528581   -0.7683096224
      8  H         1.4638513335   -0.4368442166   -0.8633398849
      9  H        -2.2962341052    0.3339615529    0.7058595192
     10  H         0.3499332448    1.3641712640    0.3009159518
     11  H        -1.5728391440    0.5977584360   -0.8966839580
   Point Group: c1    Number of degrees of freedom:    27


   Energy is   -218.251122111

              Constraints and their Current Values
                                        Value     Constraint
   Distance(Angs):        1   3             3.200000     3.200000
 Hessian Updated using BFGS Update

 24 Hessian modes will be used to form the next step
  Hessian Eigenvalues:
     0.043943    0.044946    0.045001    0.045163    0.051695    0.065132
     0.082128    0.083288    0.095441    0.124904    0.150690    0.159862
     0.160001    0.160547    0.176744    0.318957    0.335060    0.341638
     0.341835    0.343823    0.346010    0.348930    0.351459    0.544737

 Minimum Search - Taking Simple RFO Step
 Searching for Lamda that Minimizes Along All modes
 Value Taken    Lamda =  -0.00017241
 Step Taken.  Stepsize is  0.025945

                             Maximum     Tolerance    Cnvgd?
         Gradient           0.004909      0.000300      NO
         Displacement       0.008815      0.001200      NO
         Energy change     -0.000268      0.000001      NO


 New Cartesian Coordinates Obtained by Inverse Iteration

 Displacement from previous Coordinates is:  0.034214
 ----------------------------------------------------------------
             Standard Nuclear Orientation (Angstroms)
    I     Atom           X                Y                Z
 ----------------------------------------------------------------
    1      F       0.5050976873     2.1192644472    -0.2305814536
    2      C      -0.3351347244    -0.5325943042     0.4512788490
    3      C       0.6915442161    -1.0687600464    -0.4348857225
    4      C      -1.6830392475    -0.1204343332    -0.0743107637
    5      H      -0.2474892027    -0.7097506703     1.5267027885
    6      H      -2.2327702488    -0.9861660948    -0.4765633772
    7      H       0.6675311623    -2.1061085904    -0.7690498669
    8      H       1.4629317724    -0.4321770238    -0.8628151542
    9      H      -2.3002878772     0.3319179379     0.7071715472
   10      H       0.3532782032     1.3624154180     0.3009086285
   11      H      -1.5747627406     0.5975902601    -0.8946584752
 ----------------------------------------------------------------
 Nuclear Repulsion Energy =   115.5644741036 hartrees
 There are       18 alpha and       16 beta electrons

                       Distance Matrix (Angstroms)
             F (  1)   C (  2)   C (  3)   C (  4)   H (  5)   H (  6)
   C (  2)  2.864137
   C (  3)  3.200000  1.458366
   C (  4)  3.135062  1.504316  2.582244
   H (  5)  3.414346  1.093436  2.204201  2.229651
   H (  6)  4.147304  2.160472  2.925777  1.101591  2.833870
   H (  7)  4.262641  2.229459  1.090107  3.154480  2.838584  3.122750
   H (  8)  2.797681  2.229343  1.087842  3.258229  2.951675  3.756901
   H (  9)  3.456035  2.162103  3.495319  1.093770  2.443499  1.772888
   H ( 10)  0.937204  2.021778  2.562505  2.546806  2.481404  3.578819
   H ( 11)  2.661261  2.150707  2.850309  1.095561  3.055125  1.765237
             H (  7)   H (  8)   H (  9)   H ( 10)
   H (  8)  1.855667
   H (  9)  4.114748  4.148557
   H ( 10)  3.643381  2.409595  2.875480
   H ( 11)  3.514776  3.207651  1.778434  2.394093
 
 Applying Cartesian multipole field
    Component          Value
    ---------          -----
     (2,0,0)        1.00000E-11
     (0,2,0)        2.00000E-11
     (0,0,2)       -3.00000E-10
 Nucleus-field energy     =    -0.0000000033 hartrees
 Requested basis set is 6-31G(d,p)
 There are 37 shells and 95 basis functions
 A cutoff of  1.0D-14 yielded    686 shell pairs
 There are      4618 function pairs
 Smallest overlap matrix eigenvalue = 6.38E-03
 Guess from superposition of atomic densities
 Warning:  Energy on first SCF cycle will be non-variational
 SAD guess density has 34.000000 electrons

 -----------------------------------------------------------------------
  General SCF calculation program by
  Eric Jon Sundstrom, Paul Horn, Yuezhi Mao, Dmitri Zuev, Alec White,
  David Stuck, Shaama M.S., Shane Yost, Joonho Lee, David Small,
  Daniel Levine, Susi Lehtola, Hugh Burton, Evgeny Epifanovsky
 -----------------------------------------------------------------------
 Exchange:     0.2000 Hartree-Fock + 0.0800 Slater + 0.7200 B88
 Correlation:  0.1900 VWN1RPA + 0.8100 LYP
 Using SG-1 standard quadrature grid
 using 12 threads for integral computing
 -------------------------------------------------------
 OpenMP Integral computing Module                
 Release: version 1.0, May 2013, Q-Chem Inc. Pittsburgh 
 -------------------------------------------------------
 -------------------------------------------------------
 OpenMP BLAS3 based DFT computing Module                
 Release: version 1.0, May 2013, Q-Chem Inc. Pittsburgh 
 -------------------------------------------------------
 A unrestricted SCF calculation will be
 performed using DIIS
 SCF converges when DIIS error is below 1.0e-06
 Alpha HF Exchange    Energy =  -2.78353449032754
 Beta HF Exchange     Energy =  -2.78353449032754
 DFT Correlation      Energy =  -1.43218511251487
 DFT Exchange         Energy = -21.84423490761450
 One-Electron (alpha) Energy = -261.52364806051293
 One-Electron (beta)  Energy = -261.52364806051293
 Total Coulomb        Energy = 217.82375421956795
 ---------------------------------------
  Cycle       Energy         DIIS error
 ---------------------------------------
    1    -218.5025568019      3.00e-02  
 Alpha HF Exchange    Energy =  -2.93841600894863
 Beta HF Exchange     Energy =  -2.75115522730842
 DFT Correlation      Energy =  -1.45302287175890
 DFT Exchange         Energy = -22.57985009412950
 One-Electron (alpha) Energy = -275.18588598559791
 One-Electron (beta)  Energy = -254.84810503308481
 Total Coulomb        Energy = 226.02790298654222
    2    -218.1640581339      4.61e-03  
 Alpha HF Exchange    Energy =  -2.85822190136859
 Beta HF Exchange     Energy =  -2.67900860592016
 DFT Correlation      Energy =  -1.42410293764949
 DFT Exchange         Energy = -21.95981144702295
 One-Electron (alpha) Energy = -271.57455765094591
 One-Electron (beta)  Energy = -251.40798921828576
 Total Coulomb        Energy = 218.17869793882423
    3    -218.1605197220      5.05e-03  
 Alpha HF Exchange    Energy =  -2.90000545621310
 Beta HF Exchange     Energy =  -2.71698230118787
 DFT Correlation      Energy =  -1.43760642405410
 DFT Exchange         Energy = -22.27922259175002
 One-Electron (alpha) Energy = -273.50708400663223
 One-Electron (beta)  Energy = -253.14761630813743
 Total Coulomb        Energy = 222.17337994957887
    4    -218.2506630380      3.54e-04  
 Alpha HF Exchange    Energy =  -2.90077136058992
 Beta HF Exchange     Energy =  -2.71640966140036
 DFT Correlation      Energy =  -1.43781769259788
 DFT Exchange         Energy = -22.28025520628704
 One-Electron (alpha) Energy = -273.57121610577593
 One-Electron (beta)  Energy = -253.14173692964479
 Total Coulomb        Energy = 222.23269032016239
    5    -218.2510425358      2.00e-04  
 Alpha HF Exchange    Energy =  -2.90077011031127
 Beta HF Exchange     Energy =  -2.71663034263656
 DFT Correlation      Energy =  -1.43747156772069
 DFT Exchange         Energy = -22.28023095432638
 One-Electron (alpha) Energy = -273.55068465055894
 One-Electron (beta)  Energy = -253.11089296966639
 Total Coulomb        Energy = 222.18100207627430
    6    -218.2512044186      3.97e-05  
 Alpha HF Exchange    Energy =  -2.90087745801319
 Beta HF Exchange     Energy =  -2.71659206918523
 DFT Correlation      Energy =  -1.43746432033720
 DFT Exchange         Energy = -22.28046935780609
 One-Electron (alpha) Energy = -273.56252851088323
 One-Electron (beta)  Energy = -253.11072105421937
 Total Coulomb        Energy = 222.19296593871945
    7    -218.2512127314      1.47e-05  
 Alpha HF Exchange    Energy =  -2.90091615163116
 Beta HF Exchange     Energy =  -2.71657617463721
 DFT Correlation      Energy =  -1.43744316842070
 DFT Exchange         Energy = -22.28050647161728
 One-Electron (alpha) Energy = -273.56330915745775
 One-Electron (beta)  Energy = -253.10688896829652
 Total Coulomb        Energy = 222.18995210067084
    8    -218.2512138910      7.25e-06  
 Alpha HF Exchange    Energy =  -2.90092944269490
 Beta HF Exchange     Energy =  -2.71656507178606
 DFT Correlation      Energy =  -1.43743695386864
 DFT Exchange         Energy = -22.28050732795657
 One-Electron (alpha) Energy = -273.56451719802510
 One-Electron (beta)  Energy = -253.10587842952233
 Total Coulomb        Energy = 222.19014612398817
    9    -218.2512141995      1.14e-06  
 Alpha HF Exchange    Energy =  -2.90093429278748
 Beta HF Exchange     Energy =  -2.71656296745080
 DFT Correlation      Energy =  -1.43743655867491
 DFT Exchange         Energy = -22.28051872663686
 One-Electron (alpha) Energy = -273.56475764917707
 One-Electron (beta)  Energy = -253.10573198057762
 Total Coulomb        Energy = 222.19025386607751
   10    -218.2512142089      4.10e-07  Convergence criterion met
 ---------------------------------------
 SCF time:   CPU 21.13s  wall 2.00s 
<S^2> =          2.004256828
 Alpha HF Exchange    Energy =  -2.90093429278748
 Beta HF Exchange     Energy =  -2.71656296745080
 DFT Correlation      Energy =  -1.43743655867491
 DFT Exchange         Energy = -22.28051872663686
 One-Electron (alpha) Energy = -273.56475764917707
 One-Electron (beta)  Energy = -253.10573198057762
 Total Coulomb        Energy = 222.19025386607751
 Nuclear repulsion Energy = 115.56447410034863
 SCF   energy in the final basis set =     -218.2512142089
 Total energy in the final basis set =     -218.2512142089
 
 --------------------------------------------------------------
 
                    Orbital Energies (a.u.)
 --------------------------------------------------------------
 
 Alpha MOs
 -- Occupied --
-24.647 -10.219 -10.206 -10.194  -1.150  -0.801  -0.698  -0.585
 -0.509  -0.462  -0.450  -0.417  -0.407  -0.375  -0.362  -0.360
 -0.221  -0.217
 -- Virtual --
  0.096   0.113   0.135   0.155   0.164   0.173   0.215   0.239
  0.281   0.486   0.515   0.531   0.570   0.587   0.620   0.644
  0.681   0.731   0.782   0.814   0.845   0.860   0.873   0.887
  0.911   0.938   1.065   1.155   1.223   1.278   1.289   1.302
  1.427   1.529   1.589   1.626   1.656   1.737   1.763   1.819
  1.843   1.867   1.895   1.898   1.951   1.992   2.006   2.037
  2.092   2.152   2.270   2.340   2.368   2.399   2.433   2.540
  2.555   2.605   2.613   2.659   2.749   2.773   2.782   2.831
  2.847   2.972   3.174   3.272   3.337   3.405   3.457   3.467
  3.710   3.935   4.227   4.397   4.556
 
 Beta MOs
 -- Occupied --
-24.645 -10.207 -10.193 -10.193  -1.147  -0.771  -0.673  -0.555
 -0.500  -0.448  -0.429  -0.402  -0.393  -0.367  -0.360  -0.358
 -- Virtual --
 -0.080  -0.061   0.107   0.128   0.146   0.165   0.171   0.182
  0.233   0.255   0.296   0.495   0.549   0.561   0.581   0.623
  0.643   0.670   0.703   0.742   0.797   0.825   0.854   0.873
  0.882   0.903   0.918   0.951   1.091   1.159   1.226   1.282
  1.300   1.323   1.471   1.533   1.605   1.638   1.680   1.755
  1.782   1.843   1.866   1.883   1.899   1.912   1.995   2.000
  2.030   2.044   2.098   2.167   2.290   2.352   2.380   2.422
  2.457   2.564   2.575   2.621   2.630   2.667   2.750   2.776
  2.795   2.837   2.856   2.983   3.180   3.284   3.348   3.413
  3.466   3.479   3.712   3.937   4.254   4.418   4.574
 --------------------------------------------------------------
 
          Ground-State Mulliken Net Atomic Charges

     Atom                 Charge (a.u.)    Spin (a.u.)
  --------------------------------------------------------
      1 F                    -0.375395       0.028131
      2 C                    -0.173413       0.880523
      3 C                    -0.233979       1.008469
      4 C                    -0.328976      -0.034311
      5 H                     0.122005       0.001085
      6 H                     0.123697       0.056567
      7 H                     0.121699       0.004151
      8 H                     0.134912      -0.008869
      9 H                     0.117798       0.011990
     10 H                     0.351323       0.024674
     11 H                     0.140328       0.027589
  --------------------------------------------------------
  Sum of atomic charges =    -0.000000
  Sum of spin   charges =     2.000000

 -----------------------------------------------------------------
                    Cartesian Multipole Moments
 -----------------------------------------------------------------
    Charge (ESU x 10^10)
                -0.0000
    Dipole Moment (Debye)
         X      -0.7798      Y      -2.0673      Z       0.7393
       Tot       2.3299
    Quadrupole Moments (Debye-Ang)
        XX     -24.5904     XY      -1.0457     YY     -29.9526
        XZ      -0.2323     YZ       1.5727     ZZ     -24.6537
    Octopole Moments (Debye-Ang^2)
       XXX      19.9894    XXY      -0.0223    XYY       4.0515
       YYY     -14.0955    XXZ       1.0077    XYZ       0.7440
       YYZ       2.4631    XZZ       7.0499    YZZ       0.4162
       ZZZ       7.3869
    Hexadecapole Moments (Debye-Ang^3)
      XXXX    -204.1261   XXXY      -6.0135   XXYY     -75.2971
      XYYY     -14.2869   YYYY    -256.1593   XXXZ       7.2000
      XXYZ       1.9848   XYYZ       3.7128   YYYZ       6.6912
      XXZZ     -42.9056   XYZZ      -3.1305   YYZZ     -47.9161
      XZZZ       8.8578   YZZZ      -1.7567   ZZZZ     -59.3429
 -----------------------------------------------------------------
 Calculating analytic gradient of the SCF energy
 Gradient of SCF Energy
            1           2           3           4           5           6
    1  -0.0005389   0.0003477  -0.0003010  -0.0001218  -0.0001849   0.0000163
    2   0.0005046  -0.0002014  -0.0003606   0.0000495   0.0002245  -0.0000027
    3   0.0002576  -0.0002095   0.0001498  -0.0000419   0.0000622  -0.0000112
            7           8           9          10          11
    1   0.0000317   0.0001348   0.0000259   0.0005905  -0.0000005
    2   0.0000099  -0.0001082   0.0000097  -0.0001186  -0.0000068
    3  -0.0001189   0.0000726  -0.0000155  -0.0001310  -0.0000142
 Max gradient component =       5.905E-04
 RMS gradient           =       2.201E-04
 Gradient time:  CPU 7.26 s  wall 0.62 s
 Geometry Optimization Parameters
   NAtoms,    NIC,     NZ,  NCons,   NDum,   NFix, NCnnct, MaxDiis
       11      66       0       1       0       0       0       0

 Cartesian Hessian Update
 Hessian Updated using BFGS Update


** CONSTRAINED OPTIMIZATION IN DELOCALIZED INTERNAL COORDINATES **
   Searching for a Minimum

   Optimization Cycle:   4

                       Coordinates (Angstroms)
     ATOM                X               Y               Z
      1  F         0.5050976873    2.1192644472   -0.2305814536
      2  C        -0.3351347244   -0.5325943042    0.4512788490
      3  C         0.6915442161   -1.0687600464   -0.4348857225
      4  C        -1.6830392475   -0.1204343332   -0.0743107637
      5  H        -0.2474892027   -0.7097506703    1.5267027885
      6  H        -2.2327702488   -0.9861660948   -0.4765633772
      7  H         0.6675311623   -2.1061085904   -0.7690498669
      8  H         1.4629317724   -0.4321770238   -0.8628151542
      9  H        -2.3002878772    0.3319179379    0.7071715472
     10  H         0.3532782032    1.3624154180    0.3009086285
     11  H        -1.5747627406    0.5975902601   -0.8946584752
   Point Group: c1    Number of degrees of freedom:    27


   Energy is   -218.251214209

              Constraints and their Current Values
                                        Value     Constraint
   Distance(Angs):        1   3             3.200000     3.200000
 Hessian Updated using BFGS Update

 25 Hessian modes will be used to form the next step
  Hessian Eigenvalues:
     0.041155    0.044941    0.045001    0.045161    0.051704    0.064961
     0.082127    0.083289    0.095435    0.122243    0.150221    0.159639
     0.160000    0.160086    0.160366    0.176799    0.317664    0.335062
     0.340448    0.341735    0.343815    0.345473    0.349045    0.351346
     0.558909

 Minimum Search - Taking Simple RFO Step
 Searching for Lamda that Minimizes Along All modes
 Value Taken    Lamda =  -0.00000468
 Step Taken.  Stepsize is  0.009629

                             Maximum     Tolerance    Cnvgd?
         Gradient           0.000295      0.000300     YES
         Displacement       0.004870      0.001200      NO
         Energy change     -0.000092      0.000001      NO


 New Cartesian Coordinates Obtained by Inverse Iteration

 Displacement from previous Coordinates is:  0.010091
 ----------------------------------------------------------------
             Standard Nuclear Orientation (Angstroms)
    I     Atom           X                Y                Z
 ----------------------------------------------------------------
    1      F       0.5085524768     2.1198550552    -0.2314547588
    2      C      -0.3360002311    -0.5327538870     0.4517219886
    3      C       0.6915207141    -1.0684417589    -0.4346511274
    4      C      -1.6836957096    -0.1209644367    -0.0741777850
    5      H      -0.2475128800    -0.7109825465     1.5268699520
    6      H      -2.2331204835    -0.9866057697    -0.4770574646
    7      H       0.6682418137    -2.1059597155    -0.7681790000
    8      H       1.4613472562    -0.4305077845    -0.8633368768
    9      H      -2.3015654745     0.3309353695     0.7071055318
   10      H       0.3542353999     1.3632101661     0.3005455161
   11      H      -1.5751038820     0.5974123080    -0.8941889759
 ----------------------------------------------------------------
 Nuclear Repulsion Energy =   115.5315771842 hartrees
 There are       18 alpha and       16 beta electrons

                       Distance Matrix (Angstroms)
             F (  1)   C (  2)   C (  3)   C (  4)   H (  5)   H (  6)
   C (  2)  2.866415
   C (  3)  3.200000  1.458910
   C (  4)  3.138783  1.504136  2.582500
   H (  5)  3.417160  1.093407  2.203889  2.230268
   H (  6)  4.150565  2.160481  2.926093  1.101596  2.834490
   H (  7)  4.262755  2.229717  1.090058  3.154910  2.837572  3.123397
   H (  8)  2.794896  2.229415  1.087825  3.257282  2.951603  3.756002
   H (  9)  3.460909  2.162088  3.495773  1.093792  2.444737  1.772806
   H ( 10)  0.937736  2.023353  2.562656  2.548795  2.483596  3.580602
   H ( 11)  2.664333  2.150379  2.850234  1.095571  3.055474  1.765247
             H (  7)   H (  8)   H (  9)   H ( 10)
   H (  8)  1.856128
   H (  9)  4.115176  4.147963
   H ( 10)  3.643612  2.407850  2.878222
   H ( 11)  3.515210  3.205871  1.778455  2.395034
 
 Applying Cartesian multipole field
    Component          Value
    ---------          -----
     (2,0,0)        1.00000E-11
     (0,2,0)        2.00000E-11
     (0,0,2)       -3.00000E-10
 Nucleus-field energy     =    -0.0000000033 hartrees
 Requested basis set is 6-31G(d,p)
 There are 37 shells and 95 basis functions
 A cutoff of  1.0D-14 yielded    686 shell pairs
 There are      4618 function pairs
 Smallest overlap matrix eigenvalue = 6.38E-03
 Guess from superposition of atomic densities
 Warning:  Energy on first SCF cycle will be non-variational
 SAD guess density has 34.000000 electrons

 -----------------------------------------------------------------------
  General SCF calculation program by
  Eric Jon Sundstrom, Paul Horn, Yuezhi Mao, Dmitri Zuev, Alec White,
  David Stuck, Shaama M.S., Shane Yost, Joonho Lee, David Small,
  Daniel Levine, Susi Lehtola, Hugh Burton, Evgeny Epifanovsky
 -----------------------------------------------------------------------
 Exchange:     0.2000 Hartree-Fock + 0.0800 Slater + 0.7200 B88
 Correlation:  0.1900 VWN1RPA + 0.8100 LYP
 Using SG-1 standard quadrature grid
 using 12 threads for integral computing
 -------------------------------------------------------
 OpenMP Integral computing Module                
 Release: version 1.0, May 2013, Q-Chem Inc. Pittsburgh 
 -------------------------------------------------------
 -------------------------------------------------------
 OpenMP BLAS3 based DFT computing Module                
 Release: version 1.0, May 2013, Q-Chem Inc. Pittsburgh 
 -------------------------------------------------------
 A unrestricted SCF calculation will be
 performed using DIIS
 SCF converges when DIIS error is below 1.0e-06
 Alpha HF Exchange    Energy =  -2.78343378620190
 Beta HF Exchange     Energy =  -2.78343378620190
 DFT Correlation      Energy =  -1.43215230392371
 DFT Exchange         Energy = -21.84401363527018
 One-Electron (alpha) Energy = -261.49151142535493
 One-Electron (beta)  Energy = -261.49151142535493
 Total Coulomb        Energy = 217.79279954039350
 ---------------------------------------
  Cycle       Energy         DIIS error
 ---------------------------------------
    1    -218.5016796410      3.00e-02  
 Alpha HF Exchange    Energy =  -2.93835875241739
 Beta HF Exchange     Energy =  -2.75112492075699
 DFT Correlation      Energy =  -1.45298510592429
 DFT Exchange         Energy = -22.57951776761759
 One-Electron (alpha) Energy = -275.15153532544525
 One-Electron (beta)  Energy = -254.81647795589399
 Total Coulomb        Energy = 225.99435538085288
    2    -218.1640672663      4.60e-03  
 Alpha HF Exchange    Energy =  -2.85815964102859
 Beta HF Exchange     Energy =  -2.67896954874930
 DFT Correlation      Energy =  -1.42406394478397
 DFT Exchange         Energy = -21.95944977759858
 One-Electron (alpha) Energy = -271.54094007651310
 One-Electron (beta)  Energy = -251.37710976476581
 Total Coulomb        Energy = 218.14661362531078
    3    -218.1605019472      5.05e-03  
 Alpha HF Exchange    Energy =  -2.89994841310072
 Beta HF Exchange     Energy =  -2.71695173517783
 DFT Correlation      Energy =  -1.43756775336162
 DFT Exchange         Energy = -22.27890519168378
 One-Electron (alpha) Energy = -273.47308103002672
 One-Electron (beta)  Energy = -253.11642643368288
 Total Coulomb        Energy = 222.14063842085091
    4    -218.2506649552      3.55e-04  
 Alpha HF Exchange    Energy =  -2.90071496538424
 Beta HF Exchange     Energy =  -2.71637803815161
 DFT Correlation      Energy =  -1.43778012948565
 DFT Exchange         Energy = -22.27993949034076
 One-Electron (alpha) Energy = -273.53733976780347
 One-Electron (beta)  Energy = -253.11065729285022
 Total Coulomb        Energy = 222.20018645852451
    5    -218.2510460445      2.00e-04  
 Alpha HF Exchange    Energy =  -2.90071413095128
 Beta HF Exchange     Energy =  -2.71659859480340
 DFT Correlation      Energy =  -1.43743375940533
 DFT Exchange         Energy = -22.27991572954427
 One-Electron (alpha) Energy = -273.51679062920294
 One-Electron (beta)  Energy = -253.07978045603625
 Total Coulomb        Energy = 222.14844789122520
    6    -218.2512082278      3.97e-05  
 Alpha HF Exchange    Energy =  -2.90082133372945
 Beta HF Exchange     Energy =  -2.71656034897849
 DFT Correlation      Energy =  -1.43742643434787
 DFT Exchange         Energy = -22.28015369501670
 One-Electron (alpha) Energy = -273.52862534351891
 One-Electron (beta)  Energy = -253.07960642357554
 Total Coulomb        Energy = 222.16039985465994
    7    -218.2512165436      1.48e-05  
 Alpha HF Exchange    Energy =  -2.90086016023406
 Beta HF Exchange     Energy =  -2.71654442929310
 DFT Correlation      Energy =  -1.43740531414906
 DFT Exchange         Energy = -22.28019129703757
 One-Electron (alpha) Energy = -273.52941130843766
 One-Electron (beta)  Energy = -253.07577931558384
 Total Coulomb        Energy = 222.15739693603510
    8    -218.2512177078      7.24e-06  
 Alpha HF Exchange    Energy =  -2.90087346416117
 Beta HF Exchange     Energy =  -2.71653328908648
 DFT Correlation      Energy =  -1.43739907182384
 DFT Exchange         Energy = -22.28019200174763
 One-Electron (alpha) Energy = -273.53061764187129
 One-Electron (beta)  Energy = -253.07476449331116
 Total Coulomb        Energy = 222.15758476468838
    9    -218.2512180164      1.14e-06  
 Alpha HF Exchange    Energy =  -2.90087830907538
 Beta HF Exchange     Energy =  -2.71653118088828
 DFT Correlation      Energy =  -1.43739867670671
 DFT Exchange         Energy = -22.28020336754287
 One-Electron (alpha) Energy = -273.53085783661510
 One-Electron (beta)  Energy = -253.07461814355145
 Total Coulomb        Energy = 222.15769230770849
   10    -218.2512180257      4.09e-07  Convergence criterion met
 ---------------------------------------
 SCF time:   CPU 21.44s  wall 1.00s 
<S^2> =          2.004261015
 Alpha HF Exchange    Energy =  -2.90087830907538
 Beta HF Exchange     Energy =  -2.71653118088828
 DFT Correlation      Energy =  -1.43739867670671
 DFT Exchange         Energy = -22.28020336754287
 One-Electron (alpha) Energy = -273.53085783661510
 One-Electron (beta)  Energy = -253.07461814355145
 Total Coulomb        Energy = 222.15769230770849
 Nuclear repulsion Energy = 115.53157718094432
 SCF   energy in the final basis set =     -218.2512180257
 Total energy in the final basis set =     -218.2512180257
 
 --------------------------------------------------------------
 
                    Orbital Energies (a.u.)
 --------------------------------------------------------------
 
 Alpha MOs
 -- Occupied --
-24.647 -10.219 -10.206 -10.194  -1.150  -0.801  -0.698  -0.585
 -0.509  -0.462  -0.450  -0.417  -0.407  -0.375  -0.362  -0.360
 -0.221  -0.217
 -- Virtual --
  0.096   0.113   0.135   0.155   0.164   0.173   0.215   0.239
  0.281   0.486   0.515   0.531   0.570   0.587   0.620   0.644
  0.681   0.731   0.782   0.814   0.845   0.860   0.873   0.887
  0.911   0.938   1.065   1.155   1.223   1.278   1.289   1.302
  1.426   1.529   1.589   1.626   1.656   1.737   1.763   1.819
  1.843   1.867   1.895   1.898   1.951   1.991   2.006   2.037
  2.091   2.152   2.270   2.340   2.368   2.399   2.433   2.540
  2.555   2.605   2.612   2.658   2.748   2.772   2.783   2.830
  2.847   2.971   3.174   3.272   3.337   3.405   3.457   3.467
  3.709   3.934   4.227   4.397   4.556
 
 Beta MOs
 -- Occupied --
-24.645 -10.207 -10.193 -10.193  -1.147  -0.771  -0.673  -0.555
 -0.500  -0.448  -0.429  -0.402  -0.393  -0.366  -0.360  -0.358
 -- Virtual --
 -0.080  -0.061   0.107   0.128   0.146   0.165   0.171   0.182
  0.233   0.255   0.296   0.495   0.549   0.561   0.581   0.623
  0.643   0.670   0.702   0.742   0.797   0.825   0.854   0.873
  0.882   0.903   0.918   0.951   1.090   1.159   1.226   1.282
[...]


   Energy is   -218.251251639

              Constraints and their Current Values
                                        Value     Constraint
   Distance(Angs):        1   3             3.200000     3.200000
 Hessian Updated using BFGS Update

 26 Hessian modes will be used to form the next step
  Hessian Eigenvalues:
     0.001337    0.010009    0.036180    0.045022    0.050501    0.058798
     0.079783    0.082233    0.083308    0.118550    0.147120    0.157264
     0.159943    0.159959    0.160133    0.160784    0.176683    0.311077
     0.335033    0.341564    0.343787    0.344089    0.347151    0.349958
     0.356978    0.668950

 Minimum Search - Taking Simple RFO Step
 Searching for Lamda that Minimizes Along All modes
 Value Taken    Lamda =   0.00000000
 Step Taken.  Stepsize is  0.005944

                             Maximum     Tolerance    Cnvgd?
         Gradient           0.000080      0.000300     YES
         Displacement       0.002813      0.001200      NO
         Energy change     -0.000001      0.000001      NO


 New Cartesian Coordinates Obtained by Inverse Iteration

 Displacement from previous Coordinates is:  0.004884
 ----------------------------------------------------------------
             Standard Nuclear Orientation (Angstroms)
    I     Atom           X                Y                Z
 ----------------------------------------------------------------
    1      F       0.5430228337     2.1206694206    -0.2420431500
    2      C      -0.3368305326    -0.5352459874     0.4554251706
    3      C       0.6915349927    -1.0703132049    -0.4306611155
    4      C      -1.6844017037    -0.1244127393    -0.0719412466
    5      H      -0.2485155680    -0.7160184966     1.5300271452
    6      H      -2.2279674168    -0.9878039379    -0.4874527320
    7      H       0.6666186793    -2.1066844786    -0.7674048770
    8      H       1.4529003311    -0.4268789437    -0.8660645928
    9      H      -2.3085566165     0.3162757484     0.7108034623
   10      H       0.3352000611     1.3829585785     0.2972957981
   11      H      -1.5761060602     0.6026510410    -0.8847868623
 ----------------------------------------------------------------
 Nuclear Repulsion Energy =   115.3374907896 hartrees
 There are       18 alpha and       16 beta electrons

                       Distance Matrix (Angstroms)
             F (  1)   C (  2)   C (  3)   C (  4)   H (  5)   H (  6)
   C (  2)  2.883486
   C (  3)  3.200000  1.459103
   C (  4)  3.167136  1.504276  2.582341
   H (  5)  3.437087  1.093274  2.203070  2.231159
   H (  6)  4.171477  2.161071  2.921220  1.101616  2.839423
   H (  7)  4.261667  2.229718  1.089992  3.152835  2.837185  3.115910
   H (  8)  2.776199  2.227379  1.087778  3.250351  2.952909  3.742562
   H (  9)  3.506460  2.162871  3.496587  1.093830  2.445512  1.772833
   H ( 10)  0.937173  2.038661  2.583687  2.547017  2.503209  3.578571
   H ( 11)  2.684810  2.150996  2.854336  1.095932  3.054949  1.764184
             H (  7)   H (  8)   H (  9)   H ( 10)
   H (  8)  1.857342
   H (  9)  4.111874  4.145763
   H ( 10)  3.663473  2.424494  2.880668
   H ( 11)  3.519104  3.199244  1.778877  2.378926
 
 Applying Cartesian multipole field
    Component          Value
    ---------          -----
     (2,0,0)        1.00000E-11
     (0,2,0)        2.00000E-11
     (0,0,2)       -3.00000E-10
 Nucleus-field energy     =    -0.0000000033 hartrees
 Requested basis set is 6-31G(d,p)
 There are 37 shells and 95 basis functions
 A cutoff of  1.0D-14 yielded    686 shell pairs
 There are      4618 function pairs
 Smallest overlap matrix eigenvalue = 6.40E-03
 Guess from superposition of atomic densities
 Warning:  Energy on first SCF cycle will be non-variational
 SAD guess density has 34.000000 electrons

 -----------------------------------------------------------------------
  General SCF calculation program by
  Eric Jon Sundstrom, Paul Horn, Yuezhi Mao, Dmitri Zuev, Alec White,
  David Stuck, Shaama M.S., Shane Yost, Joonho Lee, David Small,
  Daniel Levine, Susi Lehtola, Hugh Burton, Evgeny Epifanovsky
 -----------------------------------------------------------------------
 Exchange:     0.2000 Hartree-Fock + 0.0800 Slater + 0.7200 B88
 Correlation:  0.1900 VWN1RPA + 0.8100 LYP
 Using SG-1 standard quadrature grid
 using 12 threads for integral computing
 -------------------------------------------------------
 OpenMP Integral computing Module                
 Release: version 1.0, May 2013, Q-Chem Inc. Pittsburgh 
 -------------------------------------------------------
 -------------------------------------------------------
 OpenMP BLAS3 based DFT computing Module                
 Release: version 1.0, May 2013, Q-Chem Inc. Pittsburgh 
 -------------------------------------------------------
 A unrestricted SCF calculation will be
 performed using DIIS
 SCF converges when DIIS error is below 1.0e-06
 Alpha HF Exchange    Energy =  -2.78323022192623
 Beta HF Exchange     Energy =  -2.78323022192623
 DFT Correlation      Energy =  -1.43201450039511
 DFT Exchange         Energy = -21.84365080655094
 One-Electron (alpha) Energy = -261.29719045715314
 One-Electron (beta)  Energy = -261.29719045715314
 Total Coulomb        Energy = 217.59893488918431
 ---------------------------------------
  Cycle       Energy         DIIS error
 ---------------------------------------
    1    -218.5000809896      3.00e-02  
 Alpha HF Exchange    Energy =  -2.93828764582881
 Beta HF Exchange     Energy =  -2.75118985490362
 DFT Correlation      Energy =  -1.45285531089811
 DFT Exchange         Energy = -22.57939809539937
 One-Electron (alpha) Energy = -274.94562374602361
 One-Electron (beta)  Energy = -254.62845530116806
 Total Coulomb        Energy = 225.79421308125848
    2    -218.1641060866      4.60e-03  
 Alpha HF Exchange    Energy =  -2.85798801914202
 Beta HF Exchange     Energy =  -2.67910291783092
 DFT Correlation      Energy =  -1.42390372975565
 DFT Exchange         Energy = -21.95914227311927
 One-Electron (alpha) Energy = -271.33436269942166
 One-Electron (beta)  Energy = -251.19365241150814
 Total Coulomb        Energy = 217.95000549707288
    3    -218.1606557674      5.04e-03  
 Alpha HF Exchange    Energy =  -2.89982637968741
 Beta HF Exchange     Energy =  -2.71705424397156
 DFT Correlation      Energy =  -1.43742711039463
 DFT Exchange         Energy = -22.27872151047146
 One-Electron (alpha) Energy = -273.26734451232039
 One-Electron (beta)  Energy = -252.93163831019089
 Total Coulomb        Energy = 221.94381753120180
    4    -218.2507037495      3.53e-04  
 Alpha HF Exchange    Energy =  -2.90058101000500
 Beta HF Exchange     Energy =  -2.71648251370267
 DFT Correlation      Energy =  -1.43763207976421
 DFT Exchange         Energy = -22.27969959364306
 One-Electron (alpha) Energy = -273.33052549513127
 One-Electron (beta)  Energy = -252.92526436315111
 Total Coulomb        Energy = 222.00161252536620
    5    -218.2510817437      1.99e-04  
 Alpha HF Exchange    Energy =  -2.90057992776984
 Beta HF Exchange     Energy =  -2.71670233057397
 DFT Correlation      Energy =  -1.43728777740537
 DFT Exchange         Energy = -22.27968023929548
 One-Electron (alpha) Energy = -273.31018264464410
 One-Electron (beta)  Energy = -252.89475094997155
 Total Coulomb        Energy = 221.95045068065784
    6    -218.2512424027      3.96e-05  
 Alpha HF Exchange    Energy =  -2.90068732184900
 Beta HF Exchange     Energy =  -2.71666517556214
 DFT Correlation      Energy =  -1.43728059344275
 DFT Exchange         Energy = -22.27992364239092
 One-Electron (alpha) Energy = -273.32198930009952
 One-Electron (beta)  Energy = -252.89461120164538
 Total Coulomb        Energy = 221.96241575961122
    7    -218.2512506890      1.47e-05  
 Alpha HF Exchange    Energy =  -2.90072541153883
 Beta HF Exchange     Energy =  -2.71664946464956
 DFT Correlation      Energy =  -1.43725929402264
 DFT Exchange         Energy = -22.27995907340643
 One-Electron (alpha) Energy = -273.32273238345232
 One-Electron (beta)  Energy = -252.89079601019660
 Total Coulomb        Energy = 221.95937901214432
    8    -218.2512518388      7.25e-06  
 Alpha HF Exchange    Energy =  -2.90073859482398
 Beta HF Exchange     Energy =  -2.71663856455235
 DFT Correlation      Energy =  -1.43725315024147
 DFT Exchange         Energy = -22.27996045720050
 One-Electron (alpha) Energy = -273.32393475435777
 One-Electron (beta)  Energy = -252.88980486435395
 Total Coulomb        Energy = 221.95958745222987
    9    -218.2512521470      1.14e-06  
 Alpha HF Exchange    Energy =  -2.90074335121016
 Beta HF Exchange     Energy =  -2.71663649801831
 DFT Correlation      Energy =  -1.43725274780469
 DFT Exchange         Energy = -22.27997163655310
 One-Electron (alpha) Energy = -273.32417038417083
 One-Electron (beta)  Energy = -252.88966058023334
 Total Coulomb        Energy = 221.95969225533662
   10    -218.2512521563      4.06e-07  Convergence criterion met
 ---------------------------------------
 SCF time:   CPU 21.25s  wall 2.00s 
<S^2> =          2.004262592
 Alpha HF Exchange    Energy =  -2.90074335121016
 Beta HF Exchange     Energy =  -2.71663649801831
 DFT Correlation      Energy =  -1.43725274780469
 DFT Exchange         Energy = -22.27997163655310
 One-Electron (alpha) Energy = -273.32417038417083
 One-Electron (beta)  Energy = -252.88966058023334
 Total Coulomb        Energy = 221.95969225533662
 Nuclear repulsion Energy = 115.33749078634625
 SCF   energy in the final basis set =     -218.2512521563
 Total energy in the final basis set =     -218.2512521563
 
 --------------------------------------------------------------
 
                    Orbital Energies (a.u.)
 --------------------------------------------------------------
 
 Alpha MOs
 -- Occupied --
-24.647 -10.219 -10.206 -10.195  -1.150  -0.801  -0.698  -0.585
 -0.509  -0.461  -0.450  -0.417  -0.408  -0.375  -0.362  -0.361
 -0.221  -0.217
 -- Virtual --
  0.096   0.113   0.135   0.154   0.164   0.173   0.214   0.238
  0.281   0.486   0.515   0.531   0.571   0.587   0.620   0.646
  0.679   0.732   0.782   0.815   0.846   0.860   0.873   0.887
  0.910   0.936   1.063   1.154   1.225   1.272   1.290   1.301
  1.425   1.527   1.592   1.627   1.654   1.739   1.761   1.821
  1.841   1.868   1.894   1.897   1.948   1.990   2.005   2.036
  2.090   2.152   2.269   2.341   2.368   2.400   2.432   2.539
  2.557   2.605   2.607   2.660   2.750   2.770   2.784   2.828
  2.847   2.970   3.173   3.274   3.336   3.404   3.456   3.468
  3.710   3.931   4.227   4.399   4.552
 
 Beta MOs
 -- Occupied --
-24.646 -10.207 -10.194 -10.193  -1.147  -0.771  -0.673  -0.555
 -0.500  -0.448  -0.429  -0.402  -0.393  -0.366  -0.360  -0.359
 -- Virtual --
 -0.079  -0.060   0.106   0.128   0.146   0.164   0.170   0.182
  0.233   0.254   0.296   0.495   0.549   0.561   0.582   0.623
  0.644   0.672   0.701   0.744   0.797   0.825   0.855   0.873
  0.882   0.903   0.918   0.950   1.089   1.158   1.228   1.276
  1.300   1.322   1.470   1.532   1.608   1.638   1.677   1.755
  1.780   1.844   1.865   1.884   1.897   1.913   1.992   1.999
  2.029   2.044   2.096   2.168   2.289   2.353   2.379   2.423
  2.456   2.565   2.574   2.614   2.631   2.669   2.751   2.773
  2.796   2.835   2.856   2.981   3.179   3.286   3.347   3.411
  3.466   3.479   3.712   3.934   4.254   4.420   4.571
 --------------------------------------------------------------
 
          Ground-State Mulliken Net Atomic Charges

     Atom                 Charge (a.u.)    Spin (a.u.)
  --------------------------------------------------------
      1 F                    -0.375353       0.026815
      2 C                    -0.171760       0.882263
      3 C                    -0.233695       1.008736
      4 C                    -0.330856      -0.034726
      5 H                     0.121751       0.000395
      6 H                     0.124442       0.056975
      7 H                     0.121274       0.003722
      8 H                     0.135522      -0.009059
      9 H                     0.117732       0.011934
     10 H                     0.351378       0.024597
     11 H                     0.139566       0.028347
  --------------------------------------------------------
  Sum of atomic charges =    -0.000000
  Sum of spin   charges =     2.000000

 -----------------------------------------------------------------
                    Cartesian Multipole Moments
 -----------------------------------------------------------------
    Charge (ESU x 10^10)
                -0.0000
    Dipole Moment (Debye)
         X      -0.8831      Y      -2.0338      Z       0.7485
       Tot       2.3402
    Quadrupole Moments (Debye-Ang)
        XX     -24.7054     XY      -1.1889     YY     -29.8769
        XZ      -0.2290     YZ       1.6216     ZZ     -24.6562
    Octopole Moments (Debye-Ang^2)
       XXX      19.4337    XXY      -0.1360    XYY       3.6249
       YYY     -13.8698    XXZ       1.0088    XYZ       0.7384
       YYZ       2.5903    XZZ       6.9088    YZZ       0.4103
       ZZZ       7.3780
    Hexadecapole Moments (Debye-Ang^3)
      XXXX    -205.5226   XXXY      -7.3855   XXYY     -75.9001
      XYYY     -16.0924   YYYY    -256.8021   XXXZ       7.4839
      XXYZ       2.1400   XYYZ       3.8474   YYYZ       7.4855
      XXZZ     -43.1205   XYZZ      -3.5310   YYZZ     -48.0457
      XZZZ       9.0982   YZZZ      -1.2576   ZZZZ     -59.5094
 -----------------------------------------------------------------
 Calculating analytic gradient of the SCF energy
 Gradient of SCF Energy
            1           2           3           4           5           6
    1  -0.0000516  -0.0000737   0.0001620   0.0000167   0.0000017   0.0000080
    2   0.0010011   0.0000500  -0.0010003   0.0000250  -0.0000314   0.0000061
    3   0.0000030   0.0000402   0.0000131  -0.0000371  -0.0000097  -0.0000288
            7           8           9          10          11
    1  -0.0000398  -0.0000098  -0.0000171  -0.0000073   0.0000109
    2   0.0000216   0.0000194  -0.0000197  -0.0000878   0.0000160
    3  -0.0000468   0.0000071  -0.0000104   0.0000582   0.0000111
 Max gradient component =       1.001E-03
 RMS gradient           =       2.500E-04
 Gradient time:  CPU 7.22 s  wall 0.62 s
 Geometry Optimization Parameters
   NAtoms,    NIC,     NZ,  NCons,   NDum,   NFix, NCnnct, MaxDiis
       11      66       0       1       0       0       0       0

 Cartesian Hessian Update
 Hessian Updated using BFGS Update


** CONSTRAINED OPTIMIZATION IN DELOCALIZED INTERNAL COORDINATES **
   Searching for a Minimum

   Optimization Cycle:  14

                       Coordinates (Angstroms)
     ATOM                X               Y               Z
      1  F         0.5430228337    2.1206694206   -0.2420431500
      2  C        -0.3368305326   -0.5352459874    0.4554251706
      3  C         0.6915349927   -1.0703132049   -0.4306611155
      4  C        -1.6844017037   -0.1244127393   -0.0719412466
      5  H        -0.2485155680   -0.7160184966    1.5300271452
      6  H        -2.2279674168   -0.9878039379   -0.4874527320
      7  H         0.6666186793   -2.1066844786   -0.7674048770
      8  H         1.4529003311   -0.4268789437   -0.8660645928
      9  H        -2.3085566165    0.3162757484    0.7108034623
     10  H         0.3352000611    1.3829585785    0.2972957981
     11  H        -1.5761060602    0.6026510410   -0.8847868623
   Point Group: c1    Number of degrees of freedom:    27


   Energy is   -218.251252156

              Constraints and their Current Values
                                        Value     Constraint
   Distance(Angs):        1   3             3.200000     3.200000
 Hessian Updated using BFGS Update

 26 Hessian modes will be used to form the next step
  Hessian Eigenvalues:
     0.001313    0.008880    0.019022    0.045028    0.050671    0.058794
     0.076659    0.082164    0.083315    0.126868    0.146247    0.159940
     0.159956    0.160007    0.160162    0.174355    0.177080    0.319537
     0.335050    0.341578    0.343798    0.344197    0.348349    0.350505
     0.371220    0.671058

 Minimum Search - Taking Simple RFO Step
 Searching for Lamda that Minimizes Along All modes
 Value Taken    Lamda =   0.00000000
 Step Taken.  Stepsize is  0.007376

                             Maximum     Tolerance    Cnvgd?
         Gradient           0.000073      0.000300     YES
         Displacement       0.003214      0.001200      NO
         Energy change     -0.000001      0.000001     YES


                       Distance Matrix (Angstroms)
             F (  1)   C (  2)   C (  3)   C (  4)   H (  5)   H (  6)
   C (  2)  2.883486
   C (  3)  3.200000  1.459103
   C (  4)  3.167136  1.504276  2.582341
   H (  5)  3.437087  1.093274  2.203070  2.231159
   H (  6)  4.171477  2.161071  2.921220  1.101616  2.839423
   H (  7)  4.261667  2.229718  1.089992  3.152835  2.837185  3.115910
   H (  8)  2.776199  2.227379  1.087778  3.250351  2.952909  3.742562
   H (  9)  3.506460  2.162871  3.496587  1.093830  2.445512  1.772833
   H ( 10)  0.937173  2.038661  2.583687  2.547017  2.503209  3.578571
   H ( 11)  2.684810  2.150996  2.854336  1.095932  3.054949  1.764184
             H (  7)   H (  8)   H (  9)   H ( 10)
   H (  8)  1.857342
   H (  9)  4.111874  4.145763
   H ( 10)  3.663473  2.424494  2.880668
   H ( 11)  3.519104  3.199244  1.778877  2.378926
 
 Final energy is   -218.251252156308     


 ******************************
 **  OPTIMIZATION CONVERGED  **
 ******************************

                       Coordinates (Angstroms)
     ATOM                X               Y               Z
      1  F         0.5430228337    2.1206694206   -0.2420431500
      2  C        -0.3368305326   -0.5352459874    0.4554251706
      3  C         0.6915349927   -1.0703132049   -0.4306611155
      4  C        -1.6844017037   -0.1244127393   -0.0719412466
      5  H        -0.2485155680   -0.7160184966    1.5300271452
      6  H        -2.2279674168   -0.9878039379   -0.4874527320
      7  H         0.6666186793   -2.1066844786   -0.7674048770
      8  H         1.4529003311   -0.4268789437   -0.8660645928
      9  H        -2.3085566165    0.3162757484    0.7108034623
     10  H         0.3352000611    1.3829585785    0.2972957981
     11  H        -1.5761060602    0.6026510410   -0.8847868623

Z-matrix Print:
$molecule
0 3
C 
H  1 1.093274
C  1 1.459103 2 118.642381
H  3 1.087778 1 121.296448 2 -104.336763 0
H  3 1.089992 1 121.343882 2 82.252539 0
C  1 1.504276 2 117.523638 3 161.983167 0
H  6 1.093830 1 111.735963 2 22.365213 0
H  6 1.095932 1 110.651709 2 143.580198 0
H  6 1.101616 1 111.112868 2 -97.959080 0
H  1 2.038661 2 101.840725 3 -101.004674 0
F  10 0.937173 1 149.136698 2 178.017339 0
$end

PES scan, value:    3.2000 energy: -218.2512521563
------- Summary of potential scan: ------ 
    3.2000      -218.2512521563
----------------------------------------- 
Archival summary:
1\1\hpc0244\JobtypUnspecified\ProcedureUnspecified\6-31G**\137(3)\knomura\WedMar1315:38:082019WedMar1315:38:082019\0\\#,JobtypUnspecified,ProcedureUnspecified,6-31G**,\\0,3\C\H,1,1.09327\C,1,1.4591,2,118.642\H,3,1.08778,1,121.296,2,-104.337,0\H,3,1.08999,1,121.344,2,82.2525,0\C,1,1.50428,2,117.524,3,161.983,0\H,6,1.09383,1,111.736,2,22.3652,0\H,6,1.09593,1,110.652,2,143.58,0\H,6,1.10162,1,111.113,2,-97.9591,0\H,1,2.03866,2,101.841,3,-101.005,0\F,10,0.937173,1,149.137,2,178.017,0\\\@

 Total job time:  38.93s(wall), 453.08s(cpu) 
 Wed Mar 13 15:38:08 2019

        *************************************************************
        *                                                           *
        *  Thank you very much for using Q-Chem.  Have a nice day.  *
        *                                                           *
        *************************************************************


