
Running Job 1 of 1 halogens/Flourine/02/F_3.xyz.data/inputs/bond_triplet_1.8.in
qchem halogens/Flourine/02/F_3.xyz.data/inputs/bond_triplet_1.8.in_31739.0 /staging/scratch/2868761/qchem31739/ 1
/usr/usc/qchem/5.1.1/exe/qcprog.exe_s halogens/Flourine/02/F_3.xyz.data/inputs/bond_triplet_1.8.in_31739.0 /staging/scratch/2868761/qchem31739/
Check license passed

                  Welcome to Q-Chem
     A Quantum Leap Into The Future Of Chemistry


 Q-Chem 5.1, Q-Chem, Inc., Pleasanton, CA (2018)

 Yihan Shao,  Zhengting Gan,  E. Epifanovsky,  A. T. B. Gilbert,  M. Wormit,  
 J. Kussmann,  A. W. Lange,  A. Behn,  Jia Deng,  Xintian Feng,  D. Ghosh,  
 M. Goldey,  P. R. Horn,  L. D. Jacobson,  I. Kaliman,  T. Kus,  A. Landau,  
 Jie Liu,  E. I. Proynov,  R. M. Richard,  R. P. Steele,  E. J. Sundstrom,  
 H. L. Woodcock III,  P. M. Zimmerman,  D. Zuev,  B. Albrecht,  E. Alguire,  
 S. A. Baeppler,  D. Barton,  Z. Benda,  Y. A. Bernard,  E. J. Berquist,  
 K. B. Bravaya,  H. Burton,  D. Casanova,  Chun-Min Chang,  Yunqing Chen,  
 A. Chien,  K. D. Closser,  M. P. Coons,  S. Coriani,  S. Dasgupta,  
 A. L. Dempwolff,  M. Diedenhofen,  Hainam Do,  R. G. Edgar,  Po-Tung Fang,  
 S. Faraji,  S. Fatehi,  Qingguo Feng,  K. D. Fenk,  J. Fosso-Tande,  
 Qinghui Ge,  A. Ghysels,  G. Gidofalvi,  J. Gomes,  J. Gonthier,  A. Gunina,  
 D. Hait,  M. W. D. Hanson-Heine,  P. H. P. Harbach,  A. W. Hauser,  
 J. E. Herr,  E. G. Hohenstein,  Z. C. Holden,  Kerwin Hui,  B. C. Huynh,  
 T.-C. Jagau,  Hyunjun Ji,  B. Kaduk,  K. Khistyaev,  Jaehoon Kim,  
 P. Klunzinger,  K. Koh,  D. Kosenkov,  L. Koulias,  T. Kowalczyk,  
 C. M. Krauter,  A. Kunitsa,  Ka Un Lao,  A. Laurent,  K. V. Lawler,  
 Joonho Lee,  D. Lefrancois,  S. Lehtola,  D. S. Levine,  Yi-Pei Li,  
 You-Sheng Lin,  Fenglai Liu,  E. Livshits,  A. Luenser,  P. Manohar,  
 E. Mansoor,  S. F. Manzer,  Shan-Ping Mao,  Yuezhi Mao,  N. Mardirossian,  
 A. V. Marenich,  T. Markovich,  L. A. Martinez-Martinez,  S. A. Maurer,  
 N. J. Mayhall,  S. C. McKenzie,  J.-M. Mewes,  A. F. Morrison,  
 J. W. Mullinax,  K. Nanda,  T. S. Nguyen-Beck,  R. Olivares-Amaya,  
 J. A. Parkhill,  T. M. Perrine,  F. Plasser,  P. Pokhilko,  S. Prager,  
 A. Prociuk,  E. Ramos,  D. R. Rehn,  F. Rob,  M. Schneider,  N. Sergueev,  
 S. M. Sharada,  S. Sharma,  D. W. Small,  T. Stauch,  T. Stein,  
 Yu-Chuan Su,  A. J. W. Thom,  A. Tkatchenko,  T. Tsuchimochi,  N. M. Tubman,  
 L. Vogt,  M. L. Vidal,  O. Vydrov,  M. A. Watson,  J. Wenzel,  
 M. de Wergifosse,  T. A. Wesolowski,  A. White,  J. Witte,  A. Yamada,  
 Jun Yang,  K. Yao,  S. Yeganeh,  S. R. Yost,  Zhi-Qiang You,  A. Zech,  
 Igor Ying Zhang,  Xing Zhang,  Yan Zhao,  Ying Zhu,  B. R. Brooks,  
 G. K. L. Chan,  C. J. Cramer,  M. S. Gordon,  W. J. Hehre,  A. Klamt,  
 M. W. Schmidt,  C. D. Sherrill,  D. G. Truhlar,  A. Aspuru-Guzik,  R. Baer,  
 A. T. Bell,  N. A. Besley,  Jeng-Da Chai,  A. E. DePrince, III,  
 R. A. DiStasio Jr.,  A. Dreuw,  B. D. Dunietz,  T. R. Furlani,  
 Chao-Ping Hsu,  Yousung Jung,  Jing Kong,  D. S. Lambrecht,  WanZhen Liang,  
 C. Ochsenfeld,  V. A. Rassolov,  L. V. Slipchenko,  J. E. Subotnik,  
 T. Van Voorhis,  J. M. Herbert,  A. I. Krylov,  P. M. W. Gill,  M. Head-Gordon

 Contributors to earlier versions of Q-Chem not listed above: 
 R. D. Adamson,  B. Austin,  J. Baker,  G. J. O. Beran,  K. Brandhorst,  
 S. T. Brown,  E. F. C. Byrd,  A. K. Chakraborty,  C.-L. Cheng,  
 Siu Hung Chien,  D. M. Chipman,  D. L. Crittenden,  H. Dachsel,  
 R. J. Doerksen,  A. D. Dutoi,  L. Fusti-Molnar,  W. A. Goddard III,  
 A. Golubeva-Zadorozhnaya,  S. R. Gwaltney,  G. Hawkins,  A. Heyden,  
 S. Hirata,  G. Kedziora,  F. J. Keil,  C. Kelley,  Jihan Kim,  R. A. King,  
 R. Z. Khaliullin,  P. P. Korambath,  W. Kurlancheek,  A. M. Lee,  M. S. Lee,  
 S. V. Levchenko,  Ching Yeh Lin,  D. Liotard,  R. C. Lochan,  I. Lotan,  
 P. E. Maslen,  N. Nair,  D. P. O'Neill,  D. Neuhauser,  E. Neuscamman,  
 C. M. Oana,  R. Olson,  B. Peters,  R. Peverati,  P. A. Pieniazek,  
 Y. M. Rhee,  J. Ritchie,  M. A. Rohrdanz,  E. Rosta,  N. J. Russ,  
 H. F. Schaefer III,  N. E. Schultz,  N. Shenvi,  A. C. Simmonett,  A. Sodt,  
 D. Stuck,  K. S. Thanthiriwatte,  V. Vanovschi,  Tao Wang,  A. Warshel,  
 C. F. Williams,  Q. Wu,  X. Xu,  W. Zhang

 Please cite Q-Chem as follows:
 Y. Shao et al., Mol. Phys. 113, 184-215 (2015)
 DOI: 10.1080/00268976.2014.952696

 Q-Chem 5.1.1 for Intel X86 EM64T Linux

 Parts of Q-Chem use Armadillo 8.300.2 (Tropical Shenanigans).
 http://arma.sourceforge.net/

 Q-Chem begins on Wed Mar 13 15:53:56 2019  

Host: 
0

     Scratch files written to /staging/scratch/2868761/qchem31739//
 Aug318 |scratch|qcdevops|jenkins|workspace|build_RNUM 6013   
Processing $rem in /usr/usc/qchem/5.1.1/config/preferences.
 MEM_TOTAL  2000 
Input Ideriv = 2
Curr. Ideriv = -1
Max.  Ideriv = 2

Checking the input file for inconsistencies... 	...done.

--------------------------------------------------------------
User input:
--------------------------------------------------------------

$comment
potential surface scanner
$end

$rem
JOBTYPE  PES_SCAN
UNRESTRICTED TRUE
SYM_IGNORE  TRUE
GEOM_OPT_MAX_CYCLES 400
SCF_MAX_CYCLES 400
METHOD   B3LYP
BASIS   6-31G**
PDB_PRINT 2
SCF_CONVERGENCE 6
THRESH 14
SCF_PRINT 1
$end
$molecule
0 3
F 0.631116 1.178634 -0.712014
C -0.572022 -1.035149 0.243323
C 0.781259 -0.616253 -0.107168
C -1.762484 -0.127806 0.149599
H -0.734905 -2.039324 0.641629
H -2.689522 -0.650204 0.404152
H 1.238802 -0.979216 -1.027340
H 1.495708 -0.380161 0.681824
H -1.672196 0.738434 0.824690
H 0.465551 2.074680 -0.994880
H -1.874412 0.291566 -0.860620
$end
$scan
stre 1 3 1.800000 1.801000 0.100000
$end
--------------------------------------------------------------
 ----------------------------------------------------------------
             Standard Nuclear Orientation (Angstroms)
    I     Atom           X                Y                Z
 ----------------------------------------------------------------
    1      F       0.6311160000     1.1786340000    -0.7120140000
    2      C      -0.5720220000    -1.0351490000     0.2433230000
    3      C       0.7812590000    -0.6162530000    -0.1071680000
    4      C      -1.7624840000    -0.1278060000     0.1495990000
    5      H      -0.7349050000    -2.0393240000     0.6416290000
    6      H      -2.6895220000    -0.6502040000     0.4041520000
    7      H       1.2388020000    -0.9792160000    -1.0273400000
    8      H       1.4957080000    -0.3801610000     0.6818240000
    9      H      -1.6721960000     0.7384340000     0.8246900000
   10      H       0.4655510000     2.0746800000    -0.9948800000
   11      H      -1.8744120000     0.2915660000    -0.8606200000
 ----------------------------------------------------------------
 Nuclear Repulsion Energy =   123.2812389241 hartrees
 There are       18 alpha and       16 beta electrons
 Requested basis set is 6-31G(d,p)
 There are 37 shells and 95 basis functions

 Total QAlloc Memory Limit   2000 MB
 Mega-Array Size       188 MB
 MEM_STATIC part       192 MB
A total of 1 constraints
  
            1
    1   1.0100000
    2   1.0100000
    3   3.0100000
    4   1.8000000
    5   1.8010000
    6   0.1000000
    7   0.0000000
    8   0.0000000
    9   0.0000000
   10   0.0000000

                       Distance Matrix (Angstroms)
             F (  1)   C (  2)   C (  3)   C (  4)   H (  5)   H (  6)
   C (  2)  2.694633
   C (  3)  1.900000  1.459345
   C (  4)  2.859805  1.499752  2.602910
   H (  5)  3.748815  1.092495  2.210109  2.225289
   H (  6)  3.951849  2.158206  3.508407  1.094119  2.409684
   H (  7)  2.263853  2.212871  1.089864  3.334337  2.793708  4.193942
   H (  8)  2.262774  2.212871  1.090268  3.311006  2.780301  4.203115
   H (  9)  2.803655  2.166557  2.953469  1.101940  2.937340  1.772038
   H ( 10)  0.954109  3.504389  2.851109  3.335404  4.587405  4.397359
   H ( 11)  2.662075  2.162194  2.905927  1.099520  2.998045  1.775101
             H (  7)   H (  8)   H (  9)   H ( 10)
   H (  8)  1.829237
   H (  9)  3.854121  3.362630
   H ( 10)  3.150437  3.146236  3.109076
   H ( 11)  3.366717  3.766704  1.755236  2.944987
 
 A cutoff of  1.0D-14 yielded    688 shell pairs
 There are      4619 function pairs
 
 -------------------------------------------------------
 OpenMP Integral Computing Module                       
 Release: version 1.0, May 2013, Q-Chem Inc. Pittsburgh 
 -------------------------------------------------------
 Integral Job Info:
 Integral job number is                      11
 Integral operator is                         1
 short-range coefficients                     0
 long-range coefficients              100000000
 Omega coefficients                           0
 if combine SR and LR in K                    0
 Integral screening is                        0
 Integral computing path is                   2
 max size of driver memory is            800000
 size of driver memory is                593474
 size of scratch memory is              2361544
 max col of scratch BK array               1296
 max len of scratch array in speh3          155
 max len of scratch index in speh4           18
 max int batch size is                      520
 min int batch size is                       52
 fixed nKL is                                52
 max L of basis functions is                  2
 order of int derivative is                   0
 number of shells is                         37
 number of basis is                          95
 number of cartesian basis is                95
 number of contracted shell pairs           688
 number of primitive shell pairs           2374
 maxK2 (contraction) of shell pair           36
 max number of K2 of shell pair               1
 max number of CS2 of shell pair             66
 max number of PS2 of shell pair            246
 mem total for path MDJ                  514716
 -------------------------------------------------------
 Smallest overlap matrix eigenvalue = 5.08E-03

 Scale SEOQF with 1.000000e-01/1.000000e-01/1.000000e+00

 Standard Electronic Orientation quadrupole field applied
 Nucleus-field energy     =    -0.0000000064 hartrees
 Guess from superposition of atomic densities
 Warning:  Energy on first SCF cycle will be non-variational
 SAD guess density has 34.000000 electrons

 -----------------------------------------------------------------------
  General SCF calculation program by
  Eric Jon Sundstrom, Paul Horn, Yuezhi Mao, Dmitri Zuev, Alec White,
  David Stuck, Shaama M.S., Shane Yost, Joonho Lee, David Small,
  Daniel Levine, Susi Lehtola, Hugh Burton, Evgeny Epifanovsky
 -----------------------------------------------------------------------
 Exchange:     0.2000 Hartree-Fock + 0.0800 Slater + 0.7200 B88
 Correlation:  0.1900 VWN1RPA + 0.8100 LYP
 Using SG-1 standard quadrature grid
 using 12 threads for integral computing
 -------------------------------------------------------
 OpenMP Integral computing Module                
 Release: version 1.0, May 2013, Q-Chem Inc. Pittsburgh 
 -------------------------------------------------------
 -------------------------------------------------------
 OpenMP BLAS3 based DFT computing Module                
 Release: version 1.0, May 2013, Q-Chem Inc. Pittsburgh 
 -------------------------------------------------------
 A unrestricted SCF calculation will be
 performed using DIIS
 SCF converges when DIIS error is below 1.0e-06
 Alpha HF Exchange    Energy =  -2.78787917388819
 Beta HF Exchange     Energy =  -2.78787917388819
 DFT Correlation      Energy =  -1.43717639167879
 DFT Exchange         Energy = -21.85331535182154
 One-Electron (alpha) Energy = -269.24952141158019
 One-Electron (beta)  Energy = -269.24952141158019
 Total Coulomb        Energy = 225.53623469099546
 ---------------------------------------
  Cycle       Energy         DIIS error
 ---------------------------------------
    1    -218.5478193057      3.03e-02  
 Alpha HF Exchange    Energy =  -2.94295552620908
 Beta HF Exchange     Energy =  -2.74544531121633
 DFT Correlation      Energy =  -1.46062623526797
 DFT Exchange         Energy = -22.58371794361533
 One-Electron (alpha) Energy = -284.00939218902238
 One-Electron (beta)  Energy = -262.53785228068517
 Total Coulomb        Energy = 234.89976344570931
    2    -218.0989871226      4.75e-03  
 Alpha HF Exchange    Energy =  -2.84723288290831
 Beta HF Exchange     Energy =  -2.67679838917089
 DFT Correlation      Energy =  -1.42639933522688
 DFT Exchange         Energy = -21.92241551978215
 One-Electron (alpha) Energy = -278.91344863497528
 One-Electron (beta)  Energy = -258.36755130341487
 Total Coulomb        Energy = 224.80951830045257
    3    -218.0630888473      5.74e-03  
 Alpha HF Exchange    Energy =  -2.90100097891063
 Beta HF Exchange     Energy =  -2.71548923939553
 DFT Correlation      Energy =  -1.44404445186007
 DFT Exchange         Energy = -22.28628891505018
 One-Electron (alpha) Energy = -281.91064194315487
 One-Electron (beta)  Energy = -260.66987018227906
 Total Coulomb        Energy = 230.44257335005500
    4    -218.2035234429      3.94e-04  
 Alpha HF Exchange    Energy =  -2.89994308491133
 Beta HF Exchange     Energy =  -2.71520735409432
 DFT Correlation      Energy =  -1.44369643731823
 DFT Exchange         Energy = -22.28115141669890
 One-Electron (alpha) Energy = -281.86118231612397
 One-Electron (beta)  Energy = -260.61144997319661
 Total Coulomb        Energy = 230.32742159516252
    5    -218.2039700695      2.55e-04  
 Alpha HF Exchange    Energy =  -2.90045593936191
 Beta HF Exchange     Energy =  -2.71562760379516
 DFT Correlation      Energy =  -1.44345558551484
 DFT Exchange         Energy = -22.28375399566256
 One-Electron (alpha) Energy = -281.87067691867543
 One-Electron (beta)  Energy = -260.60122909879425
 Total Coulomb        Energy = 230.32970826811919
    6    -218.2042519560      4.73e-05  
 Alpha HF Exchange    Energy =  -2.90039826195940
 Beta HF Exchange     Energy =  -2.71559094334686
 DFT Correlation      Energy =  -1.44340984284930
 DFT Exchange         Energy = -22.28321670422969
 One-Electron (alpha) Energy = -281.87564066454803
 One-Electron (beta)  Energy = -260.59917078919108
 Total Coulomb        Energy = 230.33192432441390
    7    -218.2042639640      1.13e-05  
 Alpha HF Exchange    Energy =  -2.90040028622551
 Beta HF Exchange     Energy =  -2.71564433539581
 DFT Correlation      Energy =  -1.44338007892630
 DFT Exchange         Energy = -22.28335935612436
 One-Electron (alpha) Energy = -281.87537493663490
 One-Electron (beta)  Energy = -260.59676565721986
 Total Coulomb        Energy = 230.32942069435560
    8    -218.2042650385      5.28e-06  
 Alpha HF Exchange    Energy =  -2.90040359765013
 Beta HF Exchange     Energy =  -2.71563305299870
 DFT Correlation      Energy =  -1.44338011551063
 DFT Exchange         Energy = -22.28333240582430
 One-Electron (alpha) Energy = -281.87608011677867
 One-Electron (beta)  Energy = -260.59662175995186
 Total Coulomb        Energy = 230.32994697021670
    9    -218.2042651608      2.08e-06  
 Alpha HF Exchange    Energy =  -2.90039901904936
 Beta HF Exchange     Energy =  -2.71563891736554
 DFT Correlation      Energy =  -1.44337767234300
 DFT Exchange         Energy = -22.28333819830765
 One-Electron (alpha) Energy = -281.87585564700038
 One-Electron (beta)  Energy = -260.59652535920594
 Total Coulomb        Energy = 230.32963071094409
   10    -218.2042651846      5.33e-07  Convergence criterion met
 ---------------------------------------
 SCF time:   CPU 21.48s  wall 2.00s 
<S^2> =          2.005111325
 Alpha HF Exchange    Energy =  -2.90039901904936
 Beta HF Exchange     Energy =  -2.71563891736554
 DFT Correlation      Energy =  -1.44337767234300
 DFT Exchange         Energy = -22.28333819830765
 One-Electron (alpha) Energy = -281.87585564700038
 One-Electron (beta)  Energy = -260.59652535920594
 Total Coulomb        Energy = 230.32963071094409
 Nuclear repulsion Energy = 123.28123891770360
 SCF   energy in the final basis set =     -218.2042651846
 Total energy in the final basis set =     -218.2042651846
 
 --------------------------------------------------------------
 
                    Orbital Energies (a.u.)
 --------------------------------------------------------------
 
 Alpha MOs
 -- Occupied --
-24.685 -10.176 -10.169 -10.169  -1.186  -0.765  -0.677  -0.576
 -0.517  -0.443  -0.432  -0.393  -0.390  -0.374  -0.371  -0.347
 -0.168  -0.149
 -- Virtual --
  0.061   0.129   0.143   0.154   0.177   0.202   0.212   0.285
  0.316   0.525   0.539   0.564   0.575   0.624   0.639   0.718
  0.727   0.744   0.780   0.790   0.855   0.877   0.881   0.917
  0.927   0.956   1.120   1.173   1.211   1.322   1.338   1.421
  1.441   1.547   1.623   1.670   1.724   1.764   1.797   1.847
  1.859   1.864   1.887   1.928   2.056   2.084   2.109   2.116
  2.184   2.225   2.342   2.356   2.400   2.445   2.459   2.527
  2.569   2.640   2.650   2.699   2.716   2.721   2.791   2.866
  2.899   3.031   3.189   3.282   3.366   3.429   3.486   3.507
  3.642   4.081   4.268   4.496   4.630
 
 Beta MOs
 -- Occupied --
-24.682 -10.169 -10.163 -10.156  -1.181  -0.737  -0.654  -0.554
 -0.496  -0.434  -0.417  -0.385  -0.382  -0.362  -0.357  -0.336
 -- Virtual --
 -0.019  -0.011   0.087   0.136   0.155   0.166   0.184   0.212
  0.226   0.301   0.332   0.532   0.567   0.597   0.602   0.654
  0.661   0.742   0.747   0.765   0.795   0.807   0.862   0.889
  0.893   0.927   0.938   0.971   1.143   1.183   1.217   1.341
  1.349   1.446   1.452   1.560   1.638   1.693   1.750   1.790
  1.818   1.858   1.866   1.883   1.909   1.952   2.061   2.094
  2.121   2.131   2.193   2.250   2.356   2.377   2.419   2.465
  2.478   2.555   2.586   2.661   2.666   2.710   2.728   2.742
  2.802   2.875   2.911   3.043   3.195   3.296   3.376   3.436
  3.502   3.514   3.657   4.093   4.291   4.510   4.653
 --------------------------------------------------------------
 
          Ground-State Mulliken Net Atomic Charges

     Atom                 Charge (a.u.)    Spin (a.u.)
  --------------------------------------------------------
      1 F                    -0.264166      -0.029230
      2 C                    -0.086906       0.972666
      3 C                    -0.201730       0.886220
      4 C                    -0.320895      -0.057524
      5 H                     0.085725      -0.005794
      6 H                     0.097175       0.004523
      7 H                     0.097800       0.004564
      8 H                     0.096990       0.007252
      9 H                     0.102675       0.051465
     10 H                     0.291815       0.124609
     11 H                     0.101516       0.041250
  --------------------------------------------------------
  Sum of atomic charges =    -0.000000
  Sum of spin   charges =     2.000000

 -----------------------------------------------------------------
                    Cartesian Multipole Moments
 -----------------------------------------------------------------
    Charge (ESU x 10^10)
                 0.0000
    Dipole Moment (Debye)
         X      -0.0616      Y       1.6868      Z      -0.5347
       Tot       1.7706
    Quadrupole Moments (Debye-Ang)
        XX     -25.5772     XY       0.4579     YY     -20.8337
        XZ      -0.2068     YZ      -2.1490     ZZ     -24.8198
    Octopole Moments (Debye-Ang^2)
       XXX      24.0370    XXY       4.0053    XYY       9.1077
       YYY      27.2528    XXZ       2.5641    XYZ       0.1858
       YYZ      -3.1412    XZZ       8.9973    YZZ       7.5423
       ZZZ       4.0220
    Hexadecapole Moments (Debye-Ang^3)
      XXXX    -245.1674   XXXY     -13.8820   XXYY     -66.5590
      XYYY      -9.3580   YYYY    -121.6538   XXXZ      17.9377
      XXYZ       6.0796   XYYZ       2.0365   YYYZ       3.6974
      XXZZ     -50.3589   XYZZ      -5.7638   YYZZ     -29.0906
      XZZZ      18.7342   YZZZ      18.1417   ZZZZ     -60.0412
 -----------------------------------------------------------------
 Calculating analytic gradient of the SCF energy
 Gradient of SCF Energy
            1           2           3           4           5           6
    1   0.0053653  -0.0000228  -0.0052530   0.0000095   0.0000001  -0.0000065
    2  -0.0608789  -0.0000437   0.0611035   0.0000142   0.0000180   0.0000157
    3   0.0204459  -0.0000240  -0.0205747  -0.0000008   0.0000401  -0.0000082
            7           8           9          10          11
    1   0.0000079   0.0000184   0.0000022  -0.0001371   0.0000161
    2  -0.0000265  -0.0000281   0.0000040  -0.0001998   0.0000214
    3  -0.0000051   0.0000019   0.0000158   0.0000994   0.0000097
 Max gradient component =       6.110E-02
 RMS gradient           =       1.590E-02
 Gradient time:  CPU 7.40 s  wall 0.67 s
 Geometry Optimization Parameters
   NAtoms,    NIC,     NZ,  NCons,   NDum,   NFix, NCnnct, MaxDiis
       11      63       0       1       0       0       0       0


** CONSTRAINED OPTIMIZATION IN DELOCALIZED INTERNAL COORDINATES **
   Searching for a Minimum

   Optimization Cycle:   1

                       Coordinates (Angstroms)
     ATOM                X               Y               Z
      1  F         0.6311160000    1.1786340000   -0.7120140000
      2  C        -0.5720220000   -1.0351490000    0.2433230000
      3  C         0.7812590000   -0.6162530000   -0.1071680000
      4  C        -1.7624840000   -0.1278060000    0.1495990000
      5  H        -0.7349050000   -2.0393240000    0.6416290000
      6  H        -2.6895220000   -0.6502040000    0.4041520000
      7  H         1.2388020000   -0.9792160000   -1.0273400000
      8  H         1.4957080000   -0.3801610000    0.6818240000
      9  H        -1.6721960000    0.7384340000    0.8246900000
     10  H         0.4655510000    2.0746800000   -0.9948800000
     11  H        -1.8744120000    0.2915660000   -0.8606200000
   Point Group: c1    Number of degrees of freedom:    27


   Energy is   -218.204265185

              Constraints and their Current Values
                                        Value     Constraint
   Distance(Angs):        1   3             1.900000     1.800000

 Attempting to Generate Delocalized Internal Coordinates

   Using Lagrange Multiplier Algorithm


 28 Hessian modes will be used to form the next step
  Hessian Eigenvalues:
    -0.946394    0.045000    0.045000    0.045031    0.076542    0.092358
     0.093161    0.098527    0.159850    0.160000    0.160000    0.160000
     0.160094    0.160136    0.200000    0.200000    0.220035    0.220416
     0.324034    0.334685    0.337353    0.343409    0.345259    0.347815
     0.348282    0.370465    0.567601    1.056643

 Minimum Search - Taking P-RFO Step
 Searching for Lamda that Maximizes Along the Constraint modes Only
 Value Taken    Lamda =   0.03367981
 Searching for Lamda that Minimizes Along All other modes
 Value Taken    Lamda =  -0.00647211
 Step Taken.  Stepsize is  0.184096

                             Maximum     Tolerance    Cnvgd?
         Gradient            0.188973       0.000300      NO
         Displacement        0.184091       0.001200      NO
         Energy change     *********       0.000001      NO


 New Cartesian Coordinates Obtained by Inverse Iteration

 Displacement from previous Coordinates is:  0.224474
 ----------------------------------------------------------------
             Standard Nuclear Orientation (Angstroms)
    I     Atom           X                Y                Z
 ----------------------------------------------------------------
    1      F       0.6287951651     1.1101426315    -0.6874870833
    2      C      -0.5676269647    -1.0195270394     0.2371218647
    3      C       0.7824737974    -0.5924385223    -0.1157293408
    4      C      -1.7636446807    -0.1191600866     0.1467498363
    5      H      -0.7238527500    -2.0250697400     0.6346516718
    6      H      -2.6869890583    -0.6472668116     0.4029373231
    7      H       1.2401459287    -0.9517118487    -1.0372599583
    8      H       1.4971001436    -0.3528717041     0.6720252492
    9      H      -1.6770048233     0.7470669733     0.8223274740
   10      H       0.4578342257     2.0057019130    -0.9692572349
   11      H      -1.8803359834     0.3003352348    -0.8628848017
 ----------------------------------------------------------------
 Nuclear Repulsion Energy =   124.9214443949 hartrees
 There are       18 alpha and       16 beta electrons

                       Distance Matrix (Angstroms)
             F (  1)   C (  2)   C (  3)   C (  4)   H (  5)   H (  6)
   C (  2)  2.611862
   C (  3)  1.802583  1.459343
   C (  4)  2.816186  1.499762  2.603000
   H (  5)  3.661593  1.092498  2.210096  2.225243
   H (  6)  3.907933  2.158186  3.508446  1.094118  2.409551
   H (  7)  2.178838  2.212847  1.089844  3.334333  2.793685  4.193953
   H (  8)  2.177760  2.212842  1.090248  3.311041  2.780337  4.203056
   H (  9)  2.779942  2.166573  2.953517  1.101935  2.937425  1.772039
   H ( 10)  0.954279  3.414518  2.753949  3.270394  4.496224  4.337174
   H ( 11)  2.642403  2.162234  2.906173  1.099525  2.997929  1.775090
             H (  7)   H (  8)   H (  9)   H ( 10)
   H (  8)  1.829287
   H (  9)  3.854048  3.362647
   H ( 10)  3.059891  3.055610  3.058018
   H ( 11)  3.366814  3.766922  1.755236  2.895968
 
 Applying Cartesian multipole field
    Component          Value
    ---------          -----
     (2,0,0)        1.00000E-11
     (0,2,0)        2.00000E-11
     (0,0,2)       -3.00000E-10
 Nucleus-field energy     =    -0.0000000062 hartrees
 Requested basis set is 6-31G(d,p)
 There are 37 shells and 95 basis functions
 A cutoff of  1.0D-14 yielded    690 shell pairs
 There are      4634 function pairs
 Smallest overlap matrix eigenvalue = 4.75E-03
 Guess from superposition of atomic densities
 Warning:  Energy on first SCF cycle will be non-variational
 SAD guess density has 34.000000 electrons

 -----------------------------------------------------------------------
  General SCF calculation program by
  Eric Jon Sundstrom, Paul Horn, Yuezhi Mao, Dmitri Zuev, Alec White,
  David Stuck, Shaama M.S., Shane Yost, Joonho Lee, David Small,
  Daniel Levine, Susi Lehtola, Hugh Burton, Evgeny Epifanovsky
 -----------------------------------------------------------------------
 Exchange:     0.2000 Hartree-Fock + 0.0800 Slater + 0.7200 B88
 Correlation:  0.1900 VWN1RPA + 0.8100 LYP
 Using SG-1 standard quadrature grid
 using 12 threads for integral computing
 -------------------------------------------------------
 OpenMP Integral computing Module                
 Release: version 1.0, May 2013, Q-Chem Inc. Pittsburgh 
 -------------------------------------------------------
 -------------------------------------------------------
 OpenMP BLAS3 based DFT computing Module                
 Release: version 1.0, May 2013, Q-Chem Inc. Pittsburgh 
 -------------------------------------------------------
 A unrestricted SCF calculation will be
 performed using DIIS
 SCF converges when DIIS error is below 1.0e-06
 Alpha HF Exchange    Energy =  -2.79195056074986
 Beta HF Exchange     Energy =  -2.79195056074986
 DFT Correlation      Energy =  -1.43913244584843
 DFT Exchange         Energy = -21.86177552056118
 One-Electron (alpha) Energy = -270.88267026318658
 One-Electron (beta)  Energy = -270.88267026318658
 Total Coulomb        Energy = 227.14455095173935
 ---------------------------------------
  Cycle       Energy         DIIS error
 ---------------------------------------
    1    -218.5841542738      3.06e-02  
 Alpha HF Exchange    Energy =  -2.94305213734037
 Beta HF Exchange     Energy =  -2.74462120728864
 DFT Correlation      Energy =  -1.46243029272392
 DFT Exchange         Energy = -22.58436125805411
 One-Electron (alpha) Energy = -285.65575118307277
 One-Electron (beta)  Energy = -264.04022253031275
 Total Coulomb        Energy = 236.42404930078445
    2    -218.0849449193      4.71e-03  
 Alpha HF Exchange    Energy =  -2.84606380110829
 Beta HF Exchange     Energy =  -2.67822345493368
 DFT Correlation      Energy =  -1.42766627816806
 DFT Exchange         Energy = -21.92774558436285
 One-Electron (alpha) Energy = -280.35396244939142
 One-Electron (beta)  Energy = -259.92197651309414
 Total Coulomb        Energy = 226.19570059523141
    3    -218.0384930971      5.83e-03  
 Alpha HF Exchange    Energy =  -2.90075597949039
 Beta HF Exchange     Energy =  -2.71554784969665
 DFT Correlation      Energy =  -1.44603243852341
 DFT Exchange         Energy = -22.28973805970632
 One-Electron (alpha) Energy = -283.52852601063148
 One-Electron (beta)  Energy = -262.22694969963857
 Total Coulomb        Energy = 231.99663094205633
    4    -218.1894747069      4.79e-04  
 Alpha HF Exchange    Energy =  -2.89933487863773
 Beta HF Exchange     Energy =  -2.71602321198773
 DFT Correlation      Energy =  -1.44559461911498
 DFT Exchange         Energy = -22.28646542181814
 One-Electron (alpha) Energy = -283.44324580143126
 One-Electron (beta)  Energy = -262.17890978249432
 Total Coulomb        Energy = 231.85787682765738
    5    -218.1902524991      2.65e-04  
 Alpha HF Exchange    Energy =  -2.89983142606148
 Beta HF Exchange     Energy =  -2.71623600921998
 DFT Correlation      Energy =  -1.44536738326298
 DFT Exchange         Energy = -22.28811355021375
 One-Electron (alpha) Energy = -283.45824873993547
 One-Electron (beta)  Energy = -262.16647394896177
 Total Coulomb        Energy = 231.86223218852760
    6    -218.1905944804      5.33e-05  
 Alpha HF Exchange    Energy =  -2.89971416116526
 Beta HF Exchange     Energy =  -2.71625562906370
 DFT Correlation      Energy =  -1.44530592412207
 DFT Exchange         Energy = -22.28752075280445
 One-Electron (alpha) Energy = -283.45969138573992
 One-Electron (beta)  Energy = -262.16494535993297
 Total Coulomb        Energy = 231.86137836492765
    7    -218.1906104592      1.20e-05  
 Alpha HF Exchange    Energy =  -2.89971390867177
 Beta HF Exchange     Energy =  -2.71633788174589
 DFT Correlation      Energy =  -1.44527651804652
 DFT Exchange         Energy = -22.28775490956256
 One-Electron (alpha) Energy = -283.45924729308501
 One-Electron (beta)  Energy = -262.16372004036589
 Total Coulomb        Energy = 231.85999445409527
    8    -218.1906117087      5.44e-06  
 Alpha HF Exchange    Energy =  -2.89970626724095
 Beta HF Exchange     Energy =  -2.71632383765827
 DFT Correlation      Energy =  -1.44527626030533
 DFT Exchange         Energy = -22.28767841558866
 One-Electron (alpha) Energy = -283.45952713791735
 One-Electron (beta)  Energy = -262.16354866026080
 Total Coulomb        Energy = 231.86000436916564
    9    -218.1906118211      2.35e-06  
 Alpha HF Exchange    Energy =  -2.89970217293374
 Beta HF Exchange     Energy =  -2.71633330822873
 DFT Correlation      Energy =  -1.44527370817646
 DFT Exchange         Energy = -22.28769996019708
 One-Electron (alpha) Energy = -283.45925860519628
 One-Electron (beta)  Energy = -262.16357879459514
 Total Coulomb        Energy = 231.85979031327938
   10    -218.1906118473      5.95e-07  Convergence criterion met
 ---------------------------------------
 SCF time:   CPU 21.59s  wall 2.00s 
<S^2> =          2.005583992
 Alpha HF Exchange    Energy =  -2.89970217293374
 Beta HF Exchange     Energy =  -2.71633330822873
 DFT Correlation      Energy =  -1.44527370817646
 DFT Exchange         Energy = -22.28769996019708
 One-Electron (alpha) Energy = -283.45925860519628
 One-Electron (beta)  Energy = -262.16357879459514
 Total Coulomb        Energy = 231.85979031327938
 Nuclear repulsion Energy = 124.92144438872324
 SCF   energy in the final basis set =     -218.1906118473
 Total energy in the final basis set =     -218.1906118473
 
 --------------------------------------------------------------
 
                    Orbital Energies (a.u.)
 --------------------------------------------------------------
 
 Alpha MOs
 -- Occupied --
-24.690 -10.177 -10.173 -10.170  -1.194  -0.768  -0.682  -0.585
 -0.517  -0.449  -0.441  -0.396  -0.392  -0.373  -0.371  -0.348
 -0.169  -0.137
 -- Virtual --
  0.064   0.127   0.142   0.153   0.176   0.201   0.210   0.285
  0.315   0.523   0.531   0.563   0.571   0.623   0.635   0.720
  0.728   0.747   0.782   0.795   0.854   0.873   0.880   0.915
  0.924   0.953   1.136   1.165   1.211   1.321   1.348   1.404
  1.462   1.535   1.623   1.691   1.752   1.777   1.801   1.844
  1.854   1.859   1.895   1.935   2.055   2.091   2.112   2.118
  2.190   2.241   2.342   2.352   2.398   2.442   2.467   2.522
  2.571   2.630   2.672   2.698   2.729   2.743   2.804   2.866
  2.904   3.034   3.188   3.281   3.369   3.428   3.486   3.507
  3.681   4.099   4.282   4.507   4.676
 
 Beta MOs
 -- Occupied --
-24.687 -10.170 -10.164 -10.160  -1.188  -0.739  -0.661  -0.562
 -0.495  -0.440  -0.427  -0.387  -0.383  -0.361  -0.358  -0.337
 -- Virtual --
 -0.020  -0.006   0.096   0.135   0.154   0.164   0.183   0.211
  0.224   0.301   0.331   0.534   0.560   0.594   0.597   0.651
  0.658   0.740   0.747   0.769   0.797   0.816   0.861   0.886
  0.891   0.925   0.936   0.966   1.157   1.176   1.218   1.342
  1.358   1.432   1.470   1.547   1.640   1.719   1.778   1.800
  1.821   1.852   1.862   1.882   1.916   1.959   2.060   2.100
  2.121   2.133   2.198   2.264   2.358   2.371   2.418   2.462
  2.486   2.550   2.588   2.654   2.694   2.708   2.740   2.766
  2.816   2.875   2.917   3.047   3.194   3.295   3.378   3.435
  3.502   3.514   3.702   4.112   4.306   4.518   4.699
 --------------------------------------------------------------
 
          Ground-State Mulliken Net Atomic Charges

     Atom                 Charge (a.u.)    Spin (a.u.)
  --------------------------------------------------------
      1 F                    -0.244256      -0.040971
      2 C                    -0.088106       0.976401
      3 C                    -0.189742       0.842818
      4 C                    -0.321979      -0.058892
      5 H                     0.085667      -0.008899
      6 H                     0.098211       0.004557
      7 H                     0.098942       0.006217
      8 H                     0.098133       0.008915
      9 H                     0.102762       0.051724
     10 H                     0.259048       0.176560
     11 H                     0.101320       0.041569
  --------------------------------------------------------
  Sum of atomic charges =    -0.000000
  Sum of spin   charges =     2.000000

 -----------------------------------------------------------------
                    Cartesian Multipole Moments
 -----------------------------------------------------------------
    Charge (ESU x 10^10)
                -0.0000
    Dipole Moment (Debye)
         X      -0.0423      Y       1.5125      Z      -0.4771
       Tot       1.5865
    Quadrupole Moments (Debye-Ang)
        XX     -25.5642     XY       0.4356     YY     -21.6728
        XZ      -0.2086     YZ      -1.8248     ZZ     -24.9651
    Octopole Moments (Debye-Ang^2)
       XXX      23.9499    XXY       3.9756    XYY       8.7470
       YYY      24.6425    XXZ       2.5805    XYZ       0.3076
       YYZ      -2.0381    XZZ       8.9454    YZZ       7.0411
       ZZZ       4.2725
    Hexadecapole Moments (Debye-Ang^3)
      XXXX    -245.0126   XXXY     -12.9139   XXYY     -65.6583
      XYYY      -9.6390   YYYY    -122.0388   XXXZ      17.5950
      XXYZ       5.7169   XYYZ       2.4519   YYYZ       5.4798
      XXZZ     -50.2071   XYZZ      -5.6660   YYZZ     -29.2368
      XZZZ      18.4802   YZZZ      17.4827   ZZZZ     -59.3877
 -----------------------------------------------------------------
 Calculating analytic gradient of the SCF energy
 Gradient of SCF Energy
            1           2           3           4           5           6
    1   0.0053508  -0.0001576  -0.0077252   0.0000376   0.0000749  -0.0000396
    2  -0.0662408   0.0012593   0.0748551   0.0000305  -0.0000951   0.0000078
    3   0.0223589  -0.0004587  -0.0249806  -0.0000469   0.0000806   0.0000039
            7           8           9          10          11
    1  -0.0000691   0.0000434   0.0000694   0.0022532   0.0001620
    2   0.0016253   0.0018980  -0.0000380  -0.0133116   0.0000096
    3  -0.0010106  -0.0002306  -0.0000457   0.0042490   0.0000806
 Max gradient component =       7.486E-02
 RMS gradient           =       1.860E-02
 Gradient time:  CPU 7.47 s  wall 0.64 s
 Geometry Optimization Parameters
   NAtoms,    NIC,     NZ,  NCons,   NDum,   NFix, NCnnct, MaxDiis
       11      63       0       1       0       0       0       0

 Cartesian Hessian Update
 Hessian Updated using BFGS Update


** CONSTRAINED OPTIMIZATION IN DELOCALIZED INTERNAL COORDINATES **
   Searching for a Minimum

   Optimization Cycle:   2

                       Coordinates (Angstroms)
     ATOM                X               Y               Z
      1  F         0.6287951651    1.1101426315   -0.6874870833
      2  C        -0.5676269647   -1.0195270394    0.2371218647
      3  C         0.7824737974   -0.5924385223   -0.1157293408
      4  C        -1.7636446807   -0.1191600866    0.1467498363
      5  H        -0.7238527500   -2.0250697400    0.6346516718
      6  H        -2.6869890583   -0.6472668116    0.4029373231
      7  H         1.2401459287   -0.9517118487   -1.0372599583
      8  H         1.4971001436   -0.3528717041    0.6720252492
      9  H        -1.6770048233    0.7470669733    0.8223274740
     10  H         0.4578342257    2.0057019130   -0.9692572349
     11  H        -1.8803359834    0.3003352348   -0.8628848017
   Point Group: c1    Number of degrees of freedom:    27


   Energy is   -218.190611847

              Constraints and their Current Values
                                        Value     Constraint
   Distance(Angs):        1   3             1.802583     1.800000
 Hessian Updated using BFGS Update

   Using Lagrange Multiplier Algorithm


 27 Hessian modes will be used to form the next step
  Hessian Eigenvalues:
    -0.950098    0.045000    0.045000    0.045031    0.078593    0.092358
     0.093168    0.098527    0.159852    0.160000    0.160003    0.160094
     0.160416    0.199993    0.200000    0.220070    0.220422    0.324042
     0.334686    0.337355    0.343410    0.345261    0.347830    0.348299
     0.370534    0.616649    1.061952

 Minimum Search - Taking P-RFO Step
 Searching for Lamda that Maximizes Along the Constraint modes Only
 Value Taken    Lamda =   0.00002881
 Searching for Lamda that Minimizes Along All other modes
 Value Taken    Lamda =  -0.00043287
 Step Taken.  Stepsize is  0.041514

                             Maximum     Tolerance    Cnvgd?
         Gradient            0.011925       0.000300      NO
         Displacement        0.036653       0.001200      NO
         Energy change      0.013653       0.000001      NO


 New Cartesian Coordinates Obtained by Inverse Iteration

 Displacement from previous Coordinates is:  0.047229
 ----------------------------------------------------------------
             Standard Nuclear Orientation (Angstroms)
    I     Atom           X                Y                Z
 ----------------------------------------------------------------
    1      F       0.6339734666     1.1127048290    -0.6889679046
    2      C      -0.5672470625    -1.0174141763     0.2363763094
    3      C       0.7825574384    -0.5876773482    -0.1174562198
    4      C      -1.7663847272    -0.1205558383     0.1476095694
    5      H      -0.7212838770    -2.0232424514     0.6336332013
    6      H      -2.6873142025    -0.6521164424     0.4051336604
    7      H       1.2403916377    -0.9595197510    -1.0334283298
    8      H       1.4971866962    -0.3615038384     0.6737068406
    9      H      -1.6823111143     0.7459260702     0.8233232039
   10      H       0.4642867486     2.0199782060    -0.9748933626
   11      H      -1.8869600041     0.2986217409    -0.8618419684
 ----------------------------------------------------------------
 Nuclear Repulsion Energy =   124.7720605549 hartrees
 There are       18 alpha and       16 beta electrons

                       Distance Matrix (Angstroms)
             F (  1)   C (  2)   C (  3)   C (  4)   H (  5)   H (  6)
   C (  2)  2.614689
   C (  3)  1.800001  1.460083
   C (  4)  2.825334  1.500055  2.604912
   H (  5)  3.663354  1.092351  2.210548  2.224561
   H (  6)  3.916964  2.157917  3.509596  1.094069  2.407794
   H (  7)  2.186438  2.209822  1.089442  3.337576  2.785457  4.194142
   H (  8)  2.185248  2.209833  1.089857  3.314473  2.772110  4.203170
   H (  9)  2.790470  2.167312  2.956204  1.102020  2.937320  1.771846
   H ( 10)  0.966277  3.428847  2.763397  3.289042  4.510052  4.356277
   H ( 11)  2.654755  2.163256  2.909632  1.099655  2.997716  1.774739
             H (  7)   H (  8)   H (  9)   H ( 10)
   H (  8)  1.826986
   H (  9)  3.859827  3.370162
   H ( 10)  3.079476  3.075097  3.076471
   H ( 11)  3.375306  3.774404  1.755490  2.916198
 
 Applying Cartesian multipole field
    Component          Value
    ---------          -----
     (2,0,0)        1.00000E-11
     (0,2,0)        2.00000E-11
     (0,0,2)       -3.00000E-10
 Nucleus-field energy     =    -0.0000000062 hartrees
 Requested basis set is 6-31G(d,p)
 There are 37 shells and 95 basis functions
 A cutoff of  1.0D-14 yielded    689 shell pairs
 There are      4622 function pairs
 Smallest overlap matrix eigenvalue = 4.79E-03
 Guess from superposition of atomic densities
 Warning:  Energy on first SCF cycle will be non-variational
 SAD guess density has 34.000000 electrons

 -----------------------------------------------------------------------
  General SCF calculation program by
  Eric Jon Sundstrom, Paul Horn, Yuezhi Mao, Dmitri Zuev, Alec White,
  David Stuck, Shaama M.S., Shane Yost, Joonho Lee, David Small,
  Daniel Levine, Susi Lehtola, Hugh Burton, Evgeny Epifanovsky
 -----------------------------------------------------------------------
 Exchange:     0.2000 Hartree-Fock + 0.0800 Slater + 0.7200 B88
 Correlation:  0.1900 VWN1RPA + 0.8100 LYP
 Using SG-1 standard quadrature grid
 using 12 threads for integral computing
 -------------------------------------------------------
 OpenMP Integral computing Module                
 Release: version 1.0, May 2013, Q-Chem Inc. Pittsburgh 
 -------------------------------------------------------
 -------------------------------------------------------
 OpenMP BLAS3 based DFT computing Module                
 Release: version 1.0, May 2013, Q-Chem Inc. Pittsburgh 
 -------------------------------------------------------
 A unrestricted SCF calculation will be
 performed using DIIS
 SCF converges when DIIS error is below 1.0e-06
 Alpha HF Exchange    Energy =  -2.79104924168717
 Beta HF Exchange     Energy =  -2.79104924168717
 DFT Correlation      Energy =  -1.43889003603437
 DFT Exchange         Energy = -21.85956198741443
 One-Electron (alpha) Energy = -270.74475038763421
 One-Electron (beta)  Energy = -270.74475038763421
 Total Coulomb        Energy = 227.02151525576102
 ---------------------------------------
  Cycle       Energy         DIIS error
 ---------------------------------------
    1    -218.5764754776      3.05e-02  
 Alpha HF Exchange    Energy =  -2.94213615638368
 Beta HF Exchange     Energy =  -2.74388603028612
 DFT Correlation      Energy =  -1.46221322148776
 DFT Exchange         Energy = -22.57906046413838
 One-Electron (alpha) Energy = -285.50678544634928
 One-Electron (beta)  Energy = -263.90597763646451
 Total Coulomb        Energy = 236.28341159607896
    2    -218.0845868103      4.70e-03  
 Alpha HF Exchange    Energy =  -2.84493647686295
 Beta HF Exchange     Energy =  -2.67749726136558
 DFT Correlation      Energy =  -1.42722754069755
 DFT Exchange         Energy = -21.92198474495945
 One-Electron (alpha) Energy = -280.15638684875933
 One-Electron (beta)  Energy = -259.78176481526555
 Total Coulomb        Energy = 226.00248467836565
    3    -218.0352524608      5.88e-03  
 Alpha HF Exchange    Energy =  -2.89967000409719
 Beta HF Exchange     Energy =  -2.71489789351451
 DFT Correlation      Energy =  -1.44577094434311
 DFT Exchange         Energy = -22.28451180518579
 One-Electron (alpha) Energy = -283.36542813464530
 One-Electron (beta)  Energy = -262.09868349820624
 Total Coulomb        Energy = 231.84762994360548
    4    -218.1892717876      5.03e-04  
 Alpha HF Exchange    Energy =  -2.89817490880919
 Beta HF Exchange     Energy =  -2.71551080151095
 DFT Correlation      Energy =  -1.44533036826470
 DFT Exchange         Energy = -22.28161800245298
 One-Electron (alpha) Energy = -283.27438565280647
 One-Electron (beta)  Energy = -262.05545978546570
 Total Coulomb        Energy = 231.70826685190642
    5    -218.1901521187      2.70e-04  
 Alpha HF Exchange    Energy =  -2.89865138611151
 Beta HF Exchange     Energy =  -2.71574272452213
 DFT Correlation      Energy =  -1.44510164408096
 DFT Exchange         Energy = -22.28324165958324
 One-Electron (alpha) Energy = -283.28885971706535
 One-Electron (beta)  Energy = -262.04390979147115
 Total Coulomb        Energy = 231.71293546706673
    6    -218.1905109070      5.38e-05  
 Alpha HF Exchange    Energy =  -2.89851910412499
 Beta HF Exchange     Energy =  -2.71578759909038
 DFT Correlation      Energy =  -1.44503732265493
 DFT Exchange         Energy = -22.28267570582867
 One-Electron (alpha) Energy = -283.28939318350115
 One-Electron (beta)  Energy = -262.04330442665417
 Total Coulomb        Energy = 231.71212917363528
    7    -218.1905276195      1.22e-05  
 Alpha HF Exchange    Energy =  -2.89851016901277
 Beta HF Exchange     Energy =  -2.71588222771976
 DFT Correlation      Energy =  -1.44500797448907
 DFT Exchange         Energy = -22.28292466480445
 One-Electron (alpha) Energy = -283.28855494229697
 One-Electron (beta)  Energy = -262.04272584243972
 Total Coulomb        Energy = 231.71101630511305
    8    -218.1905289669      5.18e-06  
 Alpha HF Exchange    Energy =  -2.89849898081058
 Beta HF Exchange     Energy =  -2.71587005292508
 DFT Correlation      Energy =  -1.44500745603371
 DFT Exchange         Energy = -22.28284276936596
 One-Electron (alpha) Energy = -283.28864166576892
 One-Electron (beta)  Energy = -262.04265261330528
 Total Coulomb        Energy = 231.71092392053163
    9    -218.1905290689      2.47e-06  
 Alpha HF Exchange    Energy =  -2.89849404373728
 Beta HF Exchange     Energy =  -2.71588109162077
 DFT Correlation      Energy =  -1.44500492662051
 DFT Exchange         Energy = -22.28286734464411
 One-Electron (alpha) Energy = -283.28830050787451
 One-Electron (beta)  Energy = -262.04275591196154
 Total Coulomb        Energy = 231.71071418143902
   10    -218.1905290963      6.30e-07  Convergence criterion met
 ---------------------------------------
 SCF time:   CPU 21.43s  wall 2.00s 
<S^2> =          2.005799779
 Alpha HF Exchange    Energy =  -2.89849404373728
 Beta HF Exchange     Energy =  -2.71588109162077
 DFT Correlation      Energy =  -1.44500492662051
 DFT Exchange         Energy = -22.28286734464411
 One-Electron (alpha) Energy = -283.28830050787451
 One-Electron (beta)  Energy = -262.04275591196154
 Total Coulomb        Energy = 231.71071418143902
 Nuclear repulsion Energy = 124.77206054874453
 SCF   energy in the final basis set =     -218.1905290963
 Total energy in the final basis set =     -218.1905290963
 
 --------------------------------------------------------------
 
                    Orbital Energies (a.u.)
 --------------------------------------------------------------
 
 Alpha MOs
 -- Occupied --
-24.690 -10.177 -10.174 -10.170  -1.190  -0.768  -0.682  -0.584
 -0.517  -0.449  -0.441  -0.395  -0.392  -0.373  -0.371  -0.348
 -0.170  -0.139
 -- Virtual --
  0.061   0.127   0.142   0.152   0.176   0.200   0.209   0.285
  0.314   0.522   0.529   0.562   0.570   0.623   0.636   0.718
  0.725   0.743   0.780   0.794   0.853   0.873   0.879   0.915
  0.924   0.953   1.135   1.166   1.211   1.321   1.346   1.402
  1.462   1.534   1.620   1.694   1.749   1.777   1.801   1.844
  1.854   1.860   1.894   1.934   2.055   2.091   2.112   2.117
  2.189   2.235   2.337   2.348   2.397   2.439   2.465   2.519
  2.566   2.627   2.661   2.700   2.724   2.738   2.798   2.865
  2.903   3.032   3.188   3.279   3.368   3.428   3.484   3.506
  3.671   4.095   4.278   4.505   4.667
 
 Beta MOs
 -- Occupied --
-24.687 -10.171 -10.164 -10.162  -1.185  -0.740  -0.661  -0.561
 -0.495  -0.440  -0.426  -0.386  -0.383  -0.361  -0.358  -0.338
 -- Virtual --
 -0.021  -0.009   0.095   0.135   0.154   0.164   0.183   0.211
  0.223   0.300   0.330   0.533   0.559   0.593   0.596   0.652
  0.658   0.738   0.744   0.766   0.795   0.814   0.861   0.885
  0.891   0.925   0.936   0.966   1.156   1.178   1.218   1.341
  1.356   1.430   1.469   1.546   1.638   1.721   1.774   1.799
  1.820   1.853   1.862   1.882   1.915   1.958   2.060   2.100
  2.121   2.133   2.198   2.257   2.355   2.365   2.417   2.459
  2.485   2.546   2.583   2.651   2.684   2.709   2.736   2.762
  2.809   2.874   2.916   3.044   3.193   3.293   3.377   3.435
  3.500   3.513   3.693   4.108   4.302   4.516   4.690
 --------------------------------------------------------------
 
          Ground-State Mulliken Net Atomic Charges

     Atom                 Charge (a.u.)    Spin (a.u.)
  --------------------------------------------------------
      1 F                    -0.247380      -0.044879
      2 C                    -0.088644       0.977570
      3 C                    -0.186874       0.832486
      4 C                    -0.322027      -0.059580
      5 H                     0.086011      -0.009127
      6 H                     0.098414       0.004457
      7 H                     0.099795       0.006693
      8 H                     0.098998       0.009356
      9 H                     0.103342       0.051695
     10 H                     0.256310       0.189705
     11 H                     0.102054       0.041625
  --------------------------------------------------------
  Sum of atomic charges =     0.000000
  Sum of spin   charges =     2.000000

 -----------------------------------------------------------------
                    Cartesian Multipole Moments
 -----------------------------------------------------------------
    Charge (ESU x 10^10)
                 0.0000
    Dipole Moment (Debye)
         X      -0.0385      Y       1.4322      Z      -0.4496
       Tot       1.5016
    Quadrupole Moments (Debye-Ang)
        XX     -25.5320     XY       0.3843     YY     -21.7154
        XZ      -0.1973     YZ      -1.7885     ZZ     -24.9933
    Octopole Moments (Debye-Ang^2)
       XXX      23.8758    XXY       3.8476    XYY       8.7649
       YYY      24.2373    XXZ       2.6226    XYZ       0.3092
       YYZ      -1.9561    XZZ       8.9174    YZZ       6.9233
       ZZZ       4.3987
    Hexadecapole Moments (Debye-Ang^3)
      XXXX    -245.5467   XXXY     -13.2696   XXYY     -65.7693
      XYYY      -9.9254   YYYY    -122.6207   XXXZ      17.7759
      XXYZ       5.7681   XYYZ       2.4700   YYYZ       5.7192
      XXZZ     -50.3228   XYZZ      -5.7699   YYZZ     -29.3786
      XZZZ      18.6529   YZZZ      17.6979   ZZZZ     -59.6122
 -----------------------------------------------------------------
 Calculating analytic gradient of the SCF energy
 Gradient of SCF Energy
            1           2           3           4           5           6
    1   0.0065532   0.0002442  -0.0066174  -0.0001801  -0.0001085  -0.0000417
    2  -0.0714969   0.0008518   0.0735775  -0.0000361   0.0000006   0.0000380
    3   0.0239538  -0.0003746  -0.0247087   0.0000170   0.0000803  -0.0000140
            7           8           9          10          11
    1  -0.0003129  -0.0002866  -0.0000135   0.0007282   0.0000353
    2   0.0014260   0.0014617   0.0000174  -0.0058645   0.0000245
    3  -0.0005357  -0.0003824   0.0000306   0.0019282   0.0000056
 Max gradient component =       7.358E-02
 RMS gradient           =       1.894E-02
 Gradient time:  CPU 7.42 s  wall 0.64 s
 Geometry Optimization Parameters
   NAtoms,    NIC,     NZ,  NCons,   NDum,   NFix, NCnnct, MaxDiis
       11      63       0       1       0       0       0       0

 Cartesian Hessian Update
 Hessian Updated using BFGS Update


** CONSTRAINED OPTIMIZATION IN DELOCALIZED INTERNAL COORDINATES **
   Searching for a Minimum

   Optimization Cycle:   3

                       Coordinates (Angstroms)
     ATOM                X               Y               Z
      1  F         0.6339734666    1.1127048290   -0.6889679046
      2  C        -0.5672470625   -1.0174141763    0.2363763094
      3  C         0.7825574384   -0.5876773482   -0.1174562198
      4  C        -1.7663847272   -0.1205558383    0.1476095694
      5  H        -0.7212838770   -2.0232424514    0.6336332013
      6  H        -2.6873142025   -0.6521164424    0.4051336604
      7  H         1.2403916377   -0.9595197510   -1.0334283298
      8  H         1.4971866962   -0.3615038384    0.6737068406
      9  H        -1.6823111143    0.7459260702    0.8233232039
     10  H         0.4642867486    2.0199782060   -0.9748933626
     11  H        -1.8869600041    0.2986217409   -0.8618419684
   Point Group: c1    Number of degrees of freedom:    27


   Energy is   -218.190529096

              Constraints and their Current Values
                                        Value     Constraint
   Distance(Angs):        1   3             1.800001     1.800000
 Hessian Updated using BFGS Update

   Using Lagrange Multiplier Algorithm


 28 Hessian modes will be used to form the next step
  Hessian Eigenvalues:
    -0.942954    0.044900    0.045001    0.045030    0.051307    0.092358
     0.093198    0.098527    0.157959    0.159966    0.160000    0.160002
     0.160093    0.160306    0.199299    0.200000    0.219808    0.220942
     0.324124    0.334694    0.337369    0.343407    0.345245    0.347912
     0.348449    0.370199    0.477630    1.076646

 Minimum Search - Taking P-RFO Step
 Searching for Lamda that Maximizes Along the Constraint modes Only
 Value Taken    Lamda =   0.00000056
 Searching for Lamda that Minimizes Along All other modes
 Value Taken    Lamda =  -0.00028392
 Step Taken.  Stepsize is  0.064896

                             Maximum     Tolerance    Cnvgd?
         Gradient            0.005973       0.000300      NO
         Displacement        0.052389       0.001200      NO
         Energy change      0.000083       0.000001      NO


 New Cartesian Coordinates Obtained by Inverse Iteration

 Displacement from previous Coordinates is:  0.065295
 ----------------------------------------------------------------
             Standard Nuclear Orientation (Angstroms)
    I     Atom           X                Y                Z
 ----------------------------------------------------------------
    1      F       0.6362038358     1.1206410145    -0.6916407248
    2      C      -0.5672032876    -1.0151370705     0.2355399377
    3      C       0.7812459450    -0.5799856416    -0.1199472784
    4      C      -1.7684465645    -0.1219077173     0.1482896282
    5      H      -0.7160658851    -2.0218902441     0.6320608197
    6      H      -2.6869498515    -0.6566753809     0.4076057976
    7      H       1.2405368370    -0.9737193605    -1.0266375298
    8      H       1.4968969789    -0.3768368454     0.6772321046
    9      H      -1.6857700674     0.7449510915     0.8235491320
   10      H       0.4687358550     2.0392623247    -0.9817647140
   11      H      -1.8922887955     0.2964988296    -0.8610921726
 ----------------------------------------------------------------
 Nuclear Repulsion Energy =   124.5859608785 hartrees
 There are       18 alpha and       16 beta electrons

                       Distance Matrix (Angstroms)
             F (  1)   C (  2)   C (  3)   C (  4)   H (  5)   H (  6)
   C (  2)  2.620954
   C (  3)  1.800000  1.460836
   C (  4)  2.834035  1.499485  2.604365
   H (  5)  3.668286  1.092218  2.210554  2.225191
   H (  6)  3.925627  2.156717  3.508928  1.094015  2.408023
   H (  7)  2.205399  2.205160  1.089982  3.340661  2.770963  4.193176
   H (  8)  2.203871  2.205228  1.090376  3.317716  2.757797  4.201855
   H (  9)  2.797947  2.166762  2.954964  1.101932  2.938095  1.771984
   H ( 10)  0.977795  3.447369  2.775041  3.309481  4.527819  4.376846
   H ( 11)  2.664808  2.163063  2.909520  1.099660  2.997988  1.774717
             H (  7)   H (  8)   H (  9)   H ( 10)
   H (  8)  1.823502
   H (  9)  3.865267  3.377749
   H ( 10)  3.110587  3.105949  3.094559
   H ( 11)  3.384591  3.782381  1.755499  2.937043
 
 Applying Cartesian multipole field
    Component          Value
    ---------          -----
     (2,0,0)        1.00000E-11
     (0,2,0)        2.00000E-11
     (0,0,2)       -3.00000E-10
 Nucleus-field energy     =    -0.0000000062 hartrees
 Requested basis set is 6-31G(d,p)
 There are 37 shells and 95 basis functions
 A cutoff of  1.0D-14 yielded    689 shell pairs
 There are      4622 function pairs
 Smallest overlap matrix eigenvalue = 4.84E-03
 Guess from superposition of atomic densities
 Warning:  Energy on first SCF cycle will be non-variational
 SAD guess density has 34.000000 electrons

 -----------------------------------------------------------------------
  General SCF calculation program by
  Eric Jon Sundstrom, Paul Horn, Yuezhi Mao, Dmitri Zuev, Alec White,
  David Stuck, Shaama M.S., Shane Yost, Joonho Lee, David Small,
  Daniel Levine, Susi Lehtola, Hugh Burton, Evgeny Epifanovsky
 -----------------------------------------------------------------------
 Exchange:     0.2000 Hartree-Fock + 0.0800 Slater + 0.7200 B88
 Correlation:  0.1900 VWN1RPA + 0.8100 LYP
 Using SG-1 standard quadrature grid
 using 12 threads for integral computing
 -------------------------------------------------------
 OpenMP Integral computing Module                
 Release: version 1.0, May 2013, Q-Chem Inc. Pittsburgh 
 -------------------------------------------------------
 -------------------------------------------------------
 OpenMP BLAS3 based DFT computing Module                
 Release: version 1.0, May 2013, Q-Chem Inc. Pittsburgh 
 -------------------------------------------------------
 A unrestricted SCF calculation will be
 performed using DIIS
 SCF converges when DIIS error is below 1.0e-06
 Alpha HF Exchange    Energy =  -2.79008335321699
 Beta HF Exchange     Energy =  -2.79008335321699
 DFT Correlation      Energy =  -1.43859335018236
 DFT Exchange         Energy = -21.85719176183397
 One-Electron (alpha) Energy = -270.56975804050637
 One-Electron (beta)  Energy = -270.56975804050637
 Total Coulomb        Energy = 226.86123987272555
 ---------------------------------------
  Cycle       Energy         DIIS error
 ---------------------------------------
    1    -218.5682671544      3.04e-02  
 Alpha HF Exchange    Energy =  -2.94126138999207
 Beta HF Exchange     Energy =  -2.74312087912515
 DFT Correlation      Energy =  -1.46195604385747
 DFT Exchange         Energy = -22.57375305879869
 One-Electron (alpha) Energy = -285.32389720252684
 One-Electron (beta)  Energy = -263.73753482270445
 Total Coulomb        Energy = 236.11113437433750
    2    -218.0844281503      4.70e-03  
 Alpha HF Exchange    Energy =  -2.84394898818682
 Beta HF Exchange     Energy =  -2.67667310579337
 DFT Correlation      Energy =  -1.42674861742213
 DFT Exchange         Energy = -21.91614993702744
 One-Electron (alpha) Energy = -279.92896450719138
 One-Electron (beta)  Energy = -259.60201275192031
 Total Coulomb        Energy = 225.77587362319579
    3    -218.0326634120      5.92e-03  
 Alpha HF Exchange    Energy =  -2.89865519086064
 Beta HF Exchange     Energy =  -2.71419942462837
 DFT Correlation      Energy =  -1.44545049115788
 DFT Exchange         Energy = -22.27926512928784
 One-Electron (alpha) Energy = -283.16796161258469
 One-Electron (beta)  Energy = -261.93327411948536
 Total Coulomb        Energy = 231.66351643620339
    4    -218.1893286595      5.22e-04  
 Alpha HF Exchange    Energy =  -2.89709161178192
 Beta HF Exchange     Energy =  -2.71491676923185
 DFT Correlation      Energy =  -1.44500524586570
 DFT Exchange         Energy = -22.27662142271266
 One-Electron (alpha) Energy = -283.07151129891514
 One-Electron (beta)  Energy = -261.89389871688945
 Total Coulomb        Energy = 231.52278223288712
    5    -218.1903019602      2.75e-04  
 Alpha HF Exchange    Energy =  -2.89755274362012
 Beta HF Exchange     Energy =  -2.71518470211830
 DFT Correlation      Energy =  -1.44477654519362
 DFT Exchange         Energy = -22.27830868183328
 One-Electron (alpha) Energy = -283.08559357953891
 One-Electron (beta)  Energy = -261.88385368574291
 Total Coulomb        Energy = 231.52863387425660
    6    -218.1906751915      5.44e-05  
 Alpha HF Exchange    Energy =  -2.89740668057294
 Beta HF Exchange     Energy =  -2.71525479281739
 DFT Correlation      Energy =  -1.44470987651802
 DFT Exchange         Energy = -22.27777643400913
 One-Electron (alpha) Energy = -283.08529927204563
 One-Electron (beta)  Energy = -261.88427325703543
 Total Coulomb        Energy = 231.52806677213738
    7    -218.1906926685      1.24e-05  
 Alpha HF Exchange    Energy =  -2.89738786238454
 Beta HF Exchange     Energy =  -2.71536165470672
 DFT Correlation      Energy =  -1.44468044795062
 DFT Exchange         Energy = -22.27803548562462
 One-Electron (alpha) Energy = -283.08401288077846
 One-Electron (beta)  Energy = -261.88435633222207
 Total Coulomb        Energy = 231.52717965802657
    8    -218.1906941333      4.82e-06  
 Alpha HF Exchange    Energy =  -2.89737336543465
 Beta HF Exchange     Energy =  -2.71535207202005
 DFT Correlation      Energy =  -1.44467959847449
 DFT Exchange         Energy = -22.27795185689016
 One-Electron (alpha) Energy = -283.08390335249578
 One-Electron (beta)  Energy = -261.88440067790162
 Total Coulomb        Energy = 231.52700582592604
    9    -218.1906942250      2.56e-06  
 Alpha HF Exchange    Energy =  -2.89736775009479
 Beta HF Exchange     Energy =  -2.71536448399974
 DFT Correlation      Energy =  -1.44467713519201
 DFT Exchange         Energy = -22.27797925218671
 One-Electron (alpha) Energy = -283.08349701783783
 One-Electron (beta)  Energy = -261.88457032554527
 Total Coulomb        Energy = 231.52680083959382
   10    -218.1906942529      6.74e-07  Convergence criterion met
 ---------------------------------------
 SCF time:   CPU 21.41s  wall 2.00s 
<S^2> =          2.006021083
 Alpha HF Exchange    Energy =  -2.89736775009479
 Beta HF Exchange     Energy =  -2.71536448399974
 DFT Correlation      Energy =  -1.44467713519201
 DFT Exchange         Energy = -22.27797925218671
 One-Electron (alpha) Energy = -283.08349701783783
 One-Electron (beta)  Energy = -261.88457032554527
 Total Coulomb        Energy = 231.52680083959382
 Nuclear repulsion Energy = 124.58596087231982
 SCF   energy in the final basis set =     -218.1906942529
 Total energy in the final basis set =     -218.1906942529
 
 --------------------------------------------------------------
 
                    Orbital Energies (a.u.)
 --------------------------------------------------------------
 
 Alpha MOs
 -- Occupied --
-24.690 -10.178 -10.176 -10.171  -1.187  -0.769  -0.682  -0.582
 -0.517  -0.449  -0.440  -0.395  -0.391  -0.373  -0.371  -0.348
 -0.170  -0.140
 -- Virtual --
  0.059   0.126   0.142   0.152   0.176   0.200   0.208   0.285
  0.313   0.522   0.528   0.562   0.570   0.623   0.638   0.716
  0.720   0.738   0.777   0.793   0.853   0.872   0.879   0.916
  0.923   0.952   1.134   1.170   1.211   1.320   1.345   1.400
  1.460   1.534   1.616   1.699   1.742   1.775   1.800   1.846
  1.855   1.861   1.893   1.932   2.055   2.090   2.112   2.118
  2.188   2.228   2.333   2.343   2.396   2.436   2.467   2.515
  2.562   2.623   2.648   2.703   2.718   2.735   2.789   2.865
  2.903   3.028   3.188   3.275   3.366   3.429   3.481   3.506
  3.661   4.092   4.274   4.503   4.656
 
 Beta MOs
 -- Occupied --
-24.687 -10.171 -10.165 -10.163  -1.181  -0.740  -0.661  -0.559
 -0.496  -0.439  -0.425  -0.386  -0.383  -0.362  -0.358  -0.338
 -- Virtual --
 -0.021  -0.011   0.094   0.134   0.153   0.163   0.183   0.210
  0.222   0.300   0.329   0.532   0.557   0.593   0.596   0.652
  0.659   0.736   0.740   0.762   0.794   0.812   0.860   0.885
  0.890   0.926   0.936   0.965   1.155   1.181   1.218   1.340
  1.354   1.428   1.468   1.546   1.635   1.725   1.765   1.798
  1.819   1.854   1.863   1.884   1.913   1.958   2.060   2.100
  2.121   2.133   2.197   2.250   2.351   2.359   2.416   2.456
  2.489   2.541   2.579   2.647   2.671   2.712   2.732   2.760
  2.800   2.874   2.915   3.041   3.193   3.289   3.375   3.436
  3.496   3.513   3.684   4.105   4.298   4.514   4.679
 --------------------------------------------------------------
 
          Ground-State Mulliken Net Atomic Charges

     Atom                 Charge (a.u.)    Spin (a.u.)
  --------------------------------------------------------
      1 F                    -0.249984      -0.048579
      2 C                    -0.089376       0.978744
      3 C                    -0.184172       0.822255
      4 C                    -0.321918      -0.060657
      5 H                     0.086373      -0.009257
      6 H                     0.098508       0.004308
      7 H                     0.100222       0.007522
      8 H                     0.099450       0.010148
      9 H                     0.103982       0.051735
     10 H                     0.254044       0.201983
     11 H                     0.102872       0.041798
  --------------------------------------------------------
  Sum of atomic charges =    -0.000000
  Sum of spin   charges =     2.000000

 -----------------------------------------------------------------
                    Cartesian Multipole Moments
 -----------------------------------------------------------------
    Charge (ESU x 10^10)
                -0.0000
    Dipole Moment (Debye)
         X      -0.0347      Y       1.3474      Z      -0.4205
       Tot       1.4119
    Quadrupole Moments (Debye-Ang)
        XX     -25.5096     XY       0.3138     YY     -21.7087
        XZ      -0.1788     YZ      -1.7681     ZZ     -25.0262
    Octopole Moments (Debye-Ang^2)
       XXX      23.8513    XXY       3.6674    XYY       8.8261
       YYY      23.8007    XXZ       2.6766    XYZ       0.3026
       YYZ      -1.9039    XZZ       8.8917    YZZ       6.7897
       ZZZ       4.5574
    Hexadecapole Moments (Debye-Ang^3)
      XXXX    -245.8250   XXXY     -13.6585   XXYY     -65.8598
      XYYY     -10.2308   YYYY    -123.1952   XXXZ      17.9261
      XXYZ       5.8340   XYYZ       2.4685   YYYZ       5.9113
      XXZZ     -50.4094   XYZZ      -5.8721   YYZZ     -29.5300
      XZZZ      18.8036   YZZZ      17.9534   ZZZZ     -59.8904
 -----------------------------------------------------------------
 Calculating analytic gradient of the SCF energy
 Gradient of SCF Energy
            1           2           3           4           5           6
    1   0.0073597   0.0003811  -0.0062787  -0.0000595  -0.0001392   0.0000257
    2  -0.0748502   0.0002970   0.0725842   0.0000488   0.0000203  -0.0000276
    3   0.0249486  -0.0001852  -0.0243871  -0.0000096   0.0000778  -0.0000165
            7           8           9          10          11
    1  -0.0003510  -0.0003407  -0.0000205  -0.0005637  -0.0000131
    2   0.0006399   0.0006183  -0.0000086   0.0006611   0.0000168
    3  -0.0001814  -0.0001582   0.0000333  -0.0001140  -0.0000078
 Max gradient component =       7.485E-02
 RMS gradient           =       1.921E-02
 Gradient time:  CPU 7.49 s  wall 0.66 s
 Geometry Optimization Parameters
   NAtoms,    NIC,     NZ,  NCons,   NDum,   NFix, NCnnct, MaxDiis
       11      63       0       1       0       0       0       0

 Cartesian Hessian Update
 Hessian Updated using BFGS Update


** CONSTRAINED OPTIMIZATION IN DELOCALIZED INTERNAL COORDINATES **
   Searching for a Minimum

   Optimization Cycle:   4

                       Coordinates (Angstroms)
     ATOM                X               Y               Z
      1  F         0.6362038358    1.1206410145   -0.6916407248
      2  C        -0.5672032876   -1.0151370705    0.2355399377
      3  C         0.7812459450   -0.5799856416   -0.1199472784
      4  C        -1.7684465645   -0.1219077173    0.1482896282
      5  H        -0.7160658851   -2.0218902441    0.6320608197
      6  H        -2.6869498515   -0.6566753809    0.4076057976
      7  H         1.2405368370   -0.9737193605   -1.0266375298
      8  H         1.4968969789   -0.3768368454    0.6772321046
      9  H        -1.6857700674    0.7449510915    0.8235491320
     10  H         0.4687358550    2.0392623247   -0.9817647140
     11  H        -1.8922887955    0.2964988296   -0.8610921726
   Point Group: c1    Number of degrees of freedom:    27


   Energy is   -218.190694253

              Constraints and their Current Values
                                        Value     Constraint
   Distance(Angs):        1   3             1.800000     1.800000
 Hessian Updated using BFGS Update

 26 Hessian modes will be used to form the next step
  Hessian Eigenvalues:
     0.037186    0.045001    0.045030    0.045197    0.092358    0.093211
     0.098527    0.158261    0.159986    0.160000    0.160090    0.160096
     0.160429    0.198150    0.200000    0.218874    0.220727    0.324227
     0.334700    0.337368    0.343410    0.345224    0.347415    0.348128
     0.369807    0.558870

 Minimum Search - Taking Simple RFO Step
 Searching for Lamda that Minimizes Along All modes
 Value Taken    Lamda =  -0.00002676
 Step Taken.  Stepsize is  0.025180

                             Maximum     Tolerance    Cnvgd?
         Gradient           0.001195      0.000300      NO
         Displacement       0.016619      0.001200      NO
         Energy change     -0.000165      0.000001      NO


 New Cartesian Coordinates Obtained by Inverse Iteration

 Displacement from previous Coordinates is:  0.022026
 ----------------------------------------------------------------
             Standard Nuclear Orientation (Angstroms)
    I     Atom           X                Y                Z
 ----------------------------------------------------------------
    1      F       0.6355736236     1.1239434535    -0.6924371536
    2      C      -0.5673171212    -1.0141892679     0.2351438118
    3      C       0.7808996885    -0.5767523853    -0.1210216898
    4      C      -1.7693654115    -0.1222282437     0.1485097535
    5      H      -0.7135251784    -2.0214477000     0.6311550624
    6      H      -2.6875007079    -0.6572889215     0.4085498231
    7      H       1.2416207335    -0.9789119925    -1.0238142453
    8      H       1.4976006609    -0.3826657965     0.6780645735
    9      H      -1.6867569667     0.7450099352     0.8232633425
   10      H       0.4696723145     2.0439569171    -0.9832900732
   11      H      -1.8940066353     0.2957750016    -0.8609282050
 ----------------------------------------------------------------
 Nuclear Repulsion Energy =   124.5344966316 hartrees
 There are       18 alpha and       16 beta electrons

                       Distance Matrix (Angstroms)
             F (  1)   C (  2)   C (  3)   C (  4)   H (  5)   H (  6)
   C (  2)  2.622778
   C (  3)  1.800000  1.461470
   C (  4)  2.836171  1.499340  2.604437
   H (  5)  3.669530  1.092141  2.210480  2.225933
   H (  6)  3.927822  2.156995  3.509520  1.094022  2.409785
   H (  7)  2.213392  2.204195  1.090427  3.342796  2.765574  4.194413
   H (  8)  2.211614  2.204288  1.090811  3.319838  2.752614  4.202753
   H (  9)  2.798957  2.166521  2.954329  1.101916  2.938941  1.771981
   H ( 10)  0.979052  3.451404  2.776416  3.314607  4.531435  4.381973
   H ( 11)  2.667026  2.162749  2.909276  1.099649  2.998228  1.774694
             H (  7)   H (  8)   H (  9)   H ( 10)
   H (  8)  1.821380
   H (  9)  3.867686  3.381253
   H ( 10)  3.120142  3.115322  3.098562
   H ( 11)  3.388734  3.785734  1.755353  2.942463
 
 Applying Cartesian multipole field
    Component          Value
    ---------          -----
     (2,0,0)        1.00000E-11
     (0,2,0)        2.00000E-11
     (0,0,2)       -3.00000E-10
 Nucleus-field energy     =    -0.0000000062 hartrees
 Requested basis set is 6-31G(d,p)
 There are 37 shells and 95 basis functions
 A cutoff of  1.0D-14 yielded    689 shell pairs
 There are      4622 function pairs
 Smallest overlap matrix eigenvalue = 4.86E-03
 Guess from superposition of atomic densities
 Warning:  Energy on first SCF cycle will be non-variational
 SAD guess density has 34.000000 electrons

 -----------------------------------------------------------------------
  General SCF calculation program by
  Eric Jon Sundstrom, Paul Horn, Yuezhi Mao, Dmitri Zuev, Alec White,
  David Stuck, Shaama M.S., Shane Yost, Joonho Lee, David Small,
  Daniel Levine, Susi Lehtola, Hugh Burton, Evgeny Epifanovsky
 -----------------------------------------------------------------------
 Exchange:     0.2000 Hartree-Fock + 0.0800 Slater + 0.7200 B88
 Correlation:  0.1900 VWN1RPA + 0.8100 LYP
 Using SG-1 standard quadrature grid
 using 12 threads for integral computing
 -------------------------------------------------------
 OpenMP Integral computing Module                
 Release: version 1.0, May 2013, Q-Chem Inc. Pittsburgh 
 -------------------------------------------------------
 -------------------------------------------------------
 OpenMP BLAS3 based DFT computing Module                
 Release: version 1.0, May 2013, Q-Chem Inc. Pittsburgh 
 -------------------------------------------------------
 A unrestricted SCF calculation will be
 performed using DIIS
 SCF converges when DIIS error is below 1.0e-06
 Alpha HF Exchange    Energy =  -2.78987268727281
 Beta HF Exchange     Energy =  -2.78987268727281
 DFT Correlation      Energy =  -1.43851884869996
 DFT Exchange         Energy = -21.85670638562551
 One-Electron (alpha) Energy = -270.52009237289946
 One-Electron (beta)  Energy = -270.52009237289946
 Total Coulomb        Energy = 226.81419222018809
 ---------------------------------------
  Cycle       Energy         DIIS error
 ---------------------------------------
    1    -218.5664665090      3.04e-02  
 Alpha HF Exchange    Energy =  -2.94110147051602
 Beta HF Exchange     Energy =  -2.74293439231922
 DFT Correlation      Energy =  -1.46188199869844
 DFT Exchange         Energy = -22.57258559540064
 One-Electron (alpha) Energy = -285.27222925866181
 One-Electron (beta)  Energy = -263.68777346485632
 Total Coulomb        Energy = 236.05952715191307
    2    -218.0844824031      4.70e-03  
 Alpha HF Exchange    Energy =  -2.84384566947348
 Beta HF Exchange     Energy =  -2.67651185352490
 DFT Correlation      Energy =  -1.42665550931585
 DFT Exchange         Energy = -21.91525649494822
 One-Electron (alpha) Energy = -279.87456540800940
 One-Electron (beta)  Energy = -259.55181230005689
 Total Coulomb        Energy = 225.72153358714493
    3    -218.0326170227      5.92e-03  
 Alpha HF Exchange    Energy =  -2.89851234180974
 Beta HF Exchange     Energy =  -2.71404151597004
 DFT Correlation      Energy =  -1.44536792671323
 DFT Exchange         Energy = -22.27830455869436
 One-Electron (alpha) Energy = -283.11539528268696
 One-Electron (beta)  Energy = -261.88430895202765
 Total Coulomb        Energy = 231.61209713643689
    4    -218.1893368160      5.24e-04  
 Alpha HF Exchange    Energy =  -2.89693768980597
 Beta HF Exchange     Energy =  -2.71476139452839
 DFT Correlation      Energy =  -1.44492111094964
 DFT Exchange         Energy = -22.27563622804603
 One-Electron (alpha) Energy = -283.01813757048859
 One-Electron (beta)  Energy = -261.84505685851207
 Total Coulomb        Energy = 231.47063533739134
    5    -218.1903188895      2.75e-04  
 Alpha HF Exchange    Energy =  -2.89739977041270
 Beta HF Exchange     Energy =  -2.71503959242728
 DFT Correlation      Energy =  -1.44469272072354
 DFT Exchange         Energy = -22.27736465591248
 One-Electron (alpha) Energy = -283.03228730538103
 One-Electron (beta)  Energy = -261.83536761389911
 Total Coulomb        Energy = 231.47696149109188
    6    -218.1906935422      5.45e-05  
 Alpha HF Exchange    Energy =  -2.89725214670257
 Beta HF Exchange     Energy =  -2.71511249984976
 DFT Correlation      Energy =  -1.44462582002608
 DFT Exchange         Energy = -22.27683685676360
 One-Electron (alpha) Energy = -283.03191295535299
 One-Electron (beta)  Energy = -261.83593409673182
 Total Coulomb        Energy = 231.47646661564491
    7    -218.1907111343      1.25e-05  
 Alpha HF Exchange    Energy =  -2.89723184893300
 Beta HF Exchange     Energy =  -2.71522102433889
 DFT Correlation      Energy =  -1.44459631105686
 DFT Exchange         Energy = -22.27709684842726
 One-Electron (alpha) Energy = -283.03055607721888
 One-Electron (beta)  Energy = -261.83609883838312
 Total Coulomb        Energy = 231.47559170979596
    8    -218.1907126131      4.79e-06  
 Alpha HF Exchange    Energy =  -2.89721706047349
 Beta HF Exchange     Energy =  -2.71521177097834
 DFT Correlation      Energy =  -1.44459544552424
 DFT Exchange         Energy = -22.27701347810684
 One-Electron (alpha) Energy = -283.03042796275844
 One-Electron (beta)  Energy = -261.83616132597166
 Total Coulomb        Energy = 231.47541771423889
    9    -218.1907127041      2.57e-06  
 Alpha HF Exchange    Energy =  -2.89721132538921
 Beta HF Exchange     Energy =  -2.71522433908069
 DFT Correlation      Energy =  -1.44459298842049
 DFT Exchange         Energy = -22.27704104530662
 One-Electron (alpha) Energy = -283.03001251677898
 One-Electron (beta)  Energy = -261.83633843726983
 Total Coulomb        Energy = 231.47521129459543
   10    -218.1907127322      6.78e-07  Convergence criterion met
 ---------------------------------------
 SCF time:   CPU 21.31s  wall 2.00s 
<S^2> =          2.006050458
 Alpha HF Exchange    Energy =  -2.89721132538921
 Beta HF Exchange     Energy =  -2.71522433908069
 DFT Correlation      Energy =  -1.44459298842049
 DFT Exchange         Energy = -22.27704104530662
 One-Electron (alpha) Energy = -283.03001251677898
 One-Electron (beta)  Energy = -261.83633843726983
 Total Coulomb        Energy = 231.47521129459543
 Nuclear repulsion Energy = 124.53449662543809
 SCF   energy in the final basis set =     -218.1907127322
 Total energy in the final basis set =     -218.1907127322
 
 --------------------------------------------------------------
 
                    Orbital Energies (a.u.)
 --------------------------------------------------------------
 
 Alpha MOs
 -- Occupied --
-24.690 -10.178 -10.177 -10.171  -1.186  -0.769  -0.682  -0.582
 -0.517  -0.449  -0.440  -0.395  -0.391  -0.373  -0.371  -0.348
 -0.170  -0.141
 -- Virtual --
  0.059   0.126   0.142   0.152   0.176   0.200   0.208   0.285
  0.312   0.522   0.528   0.562   0.570   0.623   0.639   0.715
  0.718   0.736   0.777   0.793   0.853   0.872   0.879   0.917
  0.923   0.952   1.134   1.171   1.211   1.320   1.344   1.399
  1.460   1.533   1.614   1.700   1.739   1.774   1.800   1.846
  1.856   1.861   1.893   1.931   2.055   2.091   2.113   2.119
  2.188   2.227   2.331   2.341   2.396   2.434   2.470   2.513
  2.562   2.622   2.645   2.703   2.718   2.736   2.787   2.865
  2.903   3.027   3.188   3.273   3.365   3.429   3.479   3.506
  3.660   4.092   4.274   4.502   4.654
 
 Beta MOs
 -- Occupied --
-24.687 -10.171 -10.165 -10.164  -1.180  -0.740  -0.661  -0.559
 -0.496  -0.439  -0.425  -0.386  -0.383  -0.361  -0.358  -0.338
 -- Virtual --
[...]
   Point Group: c1    Number of degrees of freedom:    27


   Energy is   -218.190740557

              Constraints and their Current Values
                                        Value     Constraint
   Distance(Angs):        1   3             1.800000     1.800000
 Hessian Updated using BFGS Update

 26 Hessian modes will be used to form the next step
  Hessian Eigenvalues:
     0.005152    0.029285    0.045010    0.045070    0.053957    0.092365
     0.093240    0.098495    0.158800    0.159957    0.160003    0.160062
     0.160104    0.160612    0.199994    0.208452    0.220920    0.324264
     0.334688    0.337381    0.343414    0.345259    0.347376    0.348143
     0.370324    0.492620

 Minimum Search - Taking Simple RFO Step
 Searching for Lamda that Minimizes Along All modes
 Value Taken    Lamda =  -0.00000225
 Step Taken.  Stepsize is  0.009191

                             Maximum     Tolerance    Cnvgd?
         Gradient           0.000515      0.000300      NO
         Displacement       0.004306      0.001200      NO
         Energy change     -0.000004      0.000001      NO


 New Cartesian Coordinates Obtained by Inverse Iteration

 Displacement from previous Coordinates is:  0.011819
 ----------------------------------------------------------------
             Standard Nuclear Orientation (Angstroms)
    I     Atom           X                Y                Z
 ----------------------------------------------------------------
    1      F       0.6238261715     1.1297933993    -0.6877757884
    2      C      -0.5683153772    -1.0135839036     0.2345765800
    3      C       0.7789597535    -0.5716742029    -0.1212572945
    4      C      -1.7731028923    -0.1255303952     0.1496630766
    5      H      -0.7114482628    -2.0240604949     0.6235856272
    6      H      -2.6876342769    -0.6605749943     0.4220514907
    7      H       1.2416290031    -0.9770734501    -1.0221128801
    8      H       1.4964584577    -0.3847513309     0.6793919897
    9      H      -1.6866307980     0.7482490473     0.8150279525
   10      H       0.5007165077     2.0513699349    -0.9873894630
   11      H      -1.9075632863     0.2830373903    -0.8625662907
 ----------------------------------------------------------------
 Nuclear Repulsion Energy =   124.5365344317 hartrees
 There are       18 alpha and       16 beta electrons

                       Distance Matrix (Angstroms)
             F (  1)   C (  2)   C (  3)   C (  4)   H (  5)   H (  6)
   C (  2)  2.620306
   C (  3)  1.800000  1.461866
   C (  4)  2.832386  1.499121  2.604893
   H (  5)  3.667345  1.092190  2.210324  2.226237
   H (  6)  3.924654  2.156681  3.510037  1.094000  2.409361
   H (  7)  2.220889  2.203747  1.090849  3.344666  2.760257  4.198201
   H (  8)  2.219117  2.203765  1.091230  3.322324  2.750509  4.201064
   H (  9)  2.782482  2.166012  2.949231  1.101671  2.945052  1.772350
   H ( 10)  0.976846  3.468425  2.776322  3.346945  4.546836  4.416645
   H ( 11)  2.674973  2.162992  2.915043  1.099825  2.993667  1.774587
             H (  7)   H (  8)   H (  9)   H ( 10)
   H (  8)  1.819589
   H (  9)  3.863487  3.381441
   H ( 10)  3.117952  3.115180  3.119507
   H ( 11)  3.395695  3.796175  1.754866  2.990383
 
 Applying Cartesian multipole field
    Component          Value
    ---------          -----
     (2,0,0)        1.00000E-11
     (0,2,0)        2.00000E-11
     (0,0,2)       -3.00000E-10
 Nucleus-field energy     =    -0.0000000061 hartrees
 Requested basis set is 6-31G(d,p)
 There are 37 shells and 95 basis functions
 A cutoff of  1.0D-14 yielded    688 shell pairs
 There are      4619 function pairs
 Smallest overlap matrix eigenvalue = 4.86E-03
 Guess from superposition of atomic densities
 Warning:  Energy on first SCF cycle will be non-variational
 SAD guess density has 34.000000 electrons

 -----------------------------------------------------------------------
  General SCF calculation program by
  Eric Jon Sundstrom, Paul Horn, Yuezhi Mao, Dmitri Zuev, Alec White,
  David Stuck, Shaama M.S., Shane Yost, Joonho Lee, David Small,
  Daniel Levine, Susi Lehtola, Hugh Burton, Evgeny Epifanovsky
 -----------------------------------------------------------------------
 Exchange:     0.2000 Hartree-Fock + 0.0800 Slater + 0.7200 B88
 Correlation:  0.1900 VWN1RPA + 0.8100 LYP
 Using SG-1 standard quadrature grid
 using 12 threads for integral computing
 -------------------------------------------------------
 OpenMP Integral computing Module                
 Release: version 1.0, May 2013, Q-Chem Inc. Pittsburgh 
 -------------------------------------------------------
 -------------------------------------------------------
 OpenMP BLAS3 based DFT computing Module                
 Release: version 1.0, May 2013, Q-Chem Inc. Pittsburgh 
 -------------------------------------------------------
 A unrestricted SCF calculation will be
 performed using DIIS
 SCF converges when DIIS error is below 1.0e-06
 Alpha HF Exchange    Energy =  -2.78994227199028
 Beta HF Exchange     Energy =  -2.78994227199028
 DFT Correlation      Energy =  -1.43850555688785
 DFT Exchange         Energy = -21.85692680025226
 One-Electron (alpha) Energy = -270.52070928138369
 One-Electron (beta)  Energy = -270.52070928138369
 Total Coulomb        Energy = 226.81305945821606
 ---------------------------------------
  Cycle       Energy         DIIS error
 ---------------------------------------
    1    -218.5671415801      3.04e-02  
 Alpha HF Exchange    Energy =  -2.94117670387409
 Beta HF Exchange     Energy =  -2.74301453103631
 DFT Correlation      Energy =  -1.46187994059273
 DFT Exchange         Energy = -22.57303994015683
 One-Electron (alpha) Energy = -285.27796829896158
 One-Electron (beta)  Energy = -263.69384275734370
 Total Coulomb        Energy = 236.06976816644564
    2    -218.0846195800      4.70e-03  
 Alpha HF Exchange    Energy =  -2.84401071195236
 Beta HF Exchange     Energy =  -2.67657415477246
 DFT Correlation      Energy =  -1.42667082823607
 DFT Exchange         Energy = -21.91588707536135
 One-Electron (alpha) Energy = -279.87996961394742
 One-Electron (beta)  Energy = -259.55249173481639
 Total Coulomb        Energy = 225.72580684634778
    3    -218.0332628472      5.91e-03  
 Alpha HF Exchange    Energy =  -2.89864232453137
 Beta HF Exchange     Energy =  -2.71411839263632
 DFT Correlation      Energy =  -1.44536453116334
 DFT Exchange         Energy = -22.27890406945550
 One-Electron (alpha) Energy = -283.12023595916031
 One-Electron (beta)  Energy = -261.88785306539273
 Total Coulomb        Energy = 231.61918961615243
    4    -218.1893943007      5.19e-04  
 Alpha HF Exchange    Energy =  -2.89707574244487
 Beta HF Exchange     Energy =  -2.71480479505695
 DFT Correlation      Energy =  -1.44491740118601
 DFT Exchange         Energy = -22.27611166151534
 One-Electron (alpha) Energy = -283.02324189352146
 One-Electron (beta)  Energy = -261.84729441241967
 Total Coulomb        Energy = 231.47655982995656
    5    -218.1903516507      2.74e-04  
 Alpha HF Exchange    Energy =  -2.89754735350544
 Beta HF Exchange     Energy =  -2.71509009098098
 DFT Correlation      Energy =  -1.44469112479570
 DFT Exchange         Energy = -22.27791099790002
 One-Electron (alpha) Energy = -283.03781182088420
 One-Electron (beta)  Energy = -261.83794588895529
 Total Coulomb        Energy = 231.48373997101524
    6    -218.1907228805      5.45e-05  
 Alpha HF Exchange    Energy =  -2.89740080237104
 Beta HF Exchange     Energy =  -2.71515832053449
 DFT Correlation      Energy =  -1.44462463167397
 DFT Exchange         Energy = -22.27737292854814
 One-Electron (alpha) Energy = -283.03752858613086
 One-Electron (beta)  Energy = -261.83841180366130
 Total Coulomb        Energy = 231.48322226841282
    7    -218.1907403790      1.24e-05  
 Alpha HF Exchange    Energy =  -2.89738140501573
 Beta HF Exchange     Energy =  -2.71526486639155
 DFT Correlation      Energy =  -1.44459522181032
 DFT Exchange         Energy = -22.27762959559637
 One-Electron (alpha) Energy = -283.03621284735516
 One-Electron (beta)  Energy = -261.83850217728940
 Total Coulomb        Energy = 231.48230985114907
    8    -218.1907418368      4.77e-06  
 Alpha HF Exchange    Energy =  -2.89736748083078
 Beta HF Exchange     Energy =  -2.71525577123133
 DFT Correlation      Energy =  -1.44459444630619
 DFT Exchange         Energy = -22.27755001251747
 One-Electron (alpha) Energy = -283.03612095365605
 One-Electron (beta)  Energy = -261.83856846071677
 Total Coulomb        Energy = 231.48218077213295
    9    -218.1907419276      2.54e-06  
 Alpha HF Exchange    Energy =  -2.89736173511721
 Beta HF Exchange     Energy =  -2.71526803357758
 DFT Correlation      Energy =  -1.44459197733747
 DFT Exchange         Energy = -22.27757633929522
 One-Electron (alpha) Energy = -283.03570763996890
 One-Electron (beta)  Energy = -261.83873247401698
 Total Coulomb        Energy = 231.48196181851270
   10    -218.1907419553      6.71e-07  Convergence criterion met
 ---------------------------------------
 SCF time:   CPU 21.56s  wall 1.00s 
<S^2> =          2.006012677
 Alpha HF Exchange    Energy =  -2.89736173511721
 Beta HF Exchange     Energy =  -2.71526803357758
 DFT Correlation      Energy =  -1.44459197733747
 DFT Exchange         Energy = -22.27757633929522
 One-Electron (alpha) Energy = -283.03570763996890
 One-Electron (beta)  Energy = -261.83873247401698
 Total Coulomb        Energy = 231.48196181851270
 Nuclear repulsion Energy = 124.53653442552984
 SCF   energy in the final basis set =     -218.1907419553
 Total energy in the final basis set =     -218.1907419553
 
 --------------------------------------------------------------
 
                    Orbital Energies (a.u.)
 --------------------------------------------------------------
 
 Alpha MOs
 -- Occupied --
-24.690 -10.177 -10.177 -10.170  -1.187  -0.769  -0.682  -0.582
 -0.518  -0.448  -0.439  -0.395  -0.392  -0.373  -0.370  -0.348
 -0.169  -0.141
 -- Virtual --
  0.060   0.127   0.142   0.152   0.176   0.200   0.208   0.285
  0.312   0.521   0.529   0.562   0.570   0.624   0.640   0.714
  0.718   0.735   0.777   0.793   0.853   0.872   0.880   0.917
  0.923   0.952   1.135   1.172   1.210   1.320   1.344   1.399
  1.460   1.534   1.613   1.702   1.739   1.775   1.801   1.846
  1.855   1.862   1.893   1.929   2.055   2.091   2.114   2.120
  2.190   2.223   2.333   2.340   2.397   2.433   2.478   2.512
  2.565   2.624   2.632   2.705   2.722   2.738   2.786   2.865
  2.904   3.026   3.188   3.270   3.365   3.429   3.479   3.506
  3.663   4.097   4.276   4.501   4.657
 
 Beta MOs
 -- Occupied --
-24.687 -10.170 -10.165 -10.164  -1.181  -0.740  -0.661  -0.558
 -0.497  -0.439  -0.424  -0.386  -0.383  -0.361  -0.358  -0.338
 -- Virtual --
 -0.020  -0.011   0.094   0.134   0.153   0.163   0.183   0.211
  0.222   0.300   0.328   0.533   0.558   0.593   0.596   0.653
  0.660   0.733   0.740   0.759   0.794   0.812   0.860   0.884
  0.891   0.927   0.936   0.965   1.156   1.184   1.217   1.341
  1.354   1.428   1.467   1.546   1.632   1.727   1.762   1.798
  1.819   1.853   1.865   1.884   1.913   1.956   2.061   2.101
  2.122   2.136   2.199   2.245   2.348   2.359   2.417   2.453
  2.499   2.538   2.582   2.648   2.655   2.715   2.735   2.763
  2.797   2.874   2.917   3.038   3.194   3.284   3.374   3.436
  3.494   3.513   3.686   4.110   4.300   4.513   4.679
 --------------------------------------------------------------
 
          Ground-State Mulliken Net Atomic Charges

     Atom                 Charge (a.u.)    Spin (a.u.)
  --------------------------------------------------------
      1 F                    -0.248876      -0.049321
      2 C                    -0.089761       0.979271
      3 C                    -0.183913       0.820839
      4 C                    -0.321473      -0.061260
      5 H                     0.086228      -0.008845
      6 H                     0.098119       0.004125
      7 H                     0.099349       0.008009
      8 H                     0.098728       0.010496
      9 H                     0.104309       0.050897
     10 H                     0.253747       0.202887
     11 H                     0.103543       0.042900
  --------------------------------------------------------
  Sum of atomic charges =     0.000000
  Sum of spin   charges =     2.000000

 -----------------------------------------------------------------
                    Cartesian Multipole Moments
 -----------------------------------------------------------------
    Charge (ESU x 10^10)
                 0.0000
    Dipole Moment (Debye)
         X       0.0253      Y       1.3427      Z      -0.4348
       Tot       1.4116
    Quadrupole Moments (Debye-Ang)
        XX     -25.4481     XY       0.4104     YY     -21.6280
        XZ      -0.2337     YZ      -1.8077     ZZ     -25.0229
    Octopole Moments (Debye-Ang^2)
       XXX      24.1544    XXY       3.7254    XYY       9.2204
       YYY      23.7574    XXZ       2.5977    XYZ       0.1435
       YYZ      -2.0263    XZZ       9.0255    YZZ       6.8039
       ZZZ       4.4867
    Hexadecapole Moments (Debye-Ang^3)
      XXXX    -246.2943   XXXY     -13.9437   XXYY     -65.7041
      XYYY      -9.9931   YYYY    -122.9858   XXXZ      17.8301
      XXYZ       5.6799   XYYZ       2.1662   YYYZ       5.7014
      XXZZ     -50.3705   XYZZ      -5.8043   YYZZ     -29.4604
      XZZZ      18.7376   YZZZ      17.9026   ZZZZ     -59.7286
 -----------------------------------------------------------------
 Calculating analytic gradient of the SCF energy
 Gradient of SCF Energy
            1           2           3           4           5           6
    1   0.0066149   0.0000037  -0.0066354   0.0000040  -0.0000266  -0.0000021
    2  -0.0734303   0.0000631   0.0735557   0.0000150   0.0000060   0.0000095
    3   0.0244489  -0.0000852  -0.0245045   0.0000267   0.0000284  -0.0000043
            7           8           9          10          11
    1  -0.0000065  -0.0000123  -0.0000042   0.0000640   0.0000007
    2  -0.0000376   0.0000019   0.0000067  -0.0002004   0.0000105
    3   0.0000178   0.0000090   0.0000064   0.0000567   0.0000000
 Max gradient component =       7.356E-02
 RMS gradient           =       1.914E-02
 Gradient time:  CPU 7.46 s  wall 0.66 s
 Geometry Optimization Parameters
   NAtoms,    NIC,     NZ,  NCons,   NDum,   NFix, NCnnct, MaxDiis
       11      63       0       1       0       0       0       0

 Cartesian Hessian Update
 Hessian Updated using BFGS Update


** CONSTRAINED OPTIMIZATION IN DELOCALIZED INTERNAL COORDINATES **
   Searching for a Minimum

   Optimization Cycle:  12

                       Coordinates (Angstroms)
     ATOM                X               Y               Z
      1  F         0.6238261715    1.1297933993   -0.6877757884
      2  C        -0.5683153772   -1.0135839036    0.2345765800
      3  C         0.7789597535   -0.5716742029   -0.1212572945
      4  C        -1.7731028923   -0.1255303952    0.1496630766
      5  H        -0.7114482628   -2.0240604949    0.6235856272
      6  H        -2.6876342769   -0.6605749943    0.4220514907
      7  H         1.2416290031   -0.9770734501   -1.0221128801
      8  H         1.4964584577   -0.3847513309    0.6793919897
      9  H        -1.6866307980    0.7482490473    0.8150279525
     10  H         0.5007165077    2.0513699349   -0.9873894630
     11  H        -1.9075632863    0.2830373903   -0.8625662907
   Point Group: c1    Number of degrees of freedom:    27


   Energy is   -218.190741955

              Constraints and their Current Values
                                        Value     Constraint
   Distance(Angs):        1   3             1.800000     1.800000
 Hessian Updated using BFGS Update

 26 Hessian modes will be used to form the next step
  Hessian Eigenvalues:
     0.005784    0.029272    0.043259    0.045023    0.053814    0.092342
     0.092776    0.097968    0.155751    0.158886    0.159972    0.160007
     0.160064    0.160133    0.175388    0.200047    0.219797    0.324053
     0.334663    0.337388    0.343405    0.345091    0.347322    0.348099
     0.370201    0.434543

 Minimum Search - Taking Simple RFO Step
 Searching for Lamda that Minimizes Along All modes
 Value Taken    Lamda =   0.00000000
 Step Taken.  Stepsize is  0.002202

                             Maximum     Tolerance    Cnvgd?
         Gradient           0.000128      0.000300     YES
         Displacement       0.000897      0.001200     YES
         Energy change     -0.000001      0.000001      NO


                       Distance Matrix (Angstroms)
             F (  1)   C (  2)   C (  3)   C (  4)   H (  5)   H (  6)
   C (  2)  2.620306
   C (  3)  1.800000  1.461866
   C (  4)  2.832386  1.499121  2.604893
   H (  5)  3.667345  1.092190  2.210324  2.226237
   H (  6)  3.924654  2.156681  3.510037  1.094000  2.409361
   H (  7)  2.220889  2.203747  1.090849  3.344666  2.760257  4.198201
   H (  8)  2.219117  2.203765  1.091230  3.322324  2.750509  4.201064
   H (  9)  2.782482  2.166012  2.949231  1.101671  2.945052  1.772350
   H ( 10)  0.976846  3.468425  2.776322  3.346945  4.546836  4.416645
   H ( 11)  2.674973  2.162992  2.915043  1.099825  2.993667  1.774587
             H (  7)   H (  8)   H (  9)   H ( 10)
   H (  8)  1.819589
   H (  9)  3.863487  3.381441
   H ( 10)  3.117952  3.115180  3.119507
   H ( 11)  3.395695  3.796175  1.754866  2.990383
 
 Final energy is   -218.190741955271     


 ******************************
 **  OPTIMIZATION CONVERGED  **
 ******************************

                       Coordinates (Angstroms)
     ATOM                X               Y               Z
      1  F         0.6238261715    1.1297933993   -0.6877757884
      2  C        -0.5683153772   -1.0135839036    0.2345765800
      3  C         0.7789597535   -0.5716742029   -0.1212572945
      4  C        -1.7731028923   -0.1255303952    0.1496630766
      5  H        -0.7114482628   -2.0240604949    0.6235856272
      6  H        -2.6876342769   -0.6605749943    0.4220514907
      7  H         1.2416290031   -0.9770734501   -1.0221128801
      8  H         1.4964584577   -0.3847513309    0.6793919897
      9  H        -1.6866307980    0.7482490473    0.8150279525
     10  H         0.5007165077    2.0513699349   -0.9873894630
     11  H        -1.9075632863    0.2830373903   -0.8625662907

Z-matrix Print:
$molecule
0 3
F 
H  1 0.976846
C  1 1.800000 2 177.668899
H  3 1.090849 1 97.350097 2 124.660428 0
H  3 1.091230 1 97.219585 2 -120.919030 0
C  3 1.461866 1 106.434777 2 1.828013 0
H  6 1.092190 3 119.153462 1 -179.034749 0
C  6 1.499121 3 123.216674 1 -1.784223 0
H  8 1.094000 6 111.592491 3 177.715600 0
H  8 1.099825 6 111.743042 3 56.705034 0
H  8 1.101671 6 111.873110 3 -61.607512 0
$end

PES scan, value:    1.8000 energy: -218.1907419553
------- Summary of potential scan: ------ 
    1.8000      -218.1907419553
----------------------------------------- 
Archival summary:
1\1\hpc0244\JobtypUnspecified\ProcedureUnspecified\6-31G**\137(3)\knomura\WedMar1315:54:352019WedMar1315:54:352019\0\\#,JobtypUnspecified,ProcedureUnspecified,6-31G**,\\0,3\F\H,1,0.976846\C,1,1.8,2,177.669\H,3,1.09085,1,97.3501,2,124.66,0\H,3,1.09123,1,97.2196,2,-120.919,0\C,3,1.46187,1,106.435,2,1.82801,0\H,6,1.09219,3,119.153,1,-179.035,0\C,6,1.49912,3,123.217,1,-1.78422,0\H,8,1.094,6,111.592,3,177.716,0\H,8,1.09983,6,111.743,3,56.705,0\H,8,1.10167,6,111.873,3,-61.6075,0\\\@

 Total job time:  38.92s(wall), 402.11s(cpu) 
 Wed Mar 13 15:54:35 2019

        *************************************************************
        *                                                           *
        *  Thank you very much for using Q-Chem.  Have a nice day.  *
        *                                                           *
        *************************************************************


