
Running Job 1 of 1 halogens/Flourine/02/F_3.xyz.data/inputs/bond_singlet_3.5.in
qchem halogens/Flourine/02/F_3.xyz.data/inputs/bond_singlet_3.5.in_30414.0 /staging/scratch/2868761/qchem30414/ 1
/usr/usc/qchem/5.1.1/exe/qcprog.exe_s halogens/Flourine/02/F_3.xyz.data/inputs/bond_singlet_3.5.in_30414.0 /staging/scratch/2868761/qchem30414/
Check license passed

                  Welcome to Q-Chem
     A Quantum Leap Into The Future Of Chemistry


 Q-Chem 5.1, Q-Chem, Inc., Pleasanton, CA (2018)

 Yihan Shao,  Zhengting Gan,  E. Epifanovsky,  A. T. B. Gilbert,  M. Wormit,  
 J. Kussmann,  A. W. Lange,  A. Behn,  Jia Deng,  Xintian Feng,  D. Ghosh,  
 M. Goldey,  P. R. Horn,  L. D. Jacobson,  I. Kaliman,  T. Kus,  A. Landau,  
 Jie Liu,  E. I. Proynov,  R. M. Richard,  R. P. Steele,  E. J. Sundstrom,  
 H. L. Woodcock III,  P. M. Zimmerman,  D. Zuev,  B. Albrecht,  E. Alguire,  
 S. A. Baeppler,  D. Barton,  Z. Benda,  Y. A. Bernard,  E. J. Berquist,  
 K. B. Bravaya,  H. Burton,  D. Casanova,  Chun-Min Chang,  Yunqing Chen,  
 A. Chien,  K. D. Closser,  M. P. Coons,  S. Coriani,  S. Dasgupta,  
 A. L. Dempwolff,  M. Diedenhofen,  Hainam Do,  R. G. Edgar,  Po-Tung Fang,  
 S. Faraji,  S. Fatehi,  Qingguo Feng,  K. D. Fenk,  J. Fosso-Tande,  
 Qinghui Ge,  A. Ghysels,  G. Gidofalvi,  J. Gomes,  J. Gonthier,  A. Gunina,  
 D. Hait,  M. W. D. Hanson-Heine,  P. H. P. Harbach,  A. W. Hauser,  
 J. E. Herr,  E. G. Hohenstein,  Z. C. Holden,  Kerwin Hui,  B. C. Huynh,  
 T.-C. Jagau,  Hyunjun Ji,  B. Kaduk,  K. Khistyaev,  Jaehoon Kim,  
 P. Klunzinger,  K. Koh,  D. Kosenkov,  L. Koulias,  T. Kowalczyk,  
 C. M. Krauter,  A. Kunitsa,  Ka Un Lao,  A. Laurent,  K. V. Lawler,  
 Joonho Lee,  D. Lefrancois,  S. Lehtola,  D. S. Levine,  Yi-Pei Li,  
 You-Sheng Lin,  Fenglai Liu,  E. Livshits,  A. Luenser,  P. Manohar,  
 E. Mansoor,  S. F. Manzer,  Shan-Ping Mao,  Yuezhi Mao,  N. Mardirossian,  
 A. V. Marenich,  T. Markovich,  L. A. Martinez-Martinez,  S. A. Maurer,  
 N. J. Mayhall,  S. C. McKenzie,  J.-M. Mewes,  A. F. Morrison,  
 J. W. Mullinax,  K. Nanda,  T. S. Nguyen-Beck,  R. Olivares-Amaya,  
 J. A. Parkhill,  T. M. Perrine,  F. Plasser,  P. Pokhilko,  S. Prager,  
 A. Prociuk,  E. Ramos,  D. R. Rehn,  F. Rob,  M. Schneider,  N. Sergueev,  
 S. M. Sharada,  S. Sharma,  D. W. Small,  T. Stauch,  T. Stein,  
 Yu-Chuan Su,  A. J. W. Thom,  A. Tkatchenko,  T. Tsuchimochi,  N. M. Tubman,  
 L. Vogt,  M. L. Vidal,  O. Vydrov,  M. A. Watson,  J. Wenzel,  
 M. de Wergifosse,  T. A. Wesolowski,  A. White,  J. Witte,  A. Yamada,  
 Jun Yang,  K. Yao,  S. Yeganeh,  S. R. Yost,  Zhi-Qiang You,  A. Zech,  
 Igor Ying Zhang,  Xing Zhang,  Yan Zhao,  Ying Zhu,  B. R. Brooks,  
 G. K. L. Chan,  C. J. Cramer,  M. S. Gordon,  W. J. Hehre,  A. Klamt,  
 M. W. Schmidt,  C. D. Sherrill,  D. G. Truhlar,  A. Aspuru-Guzik,  R. Baer,  
 A. T. Bell,  N. A. Besley,  Jeng-Da Chai,  A. E. DePrince, III,  
 R. A. DiStasio Jr.,  A. Dreuw,  B. D. Dunietz,  T. R. Furlani,  
 Chao-Ping Hsu,  Yousung Jung,  Jing Kong,  D. S. Lambrecht,  WanZhen Liang,  
 C. Ochsenfeld,  V. A. Rassolov,  L. V. Slipchenko,  J. E. Subotnik,  
 T. Van Voorhis,  J. M. Herbert,  A. I. Krylov,  P. M. W. Gill,  M. Head-Gordon

 Contributors to earlier versions of Q-Chem not listed above: 
 R. D. Adamson,  B. Austin,  J. Baker,  G. J. O. Beran,  K. Brandhorst,  
 S. T. Brown,  E. F. C. Byrd,  A. K. Chakraborty,  C.-L. Cheng,  
 Siu Hung Chien,  D. M. Chipman,  D. L. Crittenden,  H. Dachsel,  
 R. J. Doerksen,  A. D. Dutoi,  L. Fusti-Molnar,  W. A. Goddard III,  
 A. Golubeva-Zadorozhnaya,  S. R. Gwaltney,  G. Hawkins,  A. Heyden,  
 S. Hirata,  G. Kedziora,  F. J. Keil,  C. Kelley,  Jihan Kim,  R. A. King,  
 R. Z. Khaliullin,  P. P. Korambath,  W. Kurlancheek,  A. M. Lee,  M. S. Lee,  
 S. V. Levchenko,  Ching Yeh Lin,  D. Liotard,  R. C. Lochan,  I. Lotan,  
 P. E. Maslen,  N. Nair,  D. P. O'Neill,  D. Neuhauser,  E. Neuscamman,  
 C. M. Oana,  R. Olson,  B. Peters,  R. Peverati,  P. A. Pieniazek,  
 Y. M. Rhee,  J. Ritchie,  M. A. Rohrdanz,  E. Rosta,  N. J. Russ,  
 H. F. Schaefer III,  N. E. Schultz,  N. Shenvi,  A. C. Simmonett,  A. Sodt,  
 D. Stuck,  K. S. Thanthiriwatte,  V. Vanovschi,  Tao Wang,  A. Warshel,  
 C. F. Williams,  Q. Wu,  X. Xu,  W. Zhang

 Please cite Q-Chem as follows:
 Y. Shao et al., Mol. Phys. 113, 184-215 (2015)
 DOI: 10.1080/00268976.2014.952696

 Q-Chem 5.1.1 for Intel X86 EM64T Linux

 Parts of Q-Chem use Armadillo 8.300.2 (Tropical Shenanigans).
 http://arma.sourceforge.net/

 Q-Chem begins on Wed Mar 13 15:20:48 2019  

Host: 
0

     Scratch files written to /staging/scratch/2868761/qchem30414//
 Aug318 |scratch|qcdevops|jenkins|workspace|build_RNUM 6013   
Processing $rem in /usr/usc/qchem/5.1.1/config/preferences.
 MEM_TOTAL  2000 
Input Ideriv = 2
Curr. Ideriv = -1
Max.  Ideriv = 2

Checking the input file for inconsistencies... 	...done.

--------------------------------------------------------------
User input:
--------------------------------------------------------------

$comment
potential surface scanner
$end

$rem
JOBTYPE  PES_SCAN
UNRESTRICTED TRUE
SYM_IGNORE  TRUE
GEOM_OPT_MAX_CYCLES 400
SCF_MAX_CYCLES 400
METHOD   B3LYP
BASIS   6-31G**
PDB_PRINT 2
SCF_CONVERGENCE 6
THRESH 14
SCF_PRINT 1
$end
$molecule
0 1
F 0.269593 2.132059 0.774656
C -0.424864 -0.731647 0.253033
C 0.689500 -1.019740 -0.429436
C -1.666550 -0.115778 -0.324896
H -0.451346 -0.942907 1.322773
H -2.550367 -0.721340 -0.094559
H 1.556964 -1.460415 0.053040
H 0.763823 -0.838786 -1.499371
H -1.823155 0.876981 0.110478
H 0.536874 1.284444 0.488383
H -1.593575 -0.007671 -1.410897
$end
$scan
stre 1 3 3.500000 3.501000 0.100000
$end
--------------------------------------------------------------
 ----------------------------------------------------------------
             Standard Nuclear Orientation (Angstroms)
    I     Atom           X                Y                Z
 ----------------------------------------------------------------
    1      F       0.2695930000     2.1320590000     0.7746560000
    2      C      -0.4248640000    -0.7316470000     0.2530330000
    3      C       0.6895000000    -1.0197400000    -0.4294360000
    4      C      -1.6665500000    -0.1157780000    -0.3248960000
    5      H      -0.4513460000    -0.9429070000     1.3227730000
    6      H      -2.5503670000    -0.7213400000    -0.0945590000
    7      H       1.5569640000    -1.4604150000     0.0530400000
    8      H       0.7638230000    -0.8387860000    -1.4993710000
    9      H      -1.8231550000     0.8769810000     0.1104780000
   10      H       0.5368740000     1.2844440000     0.4883830000
   11      H      -1.5935750000    -0.0076710000    -1.4108970000
 ----------------------------------------------------------------
 Nuclear Repulsion Energy =   115.9279397162 hartrees
 There are       17 alpha and       17 beta electrons
 Requested basis set is 6-31G(d,p)
 There are 37 shells and 95 basis functions

 Total QAlloc Memory Limit   2000 MB
 Mega-Array Size       188 MB
 MEM_STATIC part       192 MB
A total of 1 constraints
  
            1
    1   1.0100000
    2   1.0100000
    3   3.0100000
    4   3.5000000
    5   3.5010000
    6   0.1000000
    7   0.0000000
    8   0.0000000
    9   0.0000000
   10   0.0000000

                       Distance Matrix (Angstroms)
             F (  1)   C (  2)   C (  3)   C (  4)   H (  5)   H (  6)
   C (  2)  2.992520
   C (  3)  3.399999  1.338121
   C (  4)  3.163927  1.501693  2.525678
   H (  5)  3.205558  1.090723  2.092288  2.208093
   H (  6)  4.104826  2.153762  3.270768  1.095853  2.542403
   H (  7)  3.883803  2.121024  1.086035  3.513108  2.431737  4.175905
   H (  8)  3.773776  2.120230  1.087671  2.794431  3.074406  3.601548
   H (  9)  2.529021  2.136170  3.194134  1.095284  2.581378  1.767910
   H ( 10)  0.933725  2.246097  2.484945  2.734433  2.575632  3.727472
   H ( 11)  3.581408  2.158400  2.683278  1.093806  3.106816  1.776941
             H (  7)   H (  8)   H (  9)   H ( 10)
   H (  8)  1.850804
   H (  9)  4.109979  3.496845
   H ( 10)  2.960466  2.917324  2.424577
   H ( 11)  3.765564  2.501181  1.774795  3.132992
 
 A cutoff of  1.0D-14 yielded    687 shell pairs
 There are      4636 function pairs
 
 -------------------------------------------------------
 OpenMP Integral Computing Module                       
 Release: version 1.0, May 2013, Q-Chem Inc. Pittsburgh 
 -------------------------------------------------------
 Integral Job Info:
 Integral job number is                      11
 Integral operator is                         1
 short-range coefficients                     0
 long-range coefficients              100000000
 Omega coefficients                           0
 if combine SR and LR in K                    0
 Integral screening is                        0
 Integral computing path is                   2
 max size of driver memory is            800000
 size of driver memory is                593474
 size of scratch memory is              2361544
 max col of scratch BK array               1296
 max len of scratch array in speh3          155
 max len of scratch index in speh4           18
 max int batch size is                      520
 min int batch size is                       52
 fixed nKL is                                52
 max L of basis functions is                  2
 order of int derivative is                   0
 number of shells is                         37
 number of basis is                          95
 number of cartesian basis is                95
 number of contracted shell pairs           687
 number of primitive shell pairs           2357
 maxK2 (contraction) of shell pair           36
 max number of K2 of shell pair               1
 max number of CS2 of shell pair             63
 max number of PS2 of shell pair            246
 mem total for path MDJ                  514716
 -------------------------------------------------------
 Smallest overlap matrix eigenvalue = 4.63E-03

 Scale SEOQF with 1.000000e-01/1.000000e-01/1.000000e+00

 Standard Electronic Orientation quadrupole field applied
 Nucleus-field energy     =    -0.0000000094 hartrees
 Guess from superposition of atomic densities
 Warning:  Energy on first SCF cycle will be non-variational
 SAD guess density has 34.000000 electrons

 -----------------------------------------------------------------------
  General SCF calculation program by
  Eric Jon Sundstrom, Paul Horn, Yuezhi Mao, Dmitri Zuev, Alec White,
  David Stuck, Shaama M.S., Shane Yost, Joonho Lee, David Small,
  Daniel Levine, Susi Lehtola, Hugh Burton, Evgeny Epifanovsky
 -----------------------------------------------------------------------
 Exchange:     0.2000 Hartree-Fock + 0.0800 Slater + 0.7200 B88
 Correlation:  0.1900 VWN1RPA + 0.8100 LYP
 Using SG-1 standard quadrature grid
 using 12 threads for integral computing
 -------------------------------------------------------
 OpenMP Integral computing Module                
 Release: version 1.0, May 2013, Q-Chem Inc. Pittsburgh 
 -------------------------------------------------------
 -------------------------------------------------------
 OpenMP BLAS3 based DFT computing Module                
 Release: version 1.0, May 2013, Q-Chem Inc. Pittsburgh 
 -------------------------------------------------------
 A unrestricted SCF calculation will be
 performed using DIIS
 SCF converges when DIIS error is below 1.0e-06
 Alpha HF Exchange    Energy =  -2.79814463073278
 Beta HF Exchange     Energy =  -2.79814463073278
 DFT Correlation      Energy =  -1.43464704902352
 DFT Exchange         Energy = -21.87459421118857
 One-Electron (alpha) Energy = -261.79334373091251
 One-Electron (beta)  Energy = -261.79334373091251
 Total Coulomb        Energy = 217.92049712670416
 ---------------------------------------
  Cycle       Energy         DIIS error
 ---------------------------------------
    1    -218.6437811500      3.19e-02  
 Alpha HF Exchange    Energy =  -2.84930389912376
 Beta HF Exchange     Energy =  -2.84930389912376
 DFT Correlation      Energy =  -1.46812228987742
 DFT Exchange         Energy = -22.62475009577573
 One-Electron (alpha) Energy = -265.60508467784649
 One-Electron (beta)  Energy = -265.60508467784632
 Total Coulomb        Energy = 226.82095042295799
    2    -218.2527594098      4.94e-03  
 Alpha HF Exchange    Energy =  -2.76586996995968
 Beta HF Exchange     Energy =  -2.76586996995968
 DFT Correlation      Energy =  -1.43723163484740
 DFT Exchange         Energy = -21.94415074141591
 One-Electron (alpha) Energy = -261.68194977973053
 One-Electron (beta)  Energy = -261.68194977973059
 Total Coulomb        Energy = 218.10114143744207
    3    -218.2479407314      5.31e-03  
 Alpha HF Exchange    Energy =  -2.80795515604583
 Beta HF Exchange     Energy =  -2.80795515604583
 DFT Correlation      Energy =  -1.45278231147832
 DFT Exchange         Energy = -22.28608433623119
 One-Electron (alpha) Energy = -263.72687843494418
 One-Electron (beta)  Energy = -263.72687843494401
 Total Coulomb        Energy = 222.52639873760893
    4    -218.3541953853      2.88e-04  
 Alpha HF Exchange    Energy =  -2.80755391979838
 Beta HF Exchange     Energy =  -2.80755391979837
 DFT Correlation      Energy =  -1.45297656772828
 DFT Exchange         Energy = -22.28369726989400
 One-Electron (alpha) Energy = -263.73519817281920
 One-Electron (beta)  Energy = -263.73519817281891
 Total Coulomb        Energy = 222.53983319796049
    5    -218.3544051181      1.47e-04  
 Alpha HF Exchange    Energy =  -2.80775565272123
 Beta HF Exchange     Energy =  -2.80775565272123
 DFT Correlation      Energy =  -1.45288579613623
 DFT Exchange         Energy = -22.28488658393876
 One-Electron (alpha) Energy = -263.72793100357887
 One-Electron (beta)  Energy = -263.72793100357876
 Total Coulomb        Energy = 222.52673019043775
    6    -218.3544757954      2.85e-05  
 Alpha HF Exchange    Energy =  -2.80775162039857
 Beta HF Exchange     Energy =  -2.80775162039857
 DFT Correlation      Energy =  -1.45289760814726
 DFT Exchange         Energy = -22.28488880659884
 One-Electron (alpha) Energy = -263.72864104267268
 One-Electron (beta)  Energy = -263.72864104267279
 Total Coulomb        Energy = 222.52815342761832
    7    -218.3544786065      1.32e-05  
 Alpha HF Exchange    Energy =  -2.80776016202845
 Beta HF Exchange     Energy =  -2.80776016202845
 DFT Correlation      Energy =  -1.45290506065913
 DFT Exchange         Energy = -22.28496839294619
 One-Electron (alpha) Energy = -263.73023779097196
 One-Electron (beta)  Energy = -263.73023779097184
 Total Coulomb        Energy = 222.53145021451508
    8    -218.3544794383      1.89e-06  
 Alpha HF Exchange    Energy =  -2.80776137392933
 Beta HF Exchange     Energy =  -2.80776137392933
 DFT Correlation      Energy =  -1.45290510000454
 DFT Exchange         Energy = -22.28497584151350
 One-Electron (alpha) Energy = -263.73016457981288
 One-Electron (beta)  Energy = -263.73016457981288
 Total Coulomb        Energy = 222.53131368854068
    9    -218.3544794536      2.60e-07  Convergence criterion met
 ---------------------------------------
 SCF time:   CPU 20.50s  wall 2.00s 
<S^2> =          0.000000000
 Alpha HF Exchange    Energy =  -2.80776137392933
 Beta HF Exchange     Energy =  -2.80776137392933
 DFT Correlation      Energy =  -1.45290510000454
 DFT Exchange         Energy = -22.28497584151350
 One-Electron (alpha) Energy = -263.73016457981288
 One-Electron (beta)  Energy = -263.73016457981288
 Total Coulomb        Energy = 222.53131368854068
 Nuclear repulsion Energy = 115.92793970682014
 SCF   energy in the final basis set =     -218.3544794536
 Total energy in the final basis set =     -218.3544794536
 
 --------------------------------------------------------------
 
                    Orbital Energies (a.u.)
 --------------------------------------------------------------
 
 Alpha MOs
 -- Occupied --
-24.646 -10.210 -10.197 -10.189  -1.150  -0.800  -0.696  -0.568
 -0.502  -0.478  -0.433  -0.421  -0.380  -0.362  -0.360  -0.358
 -0.275
 -- Virtual --
  0.002   0.094   0.123   0.127   0.145   0.169   0.176   0.185
  0.273   0.358   0.480   0.509   0.542   0.595   0.614   0.623
  0.690   0.700   0.784   0.818   0.823   0.859   0.865   0.885
  0.908   0.932   1.089   1.161   1.168   1.221   1.279   1.290
  1.330   1.381   1.469   1.582   1.611   1.648   1.699   1.798
  1.820   1.864   1.889   1.891   1.950   2.001   2.040   2.083
  2.096   2.114   2.147   2.281   2.351   2.370   2.457   2.480
  2.547   2.551   2.633   2.641   2.677   2.736   2.794   2.818
  2.853   2.869   2.994   3.177   3.255   3.412   3.427   3.455
  3.648   3.719   3.885   4.270   4.407   4.589
 
 Beta MOs
 -- Occupied --
-24.646 -10.210 -10.197 -10.189  -1.150  -0.800  -0.696  -0.568
 -0.502  -0.478  -0.433  -0.421  -0.380  -0.362  -0.360  -0.358
 -0.275
 -- Virtual --
  0.002   0.094   0.123   0.127   0.145   0.169   0.176   0.185
  0.273   0.358   0.480   0.509   0.542   0.595   0.614   0.623
  0.690   0.700   0.784   0.818   0.823   0.859   0.865   0.885
  0.908   0.932   1.089   1.161   1.168   1.221   1.279   1.290
  1.330   1.381   1.469   1.582   1.611   1.648   1.699   1.798
  1.820   1.864   1.889   1.891   1.950   2.001   2.040   2.083
  2.096   2.114   2.147   2.281   2.351   2.370   2.457   2.480
  2.547   2.551   2.633   2.641   2.677   2.736   2.794   2.818
  2.853   2.869   2.994   3.177   3.255   3.412   3.427   3.455
  3.648   3.719   3.885   4.270   4.407   4.589
 --------------------------------------------------------------
 
          Ground-State Mulliken Net Atomic Charges

     Atom                 Charge (a.u.)    Spin (a.u.)
  --------------------------------------------------------
      1 F                    -0.374532       0.000000
      2 C                    -0.068606       0.000000
      3 C                    -0.250843      -0.000000
      4 C                    -0.353001      -0.000000
      5 H                     0.106166       0.000000
      6 H                     0.120528       0.000000
      7 H                     0.110807       0.000000
      8 H                     0.107695       0.000000
      9 H                     0.142587      -0.000000
     10 H                     0.344906       0.000000
     11 H                     0.114294       0.000000
  --------------------------------------------------------
  Sum of atomic charges =     0.000000
  Sum of spin   charges =     0.000000

 -----------------------------------------------------------------
                    Cartesian Multipole Moments
 -----------------------------------------------------------------
    Charge (ESU x 10^10)
                -0.0000
    Dipole Moment (Debye)
         X      -0.0570      Y      -1.9838      Z      -0.5827
       Tot       2.0684
    Quadrupole Moments (Debye-Ang)
        XX     -23.2826     XY      -0.7295     YY     -31.4835
        XZ      -0.3076     YZ      -2.4311     ZZ     -24.6895
    Octopole Moments (Debye-Ang^2)
       XXX      24.6228    XXY      -0.8174    XYY       8.0498
       YYY      -8.2592    XXZ       0.2032    XYZ      -0.1924
       YYZ      -3.7372    XZZ       8.4755    YZZ      -1.9004
       ZZZ      -2.6293
    Hexadecapole Moments (Debye-Ang^3)
      XXXX    -195.3782   XXXY      -0.7606   XXYY     -69.1698
      XYYY      -7.1290   YYYY    -266.6561   XXXZ      -7.4228
      XXYZ     -10.3785   XYYZ      -4.1485   YYYZ     -41.5176
      XXZZ     -46.8098   XYZZ      -1.2650   YYZZ     -55.7961
      XZZZ      -7.8380   YZZZ     -31.9610   ZZZZ     -74.3626
 -----------------------------------------------------------------
 Calculating analytic gradient of the SCF energy
 Gradient of SCF Energy
            1           2           3           4           5           6
    1  -0.0001480   0.0000473   0.0000666  -0.0000021   0.0000003  -0.0000081
    2   0.0011928  -0.0001155  -0.0014108   0.0000176   0.0000643   0.0000013
    3   0.0002776  -0.0000384  -0.0006204  -0.0000106   0.0000115   0.0000258
            7           8           9          10          11
    1   0.0000574   0.0000211   0.0000003  -0.0000171  -0.0000178
    2   0.0000785  -0.0000094  -0.0000022   0.0002242  -0.0000406
    3   0.0000027   0.0000022  -0.0000072   0.0003549   0.0000019
 Max gradient component =       1.411E-03
 RMS gradient           =       3.530E-04
 Gradient time:  CPU 7.36 s  wall 0.71 s
 Geometry Optimization Parameters
   NAtoms,    NIC,     NZ,  NCons,   NDum,   NFix, NCnnct, MaxDiis
       11      78       0       1       0       0       0       0


** CONSTRAINED OPTIMIZATION IN DELOCALIZED INTERNAL COORDINATES **
   Searching for a Minimum

   Optimization Cycle:   1

                       Coordinates (Angstroms)
     ATOM                X               Y               Z
      1  F         0.2695930000    2.1320590000    0.7746560000
      2  C        -0.4248640000   -0.7316470000    0.2530330000
      3  C         0.6895000000   -1.0197400000   -0.4294360000
      4  C        -1.6665500000   -0.1157780000   -0.3248960000
      5  H        -0.4513460000   -0.9429070000    1.3227730000
      6  H        -2.5503670000   -0.7213400000   -0.0945590000
      7  H         1.5569640000   -1.4604150000    0.0530400000
      8  H         0.7638230000   -0.8387860000   -1.4993710000
      9  H        -1.8231550000    0.8769810000    0.1104780000
     10  H         0.5368740000    1.2844440000    0.4883830000
     11  H        -1.5935750000   -0.0076710000   -1.4108970000
   Point Group: c1    Number of degrees of freedom:    27


   Energy is   -218.354479454

              Constraints and their Current Values
                                        Value     Constraint
   Distance(Angs):        1   3             3.399999     3.500000

 Attempting to Generate Delocalized Internal Coordinates

   Using Lagrange Multiplier Algorithm


 28 Hessian modes will be used to form the next step
  Hessian Eigenvalues:
    -0.994323    0.028256    0.045000    0.045006    0.046048    0.046076
     0.048735    0.067763    0.073281    0.083604    0.106334    0.123956
     0.124495    0.132794    0.139201    0.152718    0.160000    0.160000
     0.292207    0.321170    0.341450    0.343765    0.347293    0.350831
     0.352749    0.424722    0.584805    1.005710

 Minimum Search - Taking P-RFO Step
 Searching for Lamda that Maximizes Along the Constraint modes Only
 Value Taken    Lamda =   0.01800622
 Searching for Lamda that Minimizes Along All other modes
 Value Taken    Lamda =  -0.01709566
 Step Taken.  Stepsize is  0.185733

                             Maximum     Tolerance    Cnvgd?
         Gradient            0.188974       0.000300      NO
         Displacement        0.185712       0.001200      NO
         Energy change     *********       0.000001      NO


 New Cartesian Coordinates Obtained by Inverse Iteration

 Displacement from previous Coordinates is:  0.202299
 ----------------------------------------------------------------
             Standard Nuclear Orientation (Angstroms)
    I     Atom           X                Y                Z
 ----------------------------------------------------------------
    1      F       0.2393588626     2.1884131948     0.7995465907
    2      C      -0.4181415216    -0.7350467581     0.2502203052
    3      C       0.6996309944    -1.0495245105    -0.4421584585
    4      C      -1.6623702905    -0.1096884366    -0.3233812983
    5      H      -0.4430080882    -0.9455889251     1.3201459057
    6      H      -2.5467169440    -0.7134907345    -0.0905073873
    7      H       1.5622098983    -1.5001102753     0.0398793732
    8      H       0.7713642244    -0.8788966983    -1.5139683152
    9      H      -1.8261272378     0.8833705712     0.1111176079
   10      H       0.5210781219     1.3179895453     0.5018262753
   11      H      -1.5903810195    -0.0022269729    -1.4095165986
 ----------------------------------------------------------------
 Nuclear Repulsion Energy =   114.8141735312 hartrees
 There are       17 alpha and       17 beta electrons

                       Distance Matrix (Angstroms)
             F (  1)   C (  2)   C (  3)   C (  4)   H (  5)   H (  6)
   C (  2)  3.046422
   C (  3)  3.498274  1.351925
   C (  4)  3.187289  1.506053  2.544887
   H (  5)  3.249403  1.090728  2.102889  2.210601
   H (  6)  4.120129  2.155781  3.282583  1.095845  2.543502
   H (  7)  3.991520  2.133391  1.086016  3.530318  2.442842  4.185577
   H (  8)  3.878630  2.132599  1.087675  2.816424  3.084048  3.614314
   H (  9)  2.538366  2.149662  3.228258  1.096254  2.592269  1.763482
   H ( 10)  0.962102  2.271651  2.555017  2.736180  2.592855  3.726813
   H ( 11)  3.609268  2.160069  2.697549  1.093810  3.107644  1.777712
             H (  7)   H (  8)   H (  9)   H ( 10)
   H (  8)  1.850888
   H (  9)  4.143294  3.534608
   H ( 10)  3.039578  2.992053  2.418867
   H ( 11)  3.779316  2.521369  1.775440  3.139182
 
 Applying Cartesian multipole field
    Component          Value
    ---------          -----
     (2,0,0)        1.00000E-11
     (0,2,0)        2.00000E-11
     (0,0,2)       -3.00000E-10
 Nucleus-field energy     =    -0.0000000096 hartrees
 Requested basis set is 6-31G(d,p)
 There are 37 shells and 95 basis functions
 A cutoff of  1.0D-14 yielded    684 shell pairs
 There are      4614 function pairs
 Smallest overlap matrix eigenvalue = 4.83E-03
 Guess from superposition of atomic densities
 Warning:  Energy on first SCF cycle will be non-variational
 SAD guess density has 34.000000 electrons

 -----------------------------------------------------------------------
  General SCF calculation program by
  Eric Jon Sundstrom, Paul Horn, Yuezhi Mao, Dmitri Zuev, Alec White,
  David Stuck, Shaama M.S., Shane Yost, Joonho Lee, David Small,
  Daniel Levine, Susi Lehtola, Hugh Burton, Evgeny Epifanovsky
 -----------------------------------------------------------------------
 Exchange:     0.2000 Hartree-Fock + 0.0800 Slater + 0.7200 B88
 Correlation:  0.1900 VWN1RPA + 0.8100 LYP
 Using SG-1 standard quadrature grid
 using 12 threads for integral computing
 -------------------------------------------------------
 OpenMP Integral computing Module                
 Release: version 1.0, May 2013, Q-Chem Inc. Pittsburgh 
 -------------------------------------------------------
 -------------------------------------------------------
 OpenMP BLAS3 based DFT computing Module                
 Release: version 1.0, May 2013, Q-Chem Inc. Pittsburgh 
 -------------------------------------------------------
 A unrestricted SCF calculation will be
 performed using DIIS
 SCF converges when DIIS error is below 1.0e-06
 Alpha HF Exchange    Energy =  -2.79317385163951
 Beta HF Exchange     Energy =  -2.79317385163951
 DFT Correlation      Energy =  -1.43333228880519
 DFT Exchange         Energy = -21.86356908253051
 One-Electron (alpha) Energy = -260.72296231302744
 One-Electron (beta)  Energy = -260.72296231302744
 Total Coulomb        Energy = 216.91485555771879
 ---------------------------------------
  Cycle       Energy         DIIS error
 ---------------------------------------
    1    -218.6001446214      3.14e-02  
 Alpha HF Exchange    Energy =  -2.84621941742583
 Beta HF Exchange     Energy =  -2.84621941742583
 DFT Correlation      Energy =  -1.46667750551703
 DFT Exchange         Energy = -22.60327494487847
 One-Electron (alpha) Energy = -264.48786556489199
 One-Electron (beta)  Energy = -264.48786556489216
 Total Coulomb        Energy = 225.67137869930613
    2    -218.2525701941      4.90e-03  
 Alpha HF Exchange    Energy =  -2.76283491305699
 Beta HF Exchange     Energy =  -2.76283491305699
 DFT Correlation      Energy =  -1.43583863344640
 DFT Exchange         Energy = -21.92394830120445
 One-Electron (alpha) Energy = -260.60986156542822
 One-Electron (beta)  Energy = -260.60986156542816
 Total Coulomb        Energy = 217.04469630690261
    3    -218.2463100631      5.34e-03  
 Alpha HF Exchange    Energy =  -2.80510540061597
 Beta HF Exchange     Energy =  -2.80510540061597
 DFT Correlation      Energy =  -1.45133314514998
 DFT Exchange         Energy = -22.26679079737600
 One-Electron (alpha) Energy = -262.62830369111623
 One-Electron (beta)  Energy = -262.62830369111634
 Total Coulomb        Energy = 221.41801690242602
    4    -218.3527517020      3.32e-04  
 Alpha HF Exchange    Energy =  -2.80471217387962
 Beta HF Exchange     Energy =  -2.80471217387962
 DFT Correlation      Energy =  -1.45160785026850
 DFT Exchange         Energy = -22.26469831135333
 One-Electron (alpha) Energy = -262.64929869739615
 One-Electron (beta)  Energy = -262.64929869739603
 Total Coulomb        Energy = 221.45710928580098
    5    -218.3530450968      1.59e-04  
 Alpha HF Exchange    Energy =  -2.80490026119289
 Beta HF Exchange     Energy =  -2.80490026119288
 DFT Correlation      Energy =  -1.45149068163789
 DFT Exchange         Energy = -22.26570448017571
 One-Electron (alpha) Energy = -262.63592015477860
 One-Electron (beta)  Energy = -262.63592015477826
 Total Coulomb        Energy = 221.43153244445773
    6    -218.3531300277      2.42e-05  
 Alpha HF Exchange    Energy =  -2.80492133590392
 Beta HF Exchange     Energy =  -2.80492133590392
 DFT Correlation      Energy =  -1.45151661336059
 DFT Exchange         Energy = -22.26592443669684
 One-Electron (alpha) Energy = -262.64024504100774
 One-Electron (beta)  Energy = -262.64024504100780
 Total Coulomb        Energy = 221.44046787762872
    7    -218.3531324047      5.58e-06  
 Alpha HF Exchange    Energy =  -2.80491926376285
 Beta HF Exchange     Energy =  -2.80491926376285
 DFT Correlation      Energy =  -1.45151551825944
 DFT Exchange         Energy = -22.26590583236386
 One-Electron (alpha) Energy = -262.63973695833090
 One-Electron (beta)  Energy = -262.63973695833101
 Total Coulomb        Energy = 221.43942777077902
    8    -218.3531325025      3.00e-06  
 Alpha HF Exchange    Energy =  -2.80492240935872
 Beta HF Exchange     Energy =  -2.80492240935872
 DFT Correlation      Energy =  -1.45151691464990
 DFT Exchange         Energy = -22.26593080142079
 One-Electron (alpha) Energy = -262.64005502914557
 One-Electron (beta)  Energy = -262.64005502914546
 Total Coulomb        Energy = 221.44009652533020
    9    -218.3531325462      3.83e-07  Convergence criterion met
 ---------------------------------------
 SCF time:   CPU 20.07s  wall 2.00s 
<S^2> =          0.000000000
 Alpha HF Exchange    Energy =  -2.80492240935872
 Beta HF Exchange     Energy =  -2.80492240935872
 DFT Correlation      Energy =  -1.45151691464990
 DFT Exchange         Energy = -22.26593080142079
 One-Electron (alpha) Energy = -262.64005502914557
 One-Electron (beta)  Energy = -262.64005502914546
 Total Coulomb        Energy = 221.44009652533020
 Nuclear repulsion Energy = 114.81417352157847
 SCF   energy in the final basis set =     -218.3531325462
 Total energy in the final basis set =     -218.3531325462
 
 --------------------------------------------------------------
 
                    Orbital Energies (a.u.)
 --------------------------------------------------------------
 
 Alpha MOs
 -- Occupied --
-24.647 -10.212 -10.199 -10.190  -1.141  -0.797  -0.696  -0.569
 -0.496  -0.477  -0.432  -0.420  -0.381  -0.360  -0.359  -0.358
 -0.274
 -- Virtual --
 -0.001   0.089   0.119   0.124   0.143   0.169   0.174   0.184
  0.271   0.354   0.481   0.507   0.543   0.594   0.612   0.619
  0.686   0.694   0.773   0.817   0.822   0.858   0.864   0.882
  0.905   0.931   1.086   1.159   1.163   1.216   1.277   1.291
  1.328   1.379   1.468   1.569   1.609   1.646   1.685   1.797
  1.810   1.865   1.890   1.893   1.935   1.996   2.040   2.083
  2.094   2.110   2.138   2.276   2.347   2.367   2.457   2.468
  2.489   2.544   2.626   2.635   2.670   2.702   2.766   2.813
  2.851   2.862   2.987   3.175   3.253   3.409   3.425   3.452
  3.636   3.690   3.841   4.260   4.394   4.583
 
 Beta MOs
 -- Occupied --
-24.647 -10.212 -10.199 -10.190  -1.141  -0.797  -0.696  -0.569
 -0.496  -0.477  -0.432  -0.420  -0.381  -0.360  -0.359  -0.358
 -0.274
 -- Virtual --
 -0.001   0.089   0.119   0.124   0.143   0.169   0.174   0.184
  0.271   0.354   0.481   0.507   0.543   0.594   0.612   0.619
  0.686   0.694   0.773   0.817   0.822   0.858   0.864   0.882
  0.905   0.931   1.086   1.159   1.163   1.216   1.277   1.291
  1.328   1.379   1.468   1.569   1.609   1.646   1.685   1.797
  1.810   1.865   1.890   1.893   1.935   1.996   2.040   2.083
  2.094   2.110   2.138   2.276   2.347   2.367   2.457   2.468
  2.489   2.544   2.626   2.635   2.670   2.702   2.766   2.813
  2.851   2.862   2.987   3.175   3.253   3.409   3.425   3.452
  3.636   3.690   3.841   4.260   4.394   4.583
 --------------------------------------------------------------
 
          Ground-State Mulliken Net Atomic Charges

     Atom                 Charge (a.u.)    Spin (a.u.)
  --------------------------------------------------------
      1 F                    -0.383555       0.000000
      2 C                    -0.073960       0.000000
      3 C                    -0.248098      -0.000000
      4 C                    -0.353557      -0.000000
      5 H                     0.106946       0.000000
      6 H                     0.121448      -0.000000
      7 H                     0.111869       0.000000
      8 H                     0.108429      -0.000000
      9 H                     0.142612       0.000000
     10 H                     0.353004       0.000000
     11 H                     0.114863       0.000000
  --------------------------------------------------------
  Sum of atomic charges =     0.000000
  Sum of spin   charges =    -0.000000

 -----------------------------------------------------------------
                    Cartesian Multipole Moments
 -----------------------------------------------------------------
    Charge (ESU x 10^10)
                 0.0000
    Dipole Moment (Debye)
         X      -0.0260      Y      -2.0396      Z      -0.6155
       Tot       2.1306
    Quadrupole Moments (Debye-Ang)
        XX     -23.2717     XY      -0.7160     YY     -31.7569
        XZ      -0.2990     YZ      -2.5160     ZZ     -24.7582
    Octopole Moments (Debye-Ang^2)
       XXX      24.5808    XXY      -0.9316    XYY       8.3707
       YYY      -9.6064    XXZ       0.1613    XYZ      -0.0960
       YYZ      -4.1851    XZZ       8.5436    YZZ      -2.2346
       ZZZ      -2.9110
    Hexadecapole Moments (Debye-Ang^3)
      XXXX    -194.4069   XXXY       0.7447   XXYY     -70.5802
      XYYY      -5.4748   YYYY    -280.4416   XXXZ      -6.9174
      XXYZ     -11.0414   XYYZ      -3.9465   YYYZ     -44.7693
      XXZZ     -46.9826   XYZZ      -0.7128   YYZZ     -58.2410
      XZZZ      -7.3112   YZZZ     -34.1615   ZZZZ     -75.9858
 -----------------------------------------------------------------
 Calculating analytic gradient of the SCF energy
 Gradient of SCF Energy
            1           2           3           4           5           6
    1  -0.0081288  -0.0098809   0.0126878  -0.0016990  -0.0004403  -0.0001227
    2   0.0267808   0.0019874  -0.0056224   0.0006851  -0.0001337   0.0005024
    3   0.0090315   0.0070857  -0.0076760  -0.0000662   0.0000573   0.0002775
            7           8           9          10          11
    1   0.0004366   0.0002609  -0.0014143   0.0080520   0.0002486
    2  -0.0000126  -0.0002953   0.0005263  -0.0243574  -0.0000605
    3  -0.0003228  -0.0001780  -0.0001033  -0.0081253   0.0000196
 Max gradient component =       2.678E-02
 RMS gradient           =       7.783E-03
 Gradient time:  CPU 7.14 s  wall 0.67 s
 Geometry Optimization Parameters
   NAtoms,    NIC,     NZ,  NCons,   NDum,   NFix, NCnnct, MaxDiis
       11      78       0       1       0       0       0       0

 Cartesian Hessian Update
 Hessian Updated using BFGS Update


** CONSTRAINED OPTIMIZATION IN DELOCALIZED INTERNAL COORDINATES **
   Searching for a Minimum

   Optimization Cycle:   2

                       Coordinates (Angstroms)
     ATOM                X               Y               Z
      1  F         0.2393588626    2.1884131948    0.7995465907
      2  C        -0.4181415216   -0.7350467581    0.2502203052
      3  C         0.6996309944   -1.0495245105   -0.4421584585
      4  C        -1.6623702905   -0.1096884366   -0.3233812983
      5  H        -0.4430080882   -0.9455889251    1.3201459057
      6  H        -2.5467169440   -0.7134907345   -0.0905073873
      7  H         1.5622098983   -1.5001102753    0.0398793732
      8  H         0.7713642244   -0.8788966983   -1.5139683152
      9  H        -1.8261272378    0.8833705712    0.1111176079
     10  H         0.5210781219    1.3179895453    0.5018262753
     11  H        -1.5903810195   -0.0022269729   -1.4095165986
   Point Group: c1    Number of degrees of freedom:    27


   Energy is   -218.353132546

              Constraints and their Current Values
                                        Value     Constraint
   Distance(Angs):        1   3             3.498274     3.500000
 Hessian Updated using BFGS Update

   Using Lagrange Multiplier Algorithm


 28 Hessian modes will be used to form the next step
  Hessian Eigenvalues:
    -0.975418    0.028258    0.044994    0.045013    0.046030    0.046085
     0.048765    0.067764    0.073326    0.083603    0.106412    0.124179
     0.124502    0.133666    0.140504    0.152768    0.160000    0.160116
     0.296746    0.321209    0.341452    0.343765    0.347294    0.350834
     0.352753    0.584717    0.691430    1.056900

 Minimum Search - Taking P-RFO Step
 Searching for Lamda that Maximizes Along the Constraint modes Only
 Value Taken    Lamda =   0.00005654
 Searching for Lamda that Minimizes Along All other modes
 Value Taken    Lamda =  -0.00090603
 Step Taken.  Stepsize is  0.038475

                             Maximum     Tolerance    Cnvgd?
         Gradient            0.011127       0.000300      NO
         Displacement        0.020263       0.001200      NO
         Energy change      0.001347       0.000001      NO


 New Cartesian Coordinates Obtained by Inverse Iteration

 Displacement from previous Coordinates is:  0.044207
 ----------------------------------------------------------------
             Standard Nuclear Orientation (Angstroms)
    I     Atom           X                Y                Z
 ----------------------------------------------------------------
    1      F       0.2358861877     2.1882245543     0.8011914171
    2      C      -0.4154181573    -0.7346855763     0.2492198678
    3      C       0.6935167982    -1.0514360464    -0.4418571085
    4      C      -1.6571411620    -0.1103639468    -0.3243828222
    5      H      -0.4384583868    -0.9456562569     1.3190229324
    6      H      -2.5404199480    -0.7161441871    -0.0920737751
    7      H       1.5548893674    -1.5042288474     0.0398405363
    8      H       0.7626965567    -0.8812517084    -1.5137752094
    9      H      -1.8209334083     0.8821581317     0.1112965006
   10      H       0.5183431502     1.3308101266     0.5052380972
   11      H      -1.5860639978    -0.0022262434    -1.4105164362
 ----------------------------------------------------------------
 Nuclear Repulsion Energy =   115.0504247347 hartrees
 There are       17 alpha and       17 beta electrons

                       Distance Matrix (Angstroms)
             F (  1)   C (  2)   C (  3)   C (  4)   H (  5)   H (  6)
   C (  2)  3.045041
   C (  3)  3.499999  1.344491
   C (  4)  3.183391  1.503554  2.534760
   H (  5)  3.247168  1.090650  2.096009  2.209906
   H (  6)  4.115964  2.152315  3.270033  1.095956  2.542068
   H (  7)  3.994200  2.125594  1.085825  3.520321  2.433464  4.172534
   H (  8)  3.880501  2.125462  1.087546  2.804378  3.077607  3.599871
   H (  9)  2.532246  2.146784  3.219818  1.096241  2.590511  1.764537
   H ( 10)  0.950016  2.281168  2.569586  2.738245  2.600003  3.728651
   H ( 11)  3.606831  2.159082  2.689913  1.093815  3.107643  1.777292
             H (  7)   H (  8)   H (  9)   H ( 10)
   H (  8)  1.851862
   H (  9)  4.134746  3.524999
   H ( 10)  3.054254  3.004886  2.414269
   H ( 11)  3.771622  2.509985  1.775729  3.142552
 
 Applying Cartesian multipole field
    Component          Value
    ---------          -----
     (2,0,0)        1.00000E-11
     (0,2,0)        2.00000E-11
     (0,0,2)       -3.00000E-10
 Nucleus-field energy     =    -0.0000000097 hartrees
 Requested basis set is 6-31G(d,p)
 There are 37 shells and 95 basis functions
 A cutoff of  1.0D-14 yielded    684 shell pairs
 There are      4614 function pairs
 Smallest overlap matrix eigenvalue = 4.72E-03
 Guess from superposition of atomic densities
 Warning:  Energy on first SCF cycle will be non-variational
 SAD guess density has 34.000000 electrons

 -----------------------------------------------------------------------
  General SCF calculation program by
  Eric Jon Sundstrom, Paul Horn, Yuezhi Mao, Dmitri Zuev, Alec White,
  David Stuck, Shaama M.S., Shane Yost, Joonho Lee, David Small,
  Daniel Levine, Susi Lehtola, Hugh Burton, Evgeny Epifanovsky
 -----------------------------------------------------------------------
 Exchange:     0.2000 Hartree-Fock + 0.0800 Slater + 0.7200 B88
 Correlation:  0.1900 VWN1RPA + 0.8100 LYP
 Using SG-1 standard quadrature grid
 using 12 threads for integral computing
 -------------------------------------------------------
 OpenMP Integral computing Module                
 Release: version 1.0, May 2013, Q-Chem Inc. Pittsburgh 
 -------------------------------------------------------
 -------------------------------------------------------
 OpenMP BLAS3 based DFT computing Module                
 Release: version 1.0, May 2013, Q-Chem Inc. Pittsburgh 
 -------------------------------------------------------
 A unrestricted SCF calculation will be
 performed using DIIS
 SCF converges when DIIS error is below 1.0e-06
 Alpha HF Exchange    Energy =  -2.79533739284924
 Beta HF Exchange     Energy =  -2.79533739284924
 DFT Correlation      Energy =  -1.43376704721812
 DFT Exchange         Energy = -21.86839653099939
 One-Electron (alpha) Energy = -260.93978075576553
 One-Electron (beta)  Energy = -260.93978075576553
 Total Coulomb        Energy = 217.10222079946385
 ---------------------------------------
  Cycle       Energy         DIIS error
 ---------------------------------------
    1    -218.6197543509      3.16e-02  
 Alpha HF Exchange    Energy =  -2.84767032426838
 Beta HF Exchange     Energy =  -2.84767032426838
 DFT Correlation      Energy =  -1.46726243113348
 DFT Exchange         Energy = -22.61341903450875
 One-Electron (alpha) Energy = -264.73003369626639
 One-Electron (beta)  Energy = -264.73003369626628
 Total Coulomb        Energy = 225.93349529315662
    2    -218.2521694885      4.92e-03  
 Alpha HF Exchange    Energy =  -2.76405032238712
 Beta HF Exchange     Energy =  -2.76405032238711
 DFT Correlation      Energy =  -1.43626257706147
 DFT Exchange         Energy = -21.93174647832433
 One-Electron (alpha) Energy = -260.81998750562389
 One-Electron (beta)  Energy = -260.81998750562371
 Total Coulomb        Energy = 217.23931231570532
    3    -218.2463476707      5.34e-03  
 Alpha HF Exchange    Energy =  -2.80637917255338
 Beta HF Exchange     Energy =  -2.80637917255338
 DFT Correlation      Energy =  -1.45186180418236
 DFT Exchange         Energy = -22.27535446490904
 One-Electron (alpha) Energy = -262.85749851080425
 One-Electron (beta)  Energy = -262.85749851080425
 Total Coulomb        Energy = 221.65108114193649
    4    -218.3534657688      3.12e-04  
 Alpha HF Exchange    Energy =  -2.80597446512611
 Beta HF Exchange     Energy =  -2.80597446512611
 DFT Correlation      Energy =  -1.45210158283240
 DFT Exchange         Energy = -22.27306975040967
 One-Electron (alpha) Energy = -262.87349913131732
 One-Electron (beta)  Energy = -262.87349913131737
 Total Coulomb        Energy = 221.67997320892400
    5    -218.3537205922      1.54e-04  
 Alpha HF Exchange    Energy =  -2.80616724316830
 Beta HF Exchange     Energy =  -2.80616724316830
 DFT Correlation      Energy =  -1.45199242605551
 DFT Exchange         Energy = -22.27413953903727
 One-Electron (alpha) Energy = -262.86190216840879
 One-Electron (beta)  Energy = -262.86190216840885
 Total Coulomb        Energy = 221.65804740575967
    6    -218.3537986574      2.42e-05  
 Alpha HF Exchange    Energy =  -2.80617977336402
 Beta HF Exchange     Energy =  -2.80617977336402
 DFT Correlation      Energy =  -1.45201585831615
 DFT Exchange         Energy = -22.27429139147146
 One-Electron (alpha) Energy = -262.86541152745588
 One-Electron (beta)  Energy = -262.86541152745565
 Total Coulomb        Energy = 221.66526398175552
    7    -218.3538011446      1.98e-06  
 Alpha HF Exchange    Energy =  -2.80618351077636
 Beta HF Exchange     Energy =  -2.80618351077636
 DFT Correlation      Energy =  -1.45201731829523
 DFT Exchange         Energy = -22.27432017867559
 One-Electron (alpha) Energy = -262.86558355036840
 One-Electron (beta)  Energy = -262.86558355036846
 Total Coulomb        Energy = 221.66564573092222
    8    -218.3538011633      5.02e-07  Convergence criterion met
 ---------------------------------------
 SCF time:   CPU 17.60s  wall 1.00s 
<S^2> =          0.000000000
 Alpha HF Exchange    Energy =  -2.80618351077636
 Beta HF Exchange     Energy =  -2.80618351077636
 DFT Correlation      Energy =  -1.45201731829523
 DFT Exchange         Energy = -22.27432017867559
 One-Electron (alpha) Energy = -262.86558355036840
 One-Electron (beta)  Energy = -262.86558355036846
 Total Coulomb        Energy = 221.66564573092222
 Nuclear repulsion Energy = 115.05042472505203
 SCF   energy in the final basis set =     -218.3538011633
 Total energy in the final basis set =     -218.3538011633
 
 --------------------------------------------------------------
 
                    Orbital Energies (a.u.)
 --------------------------------------------------------------
 
 Alpha MOs
 -- Occupied --
-24.648 -10.210 -10.198 -10.189  -1.146  -0.798  -0.696  -0.568
 -0.500  -0.478  -0.432  -0.420  -0.381  -0.361  -0.360  -0.359
 -0.274
 -- Virtual --
  0.001   0.090   0.121   0.124   0.144   0.169   0.175   0.185
  0.272   0.357   0.481   0.509   0.543   0.595   0.614   0.621
  0.688   0.695   0.776   0.818   0.822   0.859   0.865   0.882
  0.905   0.931   1.090   1.158   1.166   1.217   1.277   1.291
  1.329   1.380   1.469   1.569   1.609   1.645   1.685   1.799
  1.811   1.865   1.888   1.892   1.943   1.999   2.040   2.083
  2.095   2.113   2.142   2.280   2.349   2.368   2.458   2.474
  2.509   2.547   2.631   2.639   2.672   2.715   2.776   2.817
  2.852   2.865   2.990   3.176   3.255   3.412   3.426   3.454
  3.642   3.700   3.847   4.263   4.395   4.586
 
 Beta MOs
 -- Occupied --
-24.648 -10.210 -10.198 -10.189  -1.146  -0.798  -0.696  -0.568
 -0.500  -0.478  -0.432  -0.420  -0.381  -0.361  -0.360  -0.359
 -0.274
 -- Virtual --
  0.001   0.090   0.121   0.124   0.144   0.169   0.175   0.185
  0.272   0.357   0.481   0.509   0.543   0.595   0.614   0.621
  0.688   0.695   0.776   0.818   0.822   0.859   0.865   0.882
  0.905   0.931   1.090   1.158   1.166   1.217   1.277   1.291
  1.329   1.380   1.469   1.569   1.609   1.645   1.685   1.799
  1.811   1.865   1.888   1.892   1.943   1.999   2.040   2.083
  2.095   2.113   2.142   2.280   2.349   2.368   2.458   2.474
  2.509   2.547   2.631   2.639   2.672   2.715   2.776   2.817
  2.852   2.865   2.990   3.176   3.255   3.412   3.426   3.454
  3.642   3.700   3.847   4.263   4.395   4.586
 --------------------------------------------------------------
 
          Ground-State Mulliken Net Atomic Charges

     Atom                 Charge (a.u.)    Spin (a.u.)
  --------------------------------------------------------
      1 F                    -0.378680      -0.000000
      2 C                    -0.072130      -0.000000
      3 C                    -0.247137       0.000000
      4 C                    -0.353824      -0.000000
      5 H                     0.105901      -0.000000
      6 H                     0.121140       0.000000
      7 H                     0.110695       0.000000
      8 H                     0.107343       0.000000
      9 H                     0.141724       0.000000
     10 H                     0.350578       0.000000
     11 H                     0.114390       0.000000
  --------------------------------------------------------
  Sum of atomic charges =     0.000000
  Sum of spin   charges =     0.000000

 -----------------------------------------------------------------
                    Cartesian Multipole Moments
 -----------------------------------------------------------------
    Charge (ESU x 10^10)
                 0.0000
    Dipole Moment (Debye)
         X      -0.0114      Y      -1.9984      Z      -0.6049
       Tot       2.0880
    Quadrupole Moments (Debye-Ang)
        XX     -23.3152     XY      -0.6667     YY     -31.6683
        XZ      -0.2738     YZ      -2.4986     ZZ     -24.7503
    Octopole Moments (Debye-Ang^2)
       XXX      24.6806    XXY      -0.8679    XYY       8.4402
       YYY      -9.4392    XXZ       0.1824    XYZ      -0.0948
       YYZ      -4.1516    XZZ       8.5573    YZZ      -2.1917
       ZZZ      -2.8775
    Hexadecapole Moments (Debye-Ang^3)
      XXXX    -193.4053   XXXY       0.8998   XXYY     -70.3687
      XYYY      -5.2905   YYYY    -280.3424   XXXZ      -6.9504
      XXYZ     -11.0573   XYYZ      -3.9162   YYYZ     -44.8217
      XXZZ     -46.7855   XYZZ      -0.6797   YYZZ     -58.2583
      XZZZ      -7.3216   YZZZ     -34.2290   ZZZZ     -76.1044
 -----------------------------------------------------------------
 Calculating analytic gradient of the SCF energy
 Gradient of SCF Energy
            1           2           3           4           5           6
    1  -0.0051160  -0.0048065   0.0063388  -0.0003298  -0.0001223   0.0000431
    2   0.0170934   0.0011174  -0.0038203   0.0001591  -0.0003203   0.0002323
    3   0.0057746   0.0033526  -0.0041541  -0.0002100  -0.0001080   0.0002962
            7           8           9          10          11
    1   0.0000385  -0.0000564  -0.0010791   0.0049840   0.0001056
    2   0.0000482  -0.0001630   0.0005242  -0.0148137  -0.0000573
    3  -0.0000212  -0.0000247   0.0000044  -0.0049182   0.0000084
 Max gradient component =       1.709E-02
 RMS gradient           =       4.702E-03
 Gradient time:  CPU 7.24 s  wall 0.69 s
 Geometry Optimization Parameters
   NAtoms,    NIC,     NZ,  NCons,   NDum,   NFix, NCnnct, MaxDiis
       11      78       0       1       0       0       0       0

 Cartesian Hessian Update
 Hessian Updated using BFGS Update


** CONSTRAINED OPTIMIZATION IN DELOCALIZED INTERNAL COORDINATES **
   Searching for a Minimum

   Optimization Cycle:   3

                       Coordinates (Angstroms)
     ATOM                X               Y               Z
      1  F         0.2358861877    2.1882245543    0.8011914171
      2  C        -0.4154181573   -0.7346855763    0.2492198678
      3  C         0.6935167982   -1.0514360464   -0.4418571085
      4  C        -1.6571411620   -0.1103639468   -0.3243828222
      5  H        -0.4384583868   -0.9456562569    1.3190229324
      6  H        -2.5404199480   -0.7161441871   -0.0920737751
      7  H         1.5548893674   -1.5042288474    0.0398405363
      8  H         0.7626965567   -0.8812517084   -1.5137752094
      9  H        -1.8209334083    0.8821581317    0.1112965006
     10  H         0.5183431502    1.3308101266    0.5052380972
     11  H        -1.5860639978   -0.0022262434   -1.4105164362
   Point Group: c1    Number of degrees of freedom:    27


   Energy is   -218.353801163

              Constraints and their Current Values
                                        Value     Constraint
   Distance(Angs):        1   3             3.499999     3.500000
 Hessian Updated using BFGS Update

   Using Lagrange Multiplier Algorithm


 28 Hessian modes will be used to form the next step
  Hessian Eigenvalues:
    -0.963400    0.028226    0.044930    0.045003    0.045961    0.046068
     0.048609    0.067808    0.073107    0.083597    0.106659    0.124167
     0.124486    0.131209    0.136837    0.152683    0.159999    0.160616
     0.288476    0.315701    0.330768    0.341547    0.343765    0.347491
     0.350961    0.352971    0.603988    1.058036

 Minimum Search - Taking P-RFO Step
 Searching for Lamda that Maximizes Along the Constraint modes Only
 Value Taken    Lamda =   0.00000068
 Searching for Lamda that Minimizes Along All other modes
 Value Taken    Lamda =  -0.00068840
 Step Taken.  Stepsize is  0.052993

                             Maximum     Tolerance    Cnvgd?
         Gradient            0.007033       0.000300      NO
         Displacement        0.031936       0.001200      NO
         Energy change     -0.000669       0.000001      NO


 New Cartesian Coordinates Obtained by Inverse Iteration

 Displacement from previous Coordinates is:  0.047932
 ----------------------------------------------------------------
             Standard Nuclear Orientation (Angstroms)
    I     Atom           X                Y                Z
 ----------------------------------------------------------------
    1      F       0.2315409794     2.1849229818     0.8023779213
    2      C      -0.4126501241    -0.7348541524     0.2487168911
    3      C       0.6878694856    -1.0545190695    -0.4417147637
    4      C      -1.6527015670    -0.1114579294    -0.3250012802
    5      H      -0.4347067108    -0.9430632310     1.3193141071
    6      H      -2.5369251008    -0.7172332922    -0.0950026121
    7      H       1.5499178428    -1.5090485655     0.0374780152
    8      H       0.7557583743    -0.8845862734    -1.5138934980
    9      H      -1.8131208543     0.8799645232     0.1122733398
   10      H       0.5141542615     1.3471368007     0.5097099886
   11      H      -1.5822395865    -0.0020617922    -1.4110541092
 ----------------------------------------------------------------
 Nuclear Repulsion Energy =   115.3174061815 hartrees
 There are       17 alpha and       17 beta electrons

                       Distance Matrix (Angstroms)
             F (  1)   C (  2)   C (  3)   C (  4)   H (  5)   H (  6)
   C (  2)  3.040826
   C (  3)  3.499998  1.337918
   C (  4)  3.177219  1.501833  2.526115
   H (  5)  3.239662  1.090879  2.091369  2.208812
   H (  6)  4.110013  2.151975  3.260870  1.096227  2.543740
   H (  7)  3.996075  2.120300  1.085979  3.513036  2.429440  4.164950
   H (  8)  3.880954  2.119998  1.087683  2.794973  3.073710  3.589293
   H (  9)  2.521865  2.141862  3.209997  1.095382  2.584648  1.765757
   H ( 10)  0.931349  2.293855  2.589080  2.742172  2.607837  3.733147
   H ( 11)  3.601664  2.158649  2.683408  1.093820  3.107608  1.776200
             H (  7)   H (  8)   H (  9)   H ( 10)
   H (  8)  1.851323
   H (  9)  4.125895  3.515281
   H ( 10)  3.074671  3.022239  2.406744
   H ( 11)  3.765590  2.501132  1.775332  3.147148
 
 Applying Cartesian multipole field
    Component          Value
    ---------          -----
     (2,0,0)        1.00000E-11
     (0,2,0)        2.00000E-11
     (0,0,2)       -3.00000E-10
 Nucleus-field energy     =    -0.0000000097 hartrees
 Requested basis set is 6-31G(d,p)
 There are 37 shells and 95 basis functions
 A cutoff of  1.0D-14 yielded    684 shell pairs
 There are      4614 function pairs
 Smallest overlap matrix eigenvalue = 4.63E-03
 Guess from superposition of atomic densities
 Warning:  Energy on first SCF cycle will be non-variational
 SAD guess density has 34.000000 electrons

 -----------------------------------------------------------------------
  General SCF calculation program by
  Eric Jon Sundstrom, Paul Horn, Yuezhi Mao, Dmitri Zuev, Alec White,
  David Stuck, Shaama M.S., Shane Yost, Joonho Lee, David Small,
  Daniel Levine, Susi Lehtola, Hugh Burton, Evgeny Epifanovsky
 -----------------------------------------------------------------------
 Exchange:     0.2000 Hartree-Fock + 0.0800 Slater + 0.7200 B88
 Correlation:  0.1900 VWN1RPA + 0.8100 LYP
 Using SG-1 standard quadrature grid
 using 12 threads for integral computing
 -------------------------------------------------------
 OpenMP Integral computing Module                
 Release: version 1.0, May 2013, Q-Chem Inc. Pittsburgh 
 -------------------------------------------------------
 -------------------------------------------------------
 OpenMP BLAS3 based DFT computing Module                
 Release: version 1.0, May 2013, Q-Chem Inc. Pittsburgh 
 -------------------------------------------------------
 A unrestricted SCF calculation will be
 performed using DIIS
 SCF converges when DIIS error is below 1.0e-06
 Alpha HF Exchange    Energy =  -2.79778254285471
 Beta HF Exchange     Energy =  -2.79778254285471
 DFT Correlation      Energy =  -1.43424371144631
 DFT Exchange         Energy = -21.87406557102595
 One-Electron (alpha) Energy = -261.18052996147611
 One-Electron (beta)  Energy = -261.18052996147611
 Total Coulomb        Energy = 217.30624433249508
 ---------------------------------------
  Cycle       Energy         DIIS error
 ---------------------------------------
    1    -218.6412837869      3.19e-02  
 Alpha HF Exchange    Energy =  -2.84935652142605
 Beta HF Exchange     Energy =  -2.84935652142604
 DFT Correlation      Energy =  -1.46787774771538
 DFT Exchange         Energy = -22.62514441663474
 One-Electron (alpha) Energy = -264.99676338893522
 One-Electron (beta)  Energy = -264.99676338893488
 Total Coulomb        Energy = 226.21626336378290
    2    -218.2515924495      4.95e-03  
 Alpha HF Exchange    Energy =  -2.76564344343829
 Beta HF Exchange     Energy =  -2.76564344343828
 DFT Correlation      Energy =  -1.43677129111646
 DFT Exchange         Energy = -21.94206630583443
 One-Electron (alpha) Energy = -261.05986727638765
 One-Electron (beta)  Energy = -261.05986727638742
 Total Coulomb        Energy = 217.46603424592936
    3    -218.2464186189      5.33e-03  
 Alpha HF Exchange    Energy =  -2.80790432494396
 Beta HF Exchange     Energy =  -2.80790432494396
 DFT Correlation      Energy =  -1.45244242924307
 DFT Exchange         Energy = -22.28552812957113
 One-Electron (alpha) Energy = -263.11241640668891
 One-Electron (beta)  Energy = -263.11241640668902
 Total Coulomb        Energy = 221.90736897398526
    4    -218.3538368763      2.86e-04  
 Alpha HF Exchange    Energy =  -2.80750847244856
 Beta HF Exchange     Energy =  -2.80750847244856
 DFT Correlation      Energy =  -1.45264271933416
 DFT Exchange         Energy = -22.28318671331320
 One-Electron (alpha) Energy = -263.12311334437891
 One-Electron (beta)  Energy = -263.12311334437885
 Total Coulomb        Energy = 221.92562058010398
    5    -218.3540463144      1.44e-04  
 Alpha HF Exchange    Energy =  -2.80769731196998
 Beta HF Exchange     Energy =  -2.80769731196998
 DFT Correlation      Energy =  -1.45254218214361
 DFT Exchange         Energy = -22.28426190878088
 One-Electron (alpha) Energy = -263.11329717028860
 One-Electron (beta)  Energy = -263.11329717028866
 Total Coulomb        Energy = 221.90727269705752
    6    -218.3541141866      2.52e-05  
 Alpha HF Exchange    Energy =  -2.80770230280340
 Beta HF Exchange     Energy =  -2.80770230280340
 DFT Correlation      Energy =  -1.45256351686646
 DFT Exchange         Energy = -22.28435312344147
 One-Electron (alpha) Energy = -263.11612476525573
 One-Electron (beta)  Energy = -263.11612476525573
 Total Coulomb        Energy = 221.91304781227620
    7    -218.3541167924      3.91e-06  
 Alpha HF Exchange    Energy =  -2.80770876361528
 Beta HF Exchange     Energy =  -2.80770876361528
 DFT Correlation      Energy =  -1.45256692580924
 DFT Exchange         Energy = -22.28440663653475
 One-Electron (alpha) Energy = -263.11684707758076
 One-Electron (beta)  Energy = -263.11684707758053
 Total Coulomb        Energy = 221.91456224353462
    8    -218.3541168294      3.02e-06  
 Alpha HF Exchange    Energy =  -2.80770800422505
 Beta HF Exchange     Energy =  -2.80770800422505
 DFT Correlation      Energy =  -1.45256621777695
 DFT Exchange         Energy = -22.28439863565566
 One-Electron (alpha) Energy = -263.11660903415316
 One-Electron (beta)  Energy = -263.11660903415338
 Total Coulomb        Energy = 221.91407588679436
    9    -218.3541168716      2.81e-07  Convergence criterion met
 ---------------------------------------
 SCF time:   CPU 20.26s  wall 1.00s 
<S^2> =          0.000000000
 Alpha HF Exchange    Energy =  -2.80770800422505
 Beta HF Exchange     Energy =  -2.80770800422505
 DFT Correlation      Energy =  -1.45256621777695
 DFT Exchange         Energy = -22.28439863565566
 One-Electron (alpha) Energy = -263.11660903415316
 One-Electron (beta)  Energy = -263.11660903415338
 Total Coulomb        Energy = 221.91407588679436
 Nuclear repulsion Energy = 115.31740617175163
 SCF   energy in the final basis set =     -218.3541168716
 Total energy in the final basis set =     -218.3541168716
 
 --------------------------------------------------------------
 
                    Orbital Energies (a.u.)
 --------------------------------------------------------------
 
 Alpha MOs
 -- Occupied --
-24.649 -10.208 -10.196 -10.189  -1.153  -0.799  -0.695  -0.567
 -0.505  -0.478  -0.432  -0.421  -0.380  -0.364  -0.362  -0.358
 -0.274
 -- Virtual --
  0.003   0.092   0.123   0.125   0.145   0.170   0.176   0.186
  0.273   0.359   0.480   0.510   0.544   0.597   0.617   0.623
  0.690   0.697   0.779   0.818   0.824   0.859   0.867   0.883
  0.906   0.932   1.094   1.156   1.168   1.218   1.277   1.291
  1.330   1.381   1.470   1.570   1.610   1.645   1.685   1.801
  1.813   1.864   1.886   1.890   1.949   2.001   2.040   2.083
  2.097   2.115   2.145   2.282   2.351   2.370   2.458   2.479
  2.544   2.551   2.635   2.643   2.676   2.736   2.792   2.820
  2.854   2.867   2.994   3.177   3.256   3.413   3.427   3.456
  3.648   3.720   3.858   4.266   4.396   4.589
 
 Beta MOs
 -- Occupied --
-24.649 -10.208 -10.196 -10.189  -1.153  -0.799  -0.695  -0.567
 -0.505  -0.478  -0.432  -0.421  -0.380  -0.364  -0.362  -0.358
 -0.274
 -- Virtual --
  0.003   0.092   0.123   0.125   0.145   0.170   0.176   0.186
  0.273   0.359   0.480   0.510   0.544   0.597   0.617   0.623
  0.690   0.697   0.779   0.818   0.824   0.859   0.867   0.883
  0.906   0.932   1.094   1.156   1.168   1.218   1.277   1.291
  1.330   1.381   1.470   1.570   1.610   1.645   1.685   1.801
  1.813   1.864   1.886   1.890   1.949   2.001   2.040   2.083
  2.097   2.115   2.145   2.282   2.351   2.370   2.458   2.479
  2.544   2.551   2.635   2.643   2.676   2.736   2.792   2.820
  2.854   2.867   2.994   3.177   3.256   3.413   3.427   3.456
  3.648   3.720   3.858   4.266   4.396   4.589
 --------------------------------------------------------------
 
          Ground-State Mulliken Net Atomic Charges

     Atom                 Charge (a.u.)    Spin (a.u.)
  --------------------------------------------------------
      1 F                    -0.370734       0.000000
      2 C                    -0.070215      -0.000000
      3 C                    -0.246432       0.000000
      4 C                    -0.354194       0.000000
      5 H                     0.104792      -0.000000
      6 H                     0.120780       0.000000
      7 H                     0.109460       0.000000
      8 H                     0.106174       0.000000
      9 H                     0.140685       0.000000
     10 H                     0.345815       0.000000
     11 H                     0.113869      -0.000000
  --------------------------------------------------------
  Sum of atomic charges =    -0.000000
  Sum of spin   charges =     0.000000

 -----------------------------------------------------------------
                    Cartesian Multipole Moments
 -----------------------------------------------------------------
    Charge (ESU x 10^10)
                 0.0000
    Dipole Moment (Debye)
         X       0.0075      Y      -1.9364      Z      -0.5900
       Tot       2.0243
    Quadrupole Moments (Debye-Ang)
        XX     -23.3505     XY      -0.6087     YY     -31.5495
        XZ      -0.2508     YZ      -2.4632     ZZ     -24.7380
    Octopole Moments (Debye-Ang^2)
       XXX      24.7998    XXY      -0.7846    XYY       8.5528
       YYY      -9.0477    XXZ       0.1902    XYZ      -0.0829
       YYZ      -4.0957    XZZ       8.5810    YZZ      -2.0971
       ZZZ      -2.8190
    Hexadecapole Moments (Debye-Ang^3)
      XXXX    -192.4607   XXXY       1.1452   XXYY     -70.1208
      XYYY      -4.9909   YYYY    -279.7242   XXXZ      -6.9244
      XXYZ     -11.0364   XYYZ      -3.8608   YYYZ     -44.7574
      XXZZ     -46.6086   XYZZ      -0.6176   YYZZ     -58.2037
      XZZZ      -7.3021   YZZZ     -34.2482   ZZZZ     -76.2192
 -----------------------------------------------------------------
 Calculating analytic gradient of the SCF energy
 Gradient of SCF Energy
            1           2           3           4           5           6
    1   0.0004163   0.0001880   0.0001703   0.0005348  -0.0000056  -0.0000554
    2   0.0001684   0.0004441  -0.0020800  -0.0000043  -0.0003479  -0.0000020
    3  -0.0000734  -0.0000931  -0.0007653  -0.0000702  -0.0000264   0.0001164
            7           8           9          10          11
    1  -0.0000417  -0.0000639  -0.0004348  -0.0006239  -0.0000841
    2  -0.0000186  -0.0000008   0.0000294   0.0018904  -0.0000788
    3   0.0000672  -0.0000017  -0.0000285   0.0008581   0.0000167
 Max gradient component =       2.080E-03
 RMS gradient           =       5.703E-04
 Gradient time:  CPU 7.16 s  wall 0.67 s
 Geometry Optimization Parameters
   NAtoms,    NIC,     NZ,  NCons,   NDum,   NFix, NCnnct, MaxDiis
       11      78       0       1       0       0       0       0

 Cartesian Hessian Update
 Hessian Updated using BFGS Update


** CONSTRAINED OPTIMIZATION IN DELOCALIZED INTERNAL COORDINATES **
   Searching for a Minimum

   Optimization Cycle:   4

                       Coordinates (Angstroms)
     ATOM                X               Y               Z
      1  F         0.2315409794    2.1849229818    0.8023779213
      2  C        -0.4126501241   -0.7348541524    0.2487168911
      3  C         0.6878694856   -1.0545190695   -0.4417147637
      4  C        -1.6527015670   -0.1114579294   -0.3250012802
      5  H        -0.4347067108   -0.9430632310    1.3193141071
      6  H        -2.5369251008   -0.7172332922   -0.0950026121
      7  H         1.5499178428   -1.5090485655    0.0374780152
      8  H         0.7557583743   -0.8845862734   -1.5138934980
      9  H        -1.8131208543    0.8799645232    0.1122733398
     10  H         0.5141542615    1.3471368007    0.5097099886
     11  H        -1.5822395865   -0.0020617922   -1.4110541092
   Point Group: c1    Number of degrees of freedom:    27


   Energy is   -218.354116872

              Constraints and their Current Values
                                        Value     Constraint
   Distance(Angs):        1   3             3.499998     3.500000
 Hessian Updated using BFGS Update

   Using Lagrange Multiplier Algorithm


 28 Hessian modes will be used to form the next step
  Hessian Eigenvalues:
    -0.960865    0.028121    0.044904    0.045000    0.045835    0.046069
     0.048419    0.067803    0.073065    0.083544    0.106602    0.123968
     0.124447    0.130464    0.136144    0.152655    0.160000    0.160546
     0.294871    0.318931    0.341462    0.343754    0.347241    0.350650
     0.352544    0.363468    0.604653    1.066206

 Minimum Search - Taking P-RFO Step
 Searching for Lamda that Maximizes Along the Constraint modes Only
 Value Taken    Lamda =   0.00000020
 Searching for Lamda that Minimizes Along All other modes
 Value Taken    Lamda =  -0.00001203
 Step Taken.  Stepsize is  0.008719

                             Maximum     Tolerance    Cnvgd?
         Gradient            0.000985       0.000300      NO
         Displacement        0.003700       0.001200      NO
         Energy change     -0.000316       0.000001      NO


 New Cartesian Coordinates Obtained by Inverse Iteration

 Displacement from previous Coordinates is:  0.006623
 ----------------------------------------------------------------
             Standard Nuclear Orientation (Angstroms)
    I     Atom           X                Y                Z
 ----------------------------------------------------------------
    1      F       0.2307017214     2.1847115841     0.8027539206
    2      C      -0.4130028622    -0.7354109148     0.2487530539
    3      C       0.6878749659    -1.0544759414    -0.4416964826
    4      C      -1.6529599681    -0.1116330046    -0.3249885250
    5      H      -0.4348259445    -0.9419472993     1.3196107281
    6      H      -2.5375958780    -0.7167049999    -0.0951944293
    7      H       1.5505265772    -1.5079878801     0.0373308291
    8      H       0.7557923288    -0.8845658297    -1.5138701728
    9      H      -1.8114037130     0.8799111869     0.1126043012
   10      H       0.5139432578     1.3452697037     0.5089260269
   11      H      -1.5821534853    -0.0019666048    -1.4110252501
 ----------------------------------------------------------------
 Nuclear Repulsion Energy =   115.3092661311 hartrees
 There are       17 alpha and       17 beta electrons

                       Distance Matrix (Angstroms)
             F (  1)   C (  2)   C (  3)   C (  4)   H (  5)   H (  6)
   C (  2)  3.041116
   C (  3)  3.500000  1.338079
   C (  4)  3.176977  1.501923  2.526278
   H (  5)  3.238219  1.090811  2.091727  2.208615
   H (  6)  4.109501  2.152335  3.261566  1.096129  2.544415
   H (  7)  3.995477  2.120618  1.085960  3.513319  2.430282  4.166106
   H (  8)  3.881099  2.120182  1.087676  2.795166  3.074000  3.589878
   H (  9)  2.519723  2.140871  3.208660  1.095332  2.582828  1.766273
   H ( 10)  0.933393  2.292630  2.587028  2.741067  2.605520  3.732103
   H ( 11)  3.601225  2.158638  2.683357  1.093854  3.107458  1.776269
             H (  7)   H (  8)   H (  9)   H ( 10)
   H (  8)  1.851076
   H (  9)  4.124355  3.514156
   H ( 10)  3.072131  3.020325  2.404344
   H ( 11)  3.765570  2.501110  1.775306  3.145613
 
 Applying Cartesian multipole field
    Component          Value
    ---------          -----
     (2,0,0)        1.00000E-11
     (0,2,0)        2.00000E-11
     (0,0,2)       -3.00000E-10
 Nucleus-field energy     =    -0.0000000097 hartrees
 Requested basis set is 6-31G(d,p)
 There are 37 shells and 95 basis functions
 A cutoff of  1.0D-14 yielded    684 shell pairs
 There are      4614 function pairs
 Smallest overlap matrix eigenvalue = 4.63E-03
 Guess from superposition of atomic densities
 Warning:  Energy on first SCF cycle will be non-variational
 SAD guess density has 34.000000 electrons

 -----------------------------------------------------------------------
  General SCF calculation program by
  Eric Jon Sundstrom, Paul Horn, Yuezhi Mao, Dmitri Zuev, Alec White,
  David Stuck, Shaama M.S., Shane Yost, Joonho Lee, David Small,
  Daniel Levine, Susi Lehtola, Hugh Burton, Evgeny Epifanovsky
 -----------------------------------------------------------------------
 Exchange:     0.2000 Hartree-Fock + 0.0800 Slater + 0.7200 B88
 Correlation:  0.1900 VWN1RPA + 0.8100 LYP
 Using SG-1 standard quadrature grid
 using 12 threads for integral computing
 -------------------------------------------------------
 OpenMP Integral computing Module                
 Release: version 1.0, May 2013, Q-Chem Inc. Pittsburgh 
 -------------------------------------------------------
 -------------------------------------------------------
 OpenMP BLAS3 based DFT computing Module                
 Release: version 1.0, May 2013, Q-Chem Inc. Pittsburgh 
 -------------------------------------------------------
 A unrestricted SCF calculation will be
 performed using DIIS
 SCF converges when DIIS error is below 1.0e-06
 Alpha HF Exchange    Energy =  -2.79762383225171
 Beta HF Exchange     Energy =  -2.79762383225171
 DFT Correlation      Energy =  -1.43422415833944
 DFT Exchange         Energy = -21.87366307978327
 One-Electron (alpha) Energy = -261.17470533342157
 One-Electron (beta)  Energy = -261.17470533342157
 Total Coulomb        Energy = 217.30335164179979
 ---------------------------------------
  Cycle       Energy         DIIS error
 ---------------------------------------
    1    -218.6399278063      3.19e-02  
 Alpha HF Exchange    Energy =  -2.84923392159333
 Beta HF Exchange     Energy =  -2.84923392159333
 DFT Correlation      Energy =  -1.46784866517696
 DFT Exchange         Energy = -22.62430585990069
 One-Electron (alpha) Energy = -264.98916749748327
 One-Electron (beta)  Energy = -264.98916749748332
 Total Coulomb        Energy = 226.20807890318457
    2    -218.2516123386      4.95e-03  
 Alpha HF Exchange    Energy =  -2.76550122627178
 Beta HF Exchange     Energy =  -2.76550122627179
 DFT Correlation      Energy =  -1.43674144753323
 DFT Exchange         Energy = -21.94114784375291
 One-Electron (alpha) Energy = -261.05304664166624
 One-Electron (beta)  Energy = -261.05304664166647
 Total Coulomb        Energy = 217.45935131047554
    3    -218.2463675953      5.33e-03  
 Alpha HF Exchange    Energy =  -2.80778813340645
 Beta HF Exchange     Energy =  -2.80778813340646
 DFT Correlation      Energy =  -1.45241265865891
 DFT Exchange         Energy = -22.28477223489549
 One-Electron (alpha) Energy = -263.10533585529646
 One-Electron (beta)  Energy = -263.10533585529691
 Total Coulomb        Energy = 221.90032830833380
    4    -218.3538384412      2.89e-04  
 Alpha HF Exchange    Energy =  -2.80738752072156
 Beta HF Exchange     Energy =  -2.80738752072156
 DFT Correlation      Energy =  -1.45261583839872
 DFT Exchange         Energy = -22.28240553739446
 One-Electron (alpha) Energy = -263.11634637581437
 One-Electron (beta)  Energy = -263.11634637581454
 Total Coulomb        Energy = 221.91917077231287
    5    -218.3540522751      1.46e-04  
 Alpha HF Exchange    Energy =  -2.80757832994576
 Beta HF Exchange     Energy =  -2.80757832994576
 DFT Correlation      Energy =  -1.45251494469887
 DFT Exchange         Energy = -22.28349288231612
 One-Electron (alpha) Energy = -263.10647741512429
 One-Electron (beta)  Energy = -263.10647741512435
 Total Coulomb        Energy = 221.90073185531028
    6    -218.3541213404      2.51e-05  
 Alpha HF Exchange    Energy =  -2.80758360347110
 Beta HF Exchange     Energy =  -2.80758360347109
 DFT Correlation      Energy =  -1.45253617709962
 DFT Exchange         Energy = -22.28358602255994
 One-Electron (alpha) Energy = -263.10929625360387
 One-Electron (beta)  Energy = -263.10929625360376
 Total Coulomb        Energy = 221.90649185946572
    7    -218.3541239329      3.94e-06  
 Alpha HF Exchange    Energy =  -2.80759007654242
 Beta HF Exchange     Energy =  -2.80759007654243
 DFT Correlation      Energy =  -1.45253960178245
 DFT Exchange         Energy = -22.28363966703503
 One-Electron (alpha) Energy = -263.11002275591557
 One-Electron (beta)  Energy = -263.11002275591562
 Total Coulomb        Energy = 221.90801484132592
    8    -218.3541239710      3.04e-06  
 Alpha HF Exchange    Energy =  -2.80758932005833
 Beta HF Exchange     Energy =  -2.80758932005833
 DFT Correlation      Energy =  -1.45253889560466
 DFT Exchange         Energy = -22.28363168277564
 One-Electron (alpha) Energy = -263.10978448392927
 One-Electron (beta)  Energy = -263.10978448392922
 Total Coulomb        Energy = 221.90752805139155
    9    -218.3541240136      2.80e-07  Convergence criterion met
 ---------------------------------------
 SCF time:   CPU 20.01s  wall 2.00s 
<S^2> =         -0.000000000
 Alpha HF Exchange    Energy =  -2.80758932005833
 Beta HF Exchange     Energy =  -2.80758932005833
 DFT Correlation      Energy =  -1.45253889560466
 DFT Exchange         Energy = -22.28363168277564
 One-Electron (alpha) Energy = -263.10978448392927
 One-Electron (beta)  Energy = -263.10978448392922
 Total Coulomb        Energy = 221.90752805139155
 Nuclear repulsion Energy = 115.30926612141103
 SCF   energy in the final basis set =     -218.3541240136
 Total energy in the final basis set =     -218.3541240136
 
 --------------------------------------------------------------
 
                    Orbital Energies (a.u.)
 --------------------------------------------------------------
 
 Alpha MOs
 -- Occupied --
-24.649 -10.208 -10.196 -10.189  -1.152  -0.799  -0.695  -0.567
 -0.504  -0.478  -0.432  -0.421  -0.380  -0.364  -0.362  -0.358
 -0.274
 -- Virtual --
  0.003   0.092   0.123   0.124   0.145   0.170   0.176   0.186
  0.273   0.359   0.480   0.510   0.544   0.597   0.617   0.623
  0.689   0.697   0.779   0.818   0.823   0.859   0.867   0.883
  0.906   0.932   1.094   1.156   1.168   1.218   1.278   1.291
  1.330   1.381   1.470   1.569   1.610   1.645   1.684   1.801
  1.814   1.864   1.886   1.890   1.949   2.001   2.040   2.083
  2.096   2.115   2.145   2.282   2.351   2.370   2.458   2.479
  2.540   2.551   2.634   2.643   2.675   2.733   2.790   2.820
  2.854   2.867   2.994   3.177   3.256   3.413   3.427   3.456
  3.648   3.717   3.856   4.266   4.396   4.589
 
 Beta MOs
 -- Occupied --
-24.649 -10.208 -10.196 -10.189  -1.152  -0.799  -0.695  -0.567
 -0.504  -0.478  -0.432  -0.421  -0.380  -0.364  -0.362  -0.358
 -0.274
 -- Virtual --
  0.003   0.092   0.123   0.124   0.145   0.170   0.176   0.186
  0.273   0.359   0.480   0.510   0.544   0.597   0.617   0.623
  0.689   0.697   0.779   0.818   0.823   0.859   0.867   0.883
  0.906   0.932   1.094   1.156   1.168   1.218   1.278   1.291
  1.330   1.381   1.470   1.569   1.610   1.645   1.684   1.801
  1.814   1.864   1.886   1.890   1.949   2.001   2.040   2.083
  2.096   2.115   2.145   2.282   2.351   2.370   2.458   2.479
  2.540   2.551   2.634   2.643   2.675   2.733   2.790   2.820
  2.854   2.867   2.994   3.177   3.256   3.413   3.427   3.456
  3.648   3.717   3.856   4.266   4.396   4.589
 --------------------------------------------------------------
 
          Ground-State Mulliken Net Atomic Charges

     Atom                 Charge (a.u.)    Spin (a.u.)
  --------------------------------------------------------
      1 F                    -0.371506      -0.000000
      2 C                    -0.070324       0.000000
      3 C                    -0.246509      -0.000000
      4 C                    -0.354204      -0.000000
      5 H                     0.104897       0.000000
      6 H                     0.120812      -0.000000
      7 H                     0.109527      -0.000000
      8 H                     0.106240       0.000000
      9 H                     0.140773       0.000000
     10 H                     0.346429       0.000000
     11 H                     0.113864      -0.000000
  --------------------------------------------------------
  Sum of atomic charges =     0.000000
  Sum of spin   charges =     0.000000

 -----------------------------------------------------------------
                    Cartesian Multipole Moments
 -----------------------------------------------------------------
    Charge (ESU x 10^10)
                 0.0000
    Dipole Moment (Debye)
         X       0.0088      Y      -1.9389      Z      -0.5919
       Tot       2.0272
    Quadrupole Moments (Debye-Ang)
        XX     -23.3507     XY      -0.6068     YY     -31.5592
        XZ      -0.2519     YZ      -2.4655     ZZ     -24.7407
    Octopole Moments (Debye-Ang^2)
       XXX      24.8198    XXY      -0.7920    XYY       8.5587
[...]
      6  H        -2.5391737640   -0.7139237215   -0.0958120289
      7  H         1.5522252132   -1.5062845449    0.0367063239
      8  H         0.7548803620   -0.8880374339   -1.5147397094
      9  H        -1.8047253724    0.8801567203    0.1138892830
     10  H         0.5107076209    1.3441298768    0.5073128610
     11  H        -1.5810325230   -0.0006357225   -1.4108785667
   Point Group: c1    Number of degrees of freedom:    27


   Energy is   -218.354129408

              Constraints and their Current Values
                                        Value     Constraint
   Distance(Angs):        1   3             3.500000     3.500000
 Hessian Updated using BFGS Update

 26 Hessian modes will be used to form the next step
  Hessian Eigenvalues:
     0.007559    0.036581    0.044973    0.045146    0.046652    0.049314
     0.063516    0.073576    0.082435    0.107509    0.122916    0.124331
     0.130245    0.133880    0.151907    0.160008    0.162313    0.294822
     0.320343    0.341440    0.343759    0.347383    0.350867    0.352864
     0.463437    0.634508

 Minimum Search - Taking Simple RFO Step
 Searching for Lamda that Minimizes Along All modes
 Value Taken    Lamda =   0.00000000
 Step Taken.  Stepsize is  0.008210

                             Maximum     Tolerance    Cnvgd?
         Gradient           0.000176      0.000300     YES
         Displacement       0.004274      0.001200      NO
         Energy change     -0.000003      0.000001      NO


 New Cartesian Coordinates Obtained by Inverse Iteration

 Displacement from previous Coordinates is:  0.007387
 ----------------------------------------------------------------
             Standard Nuclear Orientation (Angstroms)
    I     Atom           X                Y                Z
 ----------------------------------------------------------------
    1      F       0.2232920797     2.1805987487     0.8062469080
    2      C      -0.4129245001    -0.7373010550     0.2481408959
    3      C       0.6880376607    -1.0559272337    -0.4423167138
    4      C      -1.6523742475    -0.1114272049    -0.3250653456
    5      H      -0.4323391912    -0.9363013946     1.3204824952
    6      H      -2.5392206740    -0.7130512268    -0.0956464076
    7      H       1.5524789891    -1.5061023310     0.0367084778
    8      H       0.7544951928    -0.8895272020    -1.5151680946
    9      H      -1.8034455788     0.8804938654     0.1139275491
   10      H       0.5096148943     1.3440943487     0.5068250561
   11      H      -1.5807176250    -0.0003493149    -1.4109308205
 ----------------------------------------------------------------
 Nuclear Repulsion Energy =   115.3611346345 hartrees
 There are       17 alpha and       17 beta electrons

                       Distance Matrix (Angstroms)
             F (  1)   C (  2)   C (  3)   C (  4)   H (  5)   H (  6)
   C (  2)  3.038156
   C (  3)  3.500000  1.338048
   C (  4)  3.170390  1.502171  2.526530
   H (  5)  3.226354  1.090823  2.092132  2.208332
   H (  6)  4.100987  2.154046  3.263884  1.095938  2.548374
   H (  7)  3.993832  2.120983  1.085993  3.513842  2.431512  4.169947
   H (  8)  3.885462  2.120212  1.087711  2.795497  3.074358  3.590926
   H (  9)  2.505443  2.137480  3.204157  1.095192  2.576131  1.767674
   H ( 10)  0.933474  2.291332  2.587046  2.735833  2.597984  3.726958
   H ( 11)  3.595395  2.158555  2.683227  1.093882  3.107314  1.776695
             H (  7)   H (  8)   H (  9)   H ( 10)
   H (  8)  1.850747
   H (  9)  4.118742  3.511408
   H ( 10)  3.071188  3.022828  2.391557
   H ( 11)  3.765617  2.500944  1.775017  3.139237
 
 Applying Cartesian multipole field
    Component          Value
    ---------          -----
     (2,0,0)        1.00000E-11
     (0,2,0)        2.00000E-11
     (0,0,2)       -3.00000E-10
 Nucleus-field energy     =    -0.0000000098 hartrees
 Requested basis set is 6-31G(d,p)
 There are 37 shells and 95 basis functions
 A cutoff of  1.0D-14 yielded    684 shell pairs
 There are      4614 function pairs
 Smallest overlap matrix eigenvalue = 4.63E-03
 Guess from superposition of atomic densities
 Warning:  Energy on first SCF cycle will be non-variational
 SAD guess density has 34.000000 electrons

 -----------------------------------------------------------------------
  General SCF calculation program by
  Eric Jon Sundstrom, Paul Horn, Yuezhi Mao, Dmitri Zuev, Alec White,
  David Stuck, Shaama M.S., Shane Yost, Joonho Lee, David Small,
  Daniel Levine, Susi Lehtola, Hugh Burton, Evgeny Epifanovsky
 -----------------------------------------------------------------------
 Exchange:     0.2000 Hartree-Fock + 0.0800 Slater + 0.7200 B88
 Correlation:  0.1900 VWN1RPA + 0.8100 LYP
 Using SG-1 standard quadrature grid
 using 12 threads for integral computing
 -------------------------------------------------------
 OpenMP Integral computing Module                
 Release: version 1.0, May 2013, Q-Chem Inc. Pittsburgh 
 -------------------------------------------------------
 -------------------------------------------------------
 OpenMP BLAS3 based DFT computing Module                
 Release: version 1.0, May 2013, Q-Chem Inc. Pittsburgh 
 -------------------------------------------------------
 A unrestricted SCF calculation will be
 performed using DIIS
 SCF converges when DIIS error is below 1.0e-06
 Alpha HF Exchange    Energy =  -2.79765505989623
 Beta HF Exchange     Energy =  -2.79765505989623
 DFT Correlation      Energy =  -1.43427617277277
 DFT Exchange         Energy = -21.87370842091777
 One-Electron (alpha) Energy = -261.22662329548558
 One-Electron (beta)  Energy = -261.22662329548558
 Total Coulomb        Energy = 217.35530459234829
 ---------------------------------------
  Cycle       Energy         DIIS error
 ---------------------------------------
    1    -218.6401020874      3.19e-02  
 Alpha HF Exchange    Energy =  -2.84921071731621
 Beta HF Exchange     Energy =  -2.84921071731621
 DFT Correlation      Energy =  -1.46787802110812
 DFT Exchange         Energy = -22.62414883388625
 One-Electron (alpha) Energy = -265.03949059738920
 One-Electron (beta)  Energy = -265.03949059738926
 Total Coulomb        Energy = 226.25663423790141
    2    -218.2516606218      4.94e-03  
 Alpha HF Exchange    Energy =  -2.76549881597749
 Beta HF Exchange     Energy =  -2.76549881597749
 DFT Correlation      Energy =  -1.43678886540636
 DFT Exchange         Energy = -21.94118118799380
 One-Electron (alpha) Energy = -261.10517075728558
 One-Electron (beta)  Energy = -261.10517075728563
 Total Coulomb        Energy = 217.51171739531014
    3    -218.2464571799      5.33e-03  
 Alpha HF Exchange    Energy =  -2.80777995753297
 Beta HF Exchange     Energy =  -2.80777995753298
 DFT Correlation      Energy =  -1.45244997552916
 DFT Exchange         Energy = -22.28473622513622
 One-Electron (alpha) Energy = -263.15645361005323
 One-Electron (beta)  Energy = -263.15645361005335
 Total Coulomb        Energy = 221.95067594748397
    4    -218.3538427637      2.90e-04  
 Alpha HF Exchange    Energy =  -2.80737369142589
 Beta HF Exchange     Energy =  -2.80737369142589
 DFT Correlation      Energy =  -1.45265294048036
 DFT Exchange         Energy = -22.28232957851877
 One-Electron (alpha) Energy = -263.16735521716237
 One-Electron (beta)  Energy = -263.16735521716225
 Total Coulomb        Energy = 221.96924769005037
    5    -218.3540580214      1.46e-04  
 Alpha HF Exchange    Energy =  -2.80756618850979
 Beta HF Exchange     Energy =  -2.80756618850979
 DFT Correlation      Energy =  -1.45255228491563
 DFT Exchange         Energy = -22.28342910298219
 One-Electron (alpha) Energy = -263.15755987051739
 One-Electron (beta)  Energy = -263.15755987051739
 Total Coulomb        Energy = 221.95097142057267
    6    -218.3541274607      2.51e-05  
 Alpha HF Exchange    Energy =  -2.80757138549750
 Beta HF Exchange     Energy =  -2.80757138549750
 DFT Correlation      Energy =  -1.45257336135662
 DFT Exchange         Energy = -22.28352134134087
 One-Electron (alpha) Energy = -263.16034435622169
 One-Electron (beta)  Energy = -263.16034435622169
 Total Coulomb        Energy = 221.95666151584041
    7    -218.3541300456      4.04e-06  
 Alpha HF Exchange    Energy =  -2.80757787058678
 Beta HF Exchange     Energy =  -2.80757787058678
 DFT Correlation      Energy =  -1.45257682073873
 DFT Exchange         Energy = -22.28357517908584
 One-Electron (alpha) Energy = -263.16108117071769
 One-Electron (beta)  Energy = -263.16108117071769
 Total Coulomb        Energy = 221.95820537097805
    8    -218.3541300868      3.06e-06  
 Alpha HF Exchange    Energy =  -2.80757714043467
 Beta HF Exchange     Energy =  -2.80757714043467
 DFT Correlation      Energy =  -1.45257612005435
 DFT Exchange         Energy = -22.28356737836142
 One-Electron (alpha) Energy = -263.16084304305002
 One-Electron (beta)  Energy = -263.16084304305008
 Total Coulomb        Energy = 221.95771911080683
    9    -218.3541301299      2.77e-07  Convergence criterion met
 ---------------------------------------
 SCF time:   CPU 20.07s  wall 2.00s 
<S^2> =         -0.000000000
 Alpha HF Exchange    Energy =  -2.80757714043467
 Beta HF Exchange     Energy =  -2.80757714043467
 DFT Correlation      Energy =  -1.45257612005435
 DFT Exchange         Energy = -22.28356737836142
 One-Electron (alpha) Energy = -263.16084304305002
 One-Electron (beta)  Energy = -263.16084304305008
 Total Coulomb        Energy = 221.95771911080683
 Nuclear repulsion Energy = 115.36113462468109
 SCF   energy in the final basis set =     -218.3541301299
 Total energy in the final basis set =     -218.3541301299
 
 --------------------------------------------------------------
 
                    Orbital Energies (a.u.)
 --------------------------------------------------------------
 
 Alpha MOs
 -- Occupied --
-24.650 -10.208 -10.196 -10.188  -1.153  -0.799  -0.695  -0.567
 -0.504  -0.477  -0.432  -0.421  -0.380  -0.364  -0.362  -0.358
 -0.274
 -- Virtual --
  0.003   0.092   0.123   0.124   0.145   0.170   0.177   0.186
  0.273   0.359   0.480   0.510   0.544   0.596   0.617   0.623
  0.689   0.697   0.779   0.818   0.823   0.859   0.867   0.884
  0.906   0.932   1.094   1.156   1.168   1.219   1.279   1.291
  1.329   1.382   1.470   1.568   1.611   1.645   1.684   1.799
  1.816   1.864   1.886   1.890   1.949   2.002   2.040   2.083
  2.096   2.115   2.145   2.282   2.351   2.370   2.458   2.479
  2.539   2.551   2.634   2.643   2.675   2.733   2.790   2.819
  2.854   2.868   2.995   3.178   3.256   3.413   3.427   3.455
  3.649   3.717   3.856   4.266   4.396   4.589
 
 Beta MOs
 -- Occupied --
-24.650 -10.208 -10.196 -10.188  -1.153  -0.799  -0.695  -0.567
 -0.504  -0.477  -0.432  -0.421  -0.380  -0.364  -0.362  -0.358
 -0.274
 -- Virtual --
  0.003   0.092   0.123   0.124   0.145   0.170   0.177   0.186
  0.273   0.359   0.480   0.510   0.544   0.596   0.617   0.623
  0.689   0.697   0.779   0.818   0.823   0.859   0.867   0.884
  0.906   0.932   1.094   1.156   1.168   1.219   1.279   1.291
  1.329   1.382   1.470   1.568   1.611   1.645   1.684   1.799
  1.816   1.864   1.886   1.890   1.949   2.002   2.040   2.083
  2.096   2.115   2.145   2.282   2.351   2.370   2.458   2.479
  2.539   2.551   2.634   2.643   2.675   2.733   2.790   2.819
  2.854   2.868   2.995   3.178   3.256   3.413   3.427   3.455
  3.649   3.717   3.856   4.266   4.396   4.589
 --------------------------------------------------------------
 
          Ground-State Mulliken Net Atomic Charges

     Atom                 Charge (a.u.)    Spin (a.u.)
  --------------------------------------------------------
      1 F                    -0.371066      -0.000000
      2 C                    -0.070390      -0.000000
      3 C                    -0.246684       0.000000
      4 C                    -0.354509      -0.000000
      5 H                     0.104974       0.000000
      6 H                     0.120823      -0.000000
      7 H                     0.109502       0.000000
      8 H                     0.106159      -0.000000
      9 H                     0.140878       0.000000
     10 H                     0.346576       0.000000
     11 H                     0.113737       0.000000
  --------------------------------------------------------
  Sum of atomic charges =    -0.000000
  Sum of spin   charges =    -0.000000

 -----------------------------------------------------------------
                    Cartesian Multipole Moments
 -----------------------------------------------------------------
    Charge (ESU x 10^10)
                -0.0000
    Dipole Moment (Debye)
         X       0.0203      Y      -1.9226      Z      -0.5978
       Tot       2.0135
    Quadrupole Moments (Debye-Ang)
        XX     -23.3596     XY      -0.5816     YY     -31.5389
        XZ      -0.2466     YZ      -2.4651     ZZ     -24.7514
    Octopole Moments (Debye-Ang^2)
       XXX      24.9163    XXY      -0.7710    XYY       8.6491
       YYY      -8.8094    XXZ       0.1791    XYZ      -0.0723
       YYZ      -4.1338    XZZ       8.6167    YZZ      -2.0792
       ZZZ      -2.8574
    Hexadecapole Moments (Debye-Ang^3)
      XXXX    -192.1647   XXXY       1.5263   XXYY     -70.0197
      XYYY      -4.5142   YYYY    -279.1207   XXXZ      -6.8236
      XXYZ     -11.0669   XYYZ      -3.7949   YYYZ     -44.8164
      XXZZ     -46.6139   XYZZ      -0.5180   YYZZ     -58.1908
      XZZZ      -7.2150   YZZZ     -34.3658   ZZZZ     -76.4349
 -----------------------------------------------------------------
 Calculating analytic gradient of the SCF energy
 Gradient of SCF Energy
            1           2           3           4           5           6
    1  -0.0003214   0.0000006   0.0002544  -0.0001681   0.0000190   0.0000172
    2   0.0021454  -0.0000636  -0.0019670  -0.0000066   0.0000399  -0.0000162
    3   0.0006452  -0.0000240  -0.0007631   0.0000293   0.0000085  -0.0000242
            7           8           9          10          11
    1   0.0000257   0.0000197   0.0000944   0.0000414   0.0000171
    2   0.0000126   0.0000124  -0.0000485  -0.0001187   0.0000104
    3  -0.0000227  -0.0000032   0.0000287   0.0001209   0.0000047
 Max gradient component =       2.145E-03
 RMS gradient           =       5.427E-04
 Gradient time:  CPU 7.15 s  wall 0.68 s
 Geometry Optimization Parameters
   NAtoms,    NIC,     NZ,  NCons,   NDum,   NFix, NCnnct, MaxDiis
       11      78       0       1       0       0       0       0

 Cartesian Hessian Update
 Hessian Updated using BFGS Update


** CONSTRAINED OPTIMIZATION IN DELOCALIZED INTERNAL COORDINATES **
   Searching for a Minimum

   Optimization Cycle:   8

                       Coordinates (Angstroms)
     ATOM                X               Y               Z
      1  F         0.2232920797    2.1805987487    0.8062469080
      2  C        -0.4129245001   -0.7373010550    0.2481408959
      3  C         0.6880376607   -1.0559272337   -0.4423167138
      4  C        -1.6523742475   -0.1114272049   -0.3250653456
      5  H        -0.4323391912   -0.9363013946    1.3204824952
      6  H        -2.5392206740   -0.7130512268   -0.0956464076
      7  H         1.5524789891   -1.5061023310    0.0367084778
      8  H         0.7544951928   -0.8895272020   -1.5151680946
      9  H        -1.8034455788    0.8804938654    0.1139275491
     10  H         0.5096148943    1.3440943487    0.5068250561
     11  H        -1.5807176250   -0.0003493149   -1.4109308205
   Point Group: c1    Number of degrees of freedom:    27


   Energy is   -218.354130130

              Constraints and their Current Values
                                        Value     Constraint
   Distance(Angs):        1   3             3.500000     3.500000
 Hessian Updated using BFGS Update

 26 Hessian modes will be used to form the next step
  Hessian Eigenvalues:
     0.005130    0.032901    0.042580    0.044996    0.046152    0.047747
     0.063511    0.072465    0.082650    0.104900    0.121934    0.124058
     0.129657    0.134132    0.144285    0.159951    0.160448    0.290892
     0.320234    0.341158    0.343755    0.347407    0.350858    0.352840
     0.450072    0.633803

 Minimum Search - Taking Simple RFO Step
 Searching for Lamda that Minimizes Along All modes
 Value Taken    Lamda =  -0.00000125
 Step Taken.  Stepsize is  0.012193

                             Maximum     Tolerance    Cnvgd?
         Gradient           0.000086      0.000300     YES
         Displacement       0.007429      0.001200      NO
         Energy change     -0.000001      0.000001     YES


                       Distance Matrix (Angstroms)
             F (  1)   C (  2)   C (  3)   C (  4)   H (  5)   H (  6)
   C (  2)  3.038156
   C (  3)  3.500000  1.338048
   C (  4)  3.170390  1.502171  2.526530
   H (  5)  3.226354  1.090823  2.092132  2.208332
   H (  6)  4.100987  2.154046  3.263884  1.095938  2.548374
   H (  7)  3.993832  2.120983  1.085993  3.513842  2.431512  4.169947
   H (  8)  3.885462  2.120212  1.087711  2.795497  3.074358  3.590926
   H (  9)  2.505443  2.137480  3.204157  1.095192  2.576131  1.767674
   H ( 10)  0.933474  2.291332  2.587046  2.735833  2.597984  3.726958
   H ( 11)  3.595395  2.158555  2.683227  1.093882  3.107314  1.776695
             H (  7)   H (  8)   H (  9)   H ( 10)
   H (  8)  1.850747
   H (  9)  4.118742  3.511408
   H ( 10)  3.071188  3.022828  2.391557
   H ( 11)  3.765617  2.500944  1.775017  3.139237
 
 Final energy is   -218.354130129897     


 ******************************
 **  OPTIMIZATION CONVERGED  **
 ******************************

                       Coordinates (Angstroms)
     ATOM                X               Y               Z
      1  F         0.2232920797    2.1805987487    0.8062469080
      2  C        -0.4129245001   -0.7373010550    0.2481408959
      3  C         0.6880376607   -1.0559272337   -0.4423167138
      4  C        -1.6523742475   -0.1114272049   -0.3250653456
      5  H        -0.4323391912   -0.9363013946    1.3204824952
      6  H        -2.5392206740   -0.7130512268   -0.0956464076
      7  H         1.5524789891   -1.5061023310    0.0367084778
      8  H         0.7544951928   -0.8895272020   -1.5151680946
      9  H        -1.8034455788    0.8804938654    0.1139275491
     10  H         0.5096148943    1.3440943487    0.5068250561
     11  H        -1.5807176250   -0.0003493149   -1.4109308205

Z-matrix Print:
$molecule
0 1
C 
H  1 1.090823
C  1 1.338048 2 118.586084
H  3 1.085993 1 121.738914 2 0.164446 0
H  3 1.087711 1 121.521092 2 179.246452 0
C  1 1.502171 2 115.877214 3 -179.748668 0
H  6 1.093882 1 111.533616 2 -176.475035 0
H  6 1.095192 1 109.768515 2 63.417786 0
H  6 1.095938 1 111.043988 2 -55.381183 0
H  1 2.291332 2 93.548791 3 -88.228184 0
F  10 0.933474 1 136.613182 2 -72.839325 0
$end

PES scan, value:    3.5000 energy: -218.3541301299
------- Summary of potential scan: ------ 
    3.5000      -218.3541301299
----------------------------------------- 
Archival summary:
1\1\hpc0244\JobtypUnspecified\ProcedureUnspecified\6-31G**\137\knomura\WedMar1315:21:132019WedMar1315:21:132019\0\\#,JobtypUnspecified,ProcedureUnspecified,6-31G**,\\0,1\C\H,1,1.09082\C,1,1.33805,2,118.586\H,3,1.08599,1,121.739,2,0.164446,0\H,3,1.08771,1,121.521,2,179.246,0\C,1,1.50217,2,115.877,3,-179.749,0\H,6,1.09388,1,111.534,2,-176.475,0\H,6,1.09519,1,109.769,2,63.4178,0\H,6,1.09594,1,111.044,2,-55.3812,0\H,1,2.29133,2,93.5488,3,-88.2282,0\F,10,0.933474,1,136.613,2,-72.8393,0\\\@

 Total job time:  25.71s(wall), 262.21s(cpu) 
 Wed Mar 13 15:21:13 2019

        *************************************************************
        *                                                           *
        *  Thank you very much for using Q-Chem.  Have a nice day.  *
        *                                                           *
        *************************************************************


