
Running Job 1 of 1 halogens/Flourine/02/F_3.xyz.data/inputs/bond_singlet_2.2.in
qchem halogens/Flourine/02/F_3.xyz.data/inputs/bond_singlet_2.2.in_29854.0 /staging/scratch/2868761/qchem29854/ 1
/usr/usc/qchem/5.1.1/exe/qcprog.exe_s halogens/Flourine/02/F_3.xyz.data/inputs/bond_singlet_2.2.in_29854.0 /staging/scratch/2868761/qchem29854/
Check license passed

                  Welcome to Q-Chem
     A Quantum Leap Into The Future Of Chemistry


 Q-Chem 5.1, Q-Chem, Inc., Pleasanton, CA (2018)

 Yihan Shao,  Zhengting Gan,  E. Epifanovsky,  A. T. B. Gilbert,  M. Wormit,  
 J. Kussmann,  A. W. Lange,  A. Behn,  Jia Deng,  Xintian Feng,  D. Ghosh,  
 M. Goldey,  P. R. Horn,  L. D. Jacobson,  I. Kaliman,  T. Kus,  A. Landau,  
 Jie Liu,  E. I. Proynov,  R. M. Richard,  R. P. Steele,  E. J. Sundstrom,  
 H. L. Woodcock III,  P. M. Zimmerman,  D. Zuev,  B. Albrecht,  E. Alguire,  
 S. A. Baeppler,  D. Barton,  Z. Benda,  Y. A. Bernard,  E. J. Berquist,  
 K. B. Bravaya,  H. Burton,  D. Casanova,  Chun-Min Chang,  Yunqing Chen,  
 A. Chien,  K. D. Closser,  M. P. Coons,  S. Coriani,  S. Dasgupta,  
 A. L. Dempwolff,  M. Diedenhofen,  Hainam Do,  R. G. Edgar,  Po-Tung Fang,  
 S. Faraji,  S. Fatehi,  Qingguo Feng,  K. D. Fenk,  J. Fosso-Tande,  
 Qinghui Ge,  A. Ghysels,  G. Gidofalvi,  J. Gomes,  J. Gonthier,  A. Gunina,  
 D. Hait,  M. W. D. Hanson-Heine,  P. H. P. Harbach,  A. W. Hauser,  
 J. E. Herr,  E. G. Hohenstein,  Z. C. Holden,  Kerwin Hui,  B. C. Huynh,  
 T.-C. Jagau,  Hyunjun Ji,  B. Kaduk,  K. Khistyaev,  Jaehoon Kim,  
 P. Klunzinger,  K. Koh,  D. Kosenkov,  L. Koulias,  T. Kowalczyk,  
 C. M. Krauter,  A. Kunitsa,  Ka Un Lao,  A. Laurent,  K. V. Lawler,  
 Joonho Lee,  D. Lefrancois,  S. Lehtola,  D. S. Levine,  Yi-Pei Li,  
 You-Sheng Lin,  Fenglai Liu,  E. Livshits,  A. Luenser,  P. Manohar,  
 E. Mansoor,  S. F. Manzer,  Shan-Ping Mao,  Yuezhi Mao,  N. Mardirossian,  
 A. V. Marenich,  T. Markovich,  L. A. Martinez-Martinez,  S. A. Maurer,  
 N. J. Mayhall,  S. C. McKenzie,  J.-M. Mewes,  A. F. Morrison,  
 J. W. Mullinax,  K. Nanda,  T. S. Nguyen-Beck,  R. Olivares-Amaya,  
 J. A. Parkhill,  T. M. Perrine,  F. Plasser,  P. Pokhilko,  S. Prager,  
 A. Prociuk,  E. Ramos,  D. R. Rehn,  F. Rob,  M. Schneider,  N. Sergueev,  
 S. M. Sharada,  S. Sharma,  D. W. Small,  T. Stauch,  T. Stein,  
 Yu-Chuan Su,  A. J. W. Thom,  A. Tkatchenko,  T. Tsuchimochi,  N. M. Tubman,  
 L. Vogt,  M. L. Vidal,  O. Vydrov,  M. A. Watson,  J. Wenzel,  
 M. de Wergifosse,  T. A. Wesolowski,  A. White,  J. Witte,  A. Yamada,  
 Jun Yang,  K. Yao,  S. Yeganeh,  S. R. Yost,  Zhi-Qiang You,  A. Zech,  
 Igor Ying Zhang,  Xing Zhang,  Yan Zhao,  Ying Zhu,  B. R. Brooks,  
 G. K. L. Chan,  C. J. Cramer,  M. S. Gordon,  W. J. Hehre,  A. Klamt,  
 M. W. Schmidt,  C. D. Sherrill,  D. G. Truhlar,  A. Aspuru-Guzik,  R. Baer,  
 A. T. Bell,  N. A. Besley,  Jeng-Da Chai,  A. E. DePrince, III,  
 R. A. DiStasio Jr.,  A. Dreuw,  B. D. Dunietz,  T. R. Furlani,  
 Chao-Ping Hsu,  Yousung Jung,  Jing Kong,  D. S. Lambrecht,  WanZhen Liang,  
 C. Ochsenfeld,  V. A. Rassolov,  L. V. Slipchenko,  J. E. Subotnik,  
 T. Van Voorhis,  J. M. Herbert,  A. I. Krylov,  P. M. W. Gill,  M. Head-Gordon

 Contributors to earlier versions of Q-Chem not listed above: 
 R. D. Adamson,  B. Austin,  J. Baker,  G. J. O. Beran,  K. Brandhorst,  
 S. T. Brown,  E. F. C. Byrd,  A. K. Chakraborty,  C.-L. Cheng,  
 Siu Hung Chien,  D. M. Chipman,  D. L. Crittenden,  H. Dachsel,  
 R. J. Doerksen,  A. D. Dutoi,  L. Fusti-Molnar,  W. A. Goddard III,  
 A. Golubeva-Zadorozhnaya,  S. R. Gwaltney,  G. Hawkins,  A. Heyden,  
 S. Hirata,  G. Kedziora,  F. J. Keil,  C. Kelley,  Jihan Kim,  R. A. King,  
 R. Z. Khaliullin,  P. P. Korambath,  W. Kurlancheek,  A. M. Lee,  M. S. Lee,  
 S. V. Levchenko,  Ching Yeh Lin,  D. Liotard,  R. C. Lochan,  I. Lotan,  
 P. E. Maslen,  N. Nair,  D. P. O'Neill,  D. Neuhauser,  E. Neuscamman,  
 C. M. Oana,  R. Olson,  B. Peters,  R. Peverati,  P. A. Pieniazek,  
 Y. M. Rhee,  J. Ritchie,  M. A. Rohrdanz,  E. Rosta,  N. J. Russ,  
 H. F. Schaefer III,  N. E. Schultz,  N. Shenvi,  A. C. Simmonett,  A. Sodt,  
 D. Stuck,  K. S. Thanthiriwatte,  V. Vanovschi,  Tao Wang,  A. Warshel,  
 C. F. Williams,  Q. Wu,  X. Xu,  W. Zhang

 Please cite Q-Chem as follows:
 Y. Shao et al., Mol. Phys. 113, 184-215 (2015)
 DOI: 10.1080/00268976.2014.952696

 Q-Chem 5.1.1 for Intel X86 EM64T Linux

 Parts of Q-Chem use Armadillo 8.300.2 (Tropical Shenanigans).
 http://arma.sourceforge.net/

 Q-Chem begins on Wed Mar 13 15:06:24 2019  

Host: 
0

     Scratch files written to /staging/scratch/2868761/qchem29854//
 Aug318 |scratch|qcdevops|jenkins|workspace|build_RNUM 6013   
Processing $rem in /usr/usc/qchem/5.1.1/config/preferences.
 MEM_TOTAL  2000 
Input Ideriv = 2
Curr. Ideriv = -1
Max.  Ideriv = 2

Checking the input file for inconsistencies... 	...done.

--------------------------------------------------------------
User input:
--------------------------------------------------------------

$comment
potential surface scanner
$end

$rem
JOBTYPE  PES_SCAN
UNRESTRICTED TRUE
SYM_IGNORE  TRUE
GEOM_OPT_MAX_CYCLES 400
SCF_MAX_CYCLES 400
METHOD   B3LYP
BASIS   6-31G**
PDB_PRINT 2
SCF_CONVERGENCE 6
THRESH 14
SCF_PRINT 1
$end
$molecule
0 1
F 1.446194 1.072106 0.319833
C -0.683919 -0.697541 0.254967
C 0.652473 -0.745667 -0.369883
C -1.487686 0.543334 -0.144005
H -0.572333 -0.764543 1.341458
H -1.203651 -1.622210 -0.058371
H 1.427180 -1.377923 0.050212
H 0.754994 -0.505297 -1.423507
H -2.452267 0.566313 0.369995
H -0.898179 1.420754 0.125310
H -1.675906 0.565875 -1.222807
$end
$scan
stre 1 3 2.200000 2.201000 0.100000
$end
--------------------------------------------------------------
 ----------------------------------------------------------------
             Standard Nuclear Orientation (Angstroms)
    I     Atom           X                Y                Z
 ----------------------------------------------------------------
    1      F       1.4461940000     1.0721060000     0.3198330000
    2      C      -0.6839190000    -0.6975410000     0.2549670000
    3      C       0.6524730000    -0.7456670000    -0.3698830000
    4      C      -1.4876860000     0.5433340000    -0.1440050000
    5      H      -0.5723330000    -0.7645430000     1.3414580000
    6      H      -1.2036510000    -1.6222100000    -0.0583710000
    7      H       1.4271800000    -1.3779230000     0.0502120000
    8      H       0.7549940000    -0.5052970000    -1.4235070000
    9      H      -2.4522670000     0.5663130000     0.3699950000
   10      H      -0.8981790000     1.4207540000     0.1253100000
   11      H      -1.6759060000     0.5658750000    -1.2228070000
 ----------------------------------------------------------------
 Nuclear Repulsion Energy =   120.8503126876 hartrees
 There are       17 alpha and       17 beta electrons
 Requested basis set is 6-31G(d,p)
 There are 37 shells and 95 basis functions

 Total QAlloc Memory Limit   2000 MB
 Mega-Array Size       188 MB
 MEM_STATIC part       192 MB
A total of 1 constraints
  
            1
    1   1.0100000
    2   1.0100000
    3   3.0100000
    4   2.2000000
    5   2.2010000
    6   0.1000000
    7   0.0000000
    8   0.0000000
    9   0.0000000
   10   0.0000000

                       Distance Matrix (Angstroms)
             F (  1)   C (  2)   C (  3)   C (  4)   H (  5)   H (  6)
   C (  2)  2.770061
   C (  3)  2.100000  1.476041
   C (  4)  3.017018  1.531336  2.508550
   H (  5)  2.914009  1.094259  2.104565  2.180599
   H (  6)  3.797901  1.106036  2.076190  2.185770  1.758885
   H (  7)  2.464893  2.227461  1.084619  3.496483  2.457967  2.644379
   H (  8)  2.450549  2.219167  1.085547  2.786820  3.077992  2.635789
   H (  9)  3.931455  2.176606  3.450815  1.093225  2.499814  2.555811
   H ( 10)  2.378125  2.133048  2.709819  1.090832  2.522046  3.063769
   H ( 11)  3.519022  2.182676  2.805169  1.095330  3.092465  2.523223
             H (  7)   H (  8)   H (  9)   H ( 10)
   H (  8)  1.839880
   H (  9)  4.351141  3.827730
   H ( 10)  3.639440  2.973464  1.790288
   H ( 11)  3.876606  2.664013  1.771935  1.775696
 
 A cutoff of  1.0D-14 yielded    691 shell pairs
 There are      4648 function pairs
 
 -------------------------------------------------------
 OpenMP Integral Computing Module                       
 Release: version 1.0, May 2013, Q-Chem Inc. Pittsburgh 
 -------------------------------------------------------
 Integral Job Info:
 Integral job number is                      11
 Integral operator is                         1
 short-range coefficients                     0
 long-range coefficients              100000000
 Omega coefficients                           0
 if combine SR and LR in K                    0
 Integral screening is                        0
 Integral computing path is                   2
 max size of driver memory is            800000
 size of driver memory is                593474
 size of scratch memory is              2361544
 max col of scratch BK array               1296
 max len of scratch array in speh3          155
 max len of scratch index in speh4           18
 max int batch size is                      520
 min int batch size is                       52
 fixed nKL is                                52
 max L of basis functions is                  2
 order of int derivative is                   0
 number of shells is                         37
 number of basis is                          95
 number of cartesian basis is                95
 number of contracted shell pairs           691
 number of primitive shell pairs           2425
 maxK2 (contraction) of shell pair           36
 max number of K2 of shell pair               1
 max number of CS2 of shell pair             58
 max number of PS2 of shell pair            228
 mem total for path MDJ                  514716
 -------------------------------------------------------
 Smallest overlap matrix eigenvalue = 5.69E-03

 Scale SEOQF with 1.000000e-01/1.000000e-01/1.000000e+00

 Standard Electronic Orientation quadrupole field applied
 Nucleus-field energy     =    -0.0000000046 hartrees
 Guess from superposition of atomic densities
 Warning:  Energy on first SCF cycle will be non-variational
 SAD guess density has 34.000000 electrons

 -----------------------------------------------------------------------
  General SCF calculation program by
  Eric Jon Sundstrom, Paul Horn, Yuezhi Mao, Dmitri Zuev, Alec White,
  David Stuck, Shaama M.S., Shane Yost, Joonho Lee, David Small,
  Daniel Levine, Susi Lehtola, Hugh Burton, Evgeny Epifanovsky
 -----------------------------------------------------------------------
 Exchange:     0.2000 Hartree-Fock + 0.0800 Slater + 0.7200 B88
 Correlation:  0.1900 VWN1RPA + 0.8100 LYP
 Using SG-1 standard quadrature grid
 using 12 threads for integral computing
 -------------------------------------------------------
 OpenMP Integral computing Module                
 Release: version 1.0, May 2013, Q-Chem Inc. Pittsburgh 
 -------------------------------------------------------
 -------------------------------------------------------
 OpenMP BLAS3 based DFT computing Module                
 Release: version 1.0, May 2013, Q-Chem Inc. Pittsburgh 
 -------------------------------------------------------
 A unrestricted SCF calculation will be
 performed using DIIS
 SCF converges when DIIS error is below 1.0e-06
 Alpha HF Exchange    Energy =  -2.78280810008120
 Beta HF Exchange     Energy =  -2.78280810008120
 DFT Correlation      Energy =  -1.43388829370880
 DFT Exchange         Energy = -21.82741526513557
 One-Electron (alpha) Energy = -266.93803758889300
 One-Electron (beta)  Energy = -266.93803758889300
 Total Coulomb        Energy = 223.41630545555915
 ---------------------------------------
  Cycle       Energy         DIIS error
 ---------------------------------------
    1    -218.4363767982      2.96e-02  
 Alpha HF Exchange    Energy =  -2.84763744226496
 Beta HF Exchange     Energy =  -2.84763744226495
 DFT Correlation      Energy =  -1.46498456449829
 DFT Exchange         Energy = -22.60309033327597
 One-Electron (alpha) Energy = -270.86788698246647
 One-Electron (beta)  Energy = -270.86788698246619
 Total Coulomb        Energy = 232.50394453024313
    2    -218.1448665340      5.81e-03  
 Alpha HF Exchange    Energy =  -2.72291127918225
 Beta HF Exchange     Energy =  -2.72291127918225
 DFT Correlation      Energy =  -1.43065334691303
 DFT Exchange         Energy = -21.63964436860832
 One-Electron (alpha) Energy = -265.62870400536673
 One-Electron (beta)  Energy = -265.62870400536650
 Total Coulomb        Energy = 221.61192841944666
    3    -217.3112871822      1.51e-02  
 Alpha HF Exchange    Energy =  -2.79447300824305
 Beta HF Exchange     Energy =  -2.79447300824305
 DFT Correlation      Energy =  -1.44619097416870
 DFT Exchange         Energy = -22.18845305167554
 One-Electron (alpha) Energy = -268.35003364665880
 One-Electron (beta)  Energy = -268.35003364665897
 Total Coulomb        Energy = 226.82101829371098
    4    -218.2523263589      2.87e-03  
 Alpha HF Exchange    Energy =  -2.79468285968499
 Beta HF Exchange     Energy =  -2.79468285968499
 DFT Correlation      Energy =  -1.45121500121485
 DFT Exchange         Energy = -22.21962738525563
 One-Electron (alpha) Energy = -268.93697698808097
 One-Electron (beta)  Energy = -268.93697698808086
 Total Coulomb        Energy = 227.99241999090682
    5    -218.2914294081      6.63e-04  
 Alpha HF Exchange    Energy =  -2.79487336288786
 Beta HF Exchange     Energy =  -2.79487336288787
 DFT Correlation      Energy =  -1.45066750980817
 DFT Exchange         Energy = -22.22009998985765
 One-Electron (alpha) Energy = -268.86704738254014
 One-Electron (beta)  Energy = -268.86704738254008
 Total Coulomb        Energy = 227.85160305001057
    6    -218.2926932575      2.87e-04  
 Alpha HF Exchange    Energy =  -2.79511934297919
 Beta HF Exchange     Energy =  -2.79511934297919
 DFT Correlation      Energy =  -1.45062249134435
 DFT Exchange         Energy = -22.22040869194532
 One-Electron (alpha) Energy = -268.86503347873986
 One-Electron (beta)  Energy = -268.86503347874009
 Total Coulomb        Energy = 227.84799409155823
    7    -218.2930300522      1.11e-04  
 Alpha HF Exchange    Energy =  -2.79551140138956
 Beta HF Exchange     Energy =  -2.79551140138956
 DFT Correlation      Energy =  -1.45068783152140
 DFT Exchange         Energy = -22.22302017858556
 One-Electron (alpha) Energy = -268.87743576351346
 One-Electron (beta)  Energy = -268.87743576351329
 Total Coulomb        Energy = 227.87621718824857
    8    -218.2930724687      4.03e-05  
 Alpha HF Exchange    Energy =  -2.79570832903709
 Beta HF Exchange     Energy =  -2.79570832903709
 DFT Correlation      Energy =  -1.45071070406786
 DFT Exchange         Energy = -22.22426736194912
 One-Electron (alpha) Energy = -268.88131207875119
 One-Electron (beta)  Energy = -268.88131207875114
 Total Coulomb        Energy = 227.88562727085383
    9    -218.2930789277      2.00e-06  
 Alpha HF Exchange    Energy =  -2.79571633364425
 Beta HF Exchange     Energy =  -2.79571633364425
 DFT Correlation      Energy =  -1.45071156795332
 DFT Exchange         Energy = -22.22431627311154
 One-Electron (alpha) Energy = -268.88154899290089
 One-Electron (beta)  Energy = -268.88154899290095
 Total Coulomb        Energy = 227.88616686614495
   10    -218.2930789450      5.49e-07  Convergence criterion met
 ---------------------------------------
 SCF time:   CPU 22.20s  wall 2.00s 
<S^2> =          0.000000000
 Alpha HF Exchange    Energy =  -2.79571633364425
 Beta HF Exchange     Energy =  -2.79571633364425
 DFT Correlation      Energy =  -1.45071156795332
 DFT Exchange         Energy = -22.22431627311154
 One-Electron (alpha) Energy = -268.88154899290089
 One-Electron (beta)  Energy = -268.88154899290095
 Total Coulomb        Energy = 227.88616686614495
 Nuclear repulsion Energy = 120.85031268300473
 SCF   energy in the final basis set =     -218.2930789450
 Total energy in the final basis set =     -218.2930789450
 
 --------------------------------------------------------------
 
                    Orbital Energies (a.u.)
 --------------------------------------------------------------
 
 Alpha MOs
 -- Occupied --
-24.577 -10.288 -10.217 -10.183  -1.004  -0.816  -0.700  -0.609
 -0.493  -0.467  -0.439  -0.380  -0.371  -0.363  -0.301  -0.273
 -0.272
 -- Virtual --
 -0.083   0.085   0.121   0.122   0.144   0.163   0.173   0.200
  0.217   0.250   0.479   0.498   0.535   0.543   0.553   0.634
  0.643   0.691   0.766   0.792   0.827   0.860   0.876   0.890
  0.912   0.935   0.966   1.114   1.214   1.256   1.294   1.370
  1.404   1.469   1.515   1.616   1.651   1.719   1.779   1.820
  1.868   1.906   1.945   1.973   1.996   2.007   2.042   2.061
  2.067   2.095   2.114   2.164   2.242   2.281   2.332   2.378
  2.413   2.453   2.507   2.609   2.643   2.691   2.744   2.797
  2.857   2.876   2.906   3.185   3.234   3.268   3.393   3.423
  3.482   3.528   3.759   4.282   4.439   4.612
 
 Beta MOs
 -- Occupied --
-24.577 -10.288 -10.217 -10.183  -1.004  -0.816  -0.700  -0.609
 -0.493  -0.467  -0.439  -0.380  -0.371  -0.363  -0.301  -0.273
 -0.272
 -- Virtual --
 -0.083   0.085   0.121   0.122   0.144   0.163   0.173   0.200
  0.217   0.250   0.479   0.498   0.535   0.543   0.553   0.634
  0.643   0.691   0.766   0.792   0.827   0.860   0.876   0.890
  0.912   0.935   0.966   1.114   1.214   1.256   1.294   1.370
  1.404   1.469   1.515   1.616   1.651   1.719   1.779   1.820
  1.868   1.906   1.945   1.973   1.996   2.007   2.042   2.061
  2.067   2.095   2.114   2.164   2.242   2.281   2.332   2.378
  2.413   2.453   2.507   2.609   2.643   2.691   2.744   2.797
  2.857   2.876   2.906   3.185   3.234   3.268   3.393   3.423
  3.482   3.528   3.759   4.282   4.439   4.612
 --------------------------------------------------------------
 
          Ground-State Mulliken Net Atomic Charges

     Atom                 Charge (a.u.)    Spin (a.u.)
  --------------------------------------------------------
      1 F                    -0.408614      -0.000000
      2 C                    -0.208132      -0.000000
      3 C                    -0.019927       0.000000
      4 C                    -0.323020       0.000000
      5 H                     0.144670      -0.000000
      6 H                     0.122081      -0.000000
      7 H                     0.159874      -0.000000
      8 H                     0.160714       0.000000
      9 H                     0.105907      -0.000000
     10 H                     0.164066       0.000000
     11 H                     0.102382       0.000000
  --------------------------------------------------------
  Sum of atomic charges =     0.000000
  Sum of spin   charges =    -0.000000

 -----------------------------------------------------------------
                    Cartesian Multipole Moments
 -----------------------------------------------------------------
    Charge (ESU x 10^10)
                 0.0000
    Dipole Moment (Debye)
         X      -2.0699      Y      -3.4593      Z      -1.0822
       Tot       4.1740
    Quadrupole Moments (Debye-Ang)
        XX     -27.4351     XY      -4.0157     YY     -25.2020
        XZ      -1.5248     YZ      -0.2961     ZZ     -23.7533
    Octopole Moments (Debye-Ang^2)
       XXX       7.2480    XXY      -5.8801    XYY       2.6796
       YYY      -2.7782    XXZ      -0.5498    XYZ      -0.6469
       YYZ       0.0395    XZZ       4.2137    YZZ      -0.6976
       ZZZ      -0.5574
    Hexadecapole Moments (Debye-Ang^3)
      XXXX    -246.9745   XXXY     -11.2176   XXYY     -63.1780
      XYYY      -5.4122   YYYY    -129.2316   XXXZ      -5.9845
      XXYZ      -2.0268   XYYZ      -0.8113   YYYZ      -3.1690
      XXZZ     -49.3123   XYZZ      -1.6093   YYZZ     -31.7440
      XZZZ      -3.9755   YZZZ      -4.2593   ZZZZ     -50.6309
 -----------------------------------------------------------------
 Calculating analytic gradient of the SCF energy
 Gradient of SCF Energy
            1           2           3           4           5           6
    1   0.0265369  -0.0000268  -0.0265801   0.0000883   0.0000131   0.0000110
    2   0.0606513  -0.0001752  -0.0606963   0.0000247   0.0000412   0.0000437
    3   0.0229830  -0.0001704  -0.0230113   0.0000346   0.0000355   0.0000879
            7           8           9          10          11
    1   0.0000035  -0.0000063  -0.0000195  -0.0000056  -0.0000145
    2   0.0000320   0.0000343   0.0000239   0.0000245  -0.0000041
    3   0.0000306   0.0000212  -0.0000147   0.0000081  -0.0000047
 Max gradient component =       6.070E-02
 RMS gradient           =       1.726E-02
 Gradient time:  CPU 7.48 s  wall 0.67 s
 Geometry Optimization Parameters
   NAtoms,    NIC,     NZ,  NCons,   NDum,   NFix, NCnnct, MaxDiis
       11      68       0       1       0       0       0       0


** CONSTRAINED OPTIMIZATION IN DELOCALIZED INTERNAL COORDINATES **
   Searching for a Minimum

   Optimization Cycle:   1

                       Coordinates (Angstroms)
     ATOM                X               Y               Z
      1  F         1.4461940000    1.0721060000    0.3198330000
      2  C        -0.6839190000   -0.6975410000    0.2549670000
      3  C         0.6524730000   -0.7456670000   -0.3698830000
      4  C        -1.4876860000    0.5433340000   -0.1440050000
      5  H        -0.5723330000   -0.7645430000    1.3414580000
      6  H        -1.2036510000   -1.6222100000   -0.0583710000
      7  H         1.4271800000   -1.3779230000    0.0502120000
      8  H         0.7549940000   -0.5052970000   -1.4235070000
      9  H        -2.4522670000    0.5663130000    0.3699950000
     10  H        -0.8981790000    1.4207540000    0.1253100000
     11  H        -1.6759060000    0.5658750000   -1.2228070000
   Point Group: c1    Number of degrees of freedom:    27


   Energy is   -218.293078945

              Constraints and their Current Values
                                        Value     Constraint
   Distance(Angs):        1   3             2.100000     2.200000

 Attempting to Generate Delocalized Internal Coordinates

   Using Lagrange Multiplier Algorithm


 28 Hessian modes will be used to form the next step
  Hessian Eigenvalues:
    -0.964488    0.045000    0.045000    0.067251    0.067855    0.077966
     0.083071    0.085465    0.090696    0.104353    0.132498    0.160000
     0.160000    0.160000    0.160000    0.160000    0.219241    0.220385
     0.293004    0.330234    0.342038    0.343250    0.344426    0.347166
     0.350268    0.353324    0.354420    1.036819

 Minimum Search - Taking P-RFO Step
 Searching for Lamda that Maximizes Along the Constraint modes Only
 Value Taken    Lamda =   0.03415058
 Searching for Lamda that Minimizes Along All other modes
 Value Taken    Lamda =  -0.00624996
 Step Taken.  Stepsize is  0.184097

                             Maximum     Tolerance    Cnvgd?
         Gradient            0.188973       0.000300      NO
         Displacement        0.184091       0.001200      NO
         Energy change     *********       0.000001      NO


 New Cartesian Coordinates Obtained by Inverse Iteration

 Displacement from previous Coordinates is:  0.169741
 ----------------------------------------------------------------
             Standard Nuclear Orientation (Angstroms)
    I     Atom           X                Y                Z
 ----------------------------------------------------------------
    1      F       1.4855476531     1.1412626489     0.3442879151
    2      C      -0.6887934420    -0.7036873120     0.2530554505
    3      C       0.6460907870    -0.7579537884    -0.3746905231
    4      C      -1.4885126574     0.5400331737    -0.1450988009
    5      H      -0.5751788434    -0.7705991864     1.3392972300
    6      H      -1.2129880503    -1.6264453845    -0.0588266453
    7      H       1.4189441620    -1.3933751493     0.0440621606
    8      H       0.7473333898    -0.5189473189    -1.4287658514
    9      H      -2.4517852024     0.5671402483     0.3711042651
   10      H      -0.8948136196     1.4151936770     0.1222781025
   11      H      -1.6789441767     0.5625793918    -1.2235013031
 ----------------------------------------------------------------
 Nuclear Repulsion Energy =   119.5109277205 hartrees
 There are       17 alpha and       17 beta electrons

                       Distance Matrix (Angstroms)
             F (  1)   C (  2)   C (  3)   C (  4)   H (  5)   H (  6)
   C (  2)  2.853055
   C (  3)  2.197417  1.476118
   C (  4)  3.073436  1.531313  2.508787
   H (  5)  2.981921  1.094215  2.104617  2.180680
   H (  6)  3.886490  1.106134  2.076107  2.185632  1.758984
   H (  7)  2.553225  2.227533  1.084627  3.496735  2.458050  2.644234
   H (  8)  2.538696  2.219259  1.085564  2.787158  3.078074  2.635554
   H (  9)  3.979061  2.176483  3.450930  1.093204  2.499719  2.555636
   H ( 10)  2.406335  2.132886  2.709969  1.090814  2.522101  3.063593
   H ( 11)  3.578665  2.182670  2.805365  1.095319  3.092507  2.522977
             H (  7)   H (  8)   H (  9)   H ( 10)
   H (  8)  1.839812
   H (  9)  4.351221  3.827986
   H ( 10)  3.639732  2.973766  1.790327
   H ( 11)  3.876775  2.664330  1.772025  1.775650
 
 Applying Cartesian multipole field
    Component          Value
    ---------          -----
     (2,0,0)        1.00000E-11
     (0,2,0)        2.00000E-11
     (0,0,2)       -3.00000E-10
 Nucleus-field energy     =    -0.0000000046 hartrees
 Requested basis set is 6-31G(d,p)
 There are 37 shells and 95 basis functions
 A cutoff of  1.0D-14 yielded    690 shell pairs
 There are      4647 function pairs
 Smallest overlap matrix eigenvalue = 5.76E-03
 Guess from superposition of atomic densities
 Warning:  Energy on first SCF cycle will be non-variational
 SAD guess density has 34.000000 electrons

 -----------------------------------------------------------------------
  General SCF calculation program by
  Eric Jon Sundstrom, Paul Horn, Yuezhi Mao, Dmitri Zuev, Alec White,
  David Stuck, Shaama M.S., Shane Yost, Joonho Lee, David Small,
  Daniel Levine, Susi Lehtola, Hugh Burton, Evgeny Epifanovsky
 -----------------------------------------------------------------------
 Exchange:     0.2000 Hartree-Fock + 0.0800 Slater + 0.7200 B88
 Correlation:  0.1900 VWN1RPA + 0.8100 LYP
 Using SG-1 standard quadrature grid
 using 12 threads for integral computing
 -------------------------------------------------------
 OpenMP Integral computing Module                
 Release: version 1.0, May 2013, Q-Chem Inc. Pittsburgh 
 -------------------------------------------------------
 -------------------------------------------------------
 OpenMP BLAS3 based DFT computing Module                
 Release: version 1.0, May 2013, Q-Chem Inc. Pittsburgh 
 -------------------------------------------------------
 A unrestricted SCF calculation will be
 performed using DIIS
 SCF converges when DIIS error is below 1.0e-06
 Alpha HF Exchange    Energy =  -2.78115313264032
 Beta HF Exchange     Energy =  -2.78115313264032
 DFT Correlation      Energy =  -1.43253658714291
 DFT Exchange         Energy = -21.82392185271059
 One-Electron (alpha) Energy = -265.60034926855968
 One-Electron (beta)  Energy = -265.60034926855968
 Total Coulomb        Energy = 222.08642146465832
 ---------------------------------------
  Cycle       Energy         DIIS error
 ---------------------------------------
    1    -218.4221140617      2.95e-02  
 Alpha HF Exchange    Energy =  -2.84953948659009
 Beta HF Exchange     Energy =  -2.84953948659008
 DFT Correlation      Energy =  -1.46414365365477
 DFT Exchange         Energy = -22.61431958137610
 One-Electron (alpha) Energy = -269.56162204917496
 One-Electron (beta)  Energy = -269.56162204917490
 Total Coulomb        Energy = 231.27317814166472
    2    -218.1166804490      6.04e-03  
 Alpha HF Exchange    Energy =  -2.71938505053208
 Beta HF Exchange     Energy =  -2.71938505053208
 DFT Correlation      Energy =  -1.42828477307703
 DFT Exchange         Energy = -21.60216476122947
 One-Electron (alpha) Energy = -264.09904897164790
 One-Electron (beta)  Energy = -264.09904897164785
 Total Coulomb        Energy = 220.13016381197235
    3    -217.0262260508      1.64e-02  
 Alpha HF Exchange    Energy =  -2.79389091516676
 Beta HF Exchange     Energy =  -2.79389091516676
 DFT Correlation      Energy =  -1.44482254268959
 DFT Exchange         Energy = -22.18364552541265
 One-Electron (alpha) Energy = -266.98512242748109
 One-Electron (beta)  Energy = -266.98512242748109
 Total Coulomb        Energy = 225.44284634962699
    4    -218.2327206879      3.05e-03  
 Alpha HF Exchange    Energy =  -2.79286782793242
 Beta HF Exchange     Energy =  -2.79286782793242
 DFT Correlation      Energy =  -1.45013101853073
 DFT Exchange         Energy = -22.21225157619243
 One-Electron (alpha) Energy = -267.60140603665502
 One-Electron (beta)  Energy = -267.60140603665491
 Total Coulomb        Energy = 226.66259826596840
    5    -218.2774043421      8.98e-04  
 Alpha HF Exchange    Energy =  -2.79299661940983
 Beta HF Exchange     Energy =  -2.79299661940983
 DFT Correlation      Energy =  -1.44940605554028
 DFT Exchange         Energy = -22.21159432170744
 One-Electron (alpha) Energy = -267.51036646073794
 One-Electron (beta)  Energy = -267.51036646073800
 Total Coulomb        Energy = 226.47712970920881
    6    -218.2796691125      4.18e-04  
 Alpha HF Exchange    Energy =  -2.79352039728413
 Beta HF Exchange     Energy =  -2.79352039728413
 DFT Correlation      Energy =  -1.44939577744779
 DFT Exchange         Energy = -22.21343558368638
 One-Electron (alpha) Energy = -267.51450117012439
 One-Electron (beta)  Energy = -267.51450117012456
 Total Coulomb        Energy = 226.48761131949311
    7    -218.2803354606      1.92e-04  
 Alpha HF Exchange    Energy =  -2.79424310051856
 Beta HF Exchange     Energy =  -2.79424310051856
 DFT Correlation      Energy =  -1.44950519868855
 DFT Exchange         Energy = -22.21810566097790
 One-Electron (alpha) Energy = -267.53466850309269
 One-Electron (beta)  Energy = -267.53466850309258
 Total Coulomb        Energy = 226.53403572767704
    8    -218.2804706234      6.10e-05  
 Alpha HF Exchange    Energy =  -2.79455918846249
 Beta HF Exchange     Energy =  -2.79455918846249
 DFT Correlation      Energy =  -1.44953638889367
 DFT Exchange         Energy = -22.22003938903897
 One-Electron (alpha) Energy = -267.53988599661534
 One-Electron (beta)  Energy = -267.53988599661540
 Total Coulomb        Energy = 226.54705250092923
    9    -218.2804859313      5.12e-06  
 Alpha HF Exchange    Energy =  -2.79453832002219
 Beta HF Exchange     Energy =  -2.79453832002219
 DFT Correlation      Energy =  -1.44953314128973
 DFT Exchange         Energy = -22.21990201051491
 One-Electron (alpha) Energy = -267.53945881153322
 One-Electron (beta)  Energy = -267.53945881153322
 Total Coulomb        Energy = 226.54601566700052
   10    -218.2804860321      1.28e-06  
 Alpha HF Exchange    Energy =  -2.79453343734546
 Beta HF Exchange     Energy =  -2.79453343734546
 DFT Correlation      Energy =  -1.44953263265611
 DFT Exchange         Energy = -22.21987260774546
 One-Electron (alpha) Energy = -267.53937326539614
 One-Electron (beta)  Energy = -267.53937326539636
 Total Coulomb        Energy = 226.54580489083742
   11    -218.2804860392      2.51e-07  Convergence criterion met
 ---------------------------------------
 SCF time:   CPU 23.72s  wall 2.00s 
<S^2> =          0.000000000
 Alpha HF Exchange    Energy =  -2.79453343734546
 Beta HF Exchange     Energy =  -2.79453343734546
 DFT Correlation      Energy =  -1.44953263265611
 DFT Exchange         Energy = -22.21987260774546
 One-Electron (alpha) Energy = -267.53937326539614
 One-Electron (beta)  Energy = -267.53937326539636
 Total Coulomb        Energy = 226.54580489083742
 Nuclear repulsion Energy = 119.51092771585269
 SCF   energy in the final basis set =     -218.2804860392
 Total energy in the final basis set =     -218.2804860392
 
 --------------------------------------------------------------
 
                    Orbital Energies (a.u.)
 --------------------------------------------------------------
 
 Alpha MOs
 -- Occupied --
-24.571 -10.292 -10.220 -10.185  -0.995  -0.820  -0.702  -0.612
 -0.496  -0.470  -0.441  -0.382  -0.373  -0.365  -0.291  -0.267
 -0.266
 -- Virtual --
 -0.097   0.083   0.119   0.119   0.142   0.161   0.172   0.200
  0.214   0.248   0.476   0.495   0.537   0.541   0.552   0.625
  0.641   0.689   0.760   0.787   0.824   0.858   0.874   0.889
  0.910   0.927   0.958   1.110   1.203   1.263   1.290   1.367
  1.391   1.467   1.511   1.601   1.649   1.715   1.785   1.825
  1.866   1.912   1.957   1.979   1.992   2.006   2.041   2.052
  2.064   2.084   2.112   2.145   2.230   2.272   2.302   2.376
  2.402   2.432   2.496   2.605   2.638   2.687   2.740   2.793
  2.850   2.874   2.903   3.183   3.231   3.264   3.389   3.419
  3.478   3.524   3.732   4.271   4.435   4.608
 
 Beta MOs
 -- Occupied --
-24.571 -10.292 -10.220 -10.185  -0.995  -0.820  -0.702  -0.612
 -0.496  -0.470  -0.441  -0.382  -0.373  -0.365  -0.291  -0.267
 -0.266
 -- Virtual --
 -0.097   0.083   0.119   0.119   0.142   0.161   0.172   0.200
  0.214   0.248   0.476   0.495   0.537   0.541   0.552   0.625
  0.641   0.689   0.760   0.787   0.824   0.858   0.874   0.889
  0.910   0.927   0.958   1.110   1.203   1.263   1.290   1.367
  1.391   1.467   1.511   1.601   1.649   1.715   1.785   1.825
  1.866   1.912   1.957   1.979   1.992   2.006   2.041   2.052
  2.064   2.084   2.112   2.145   2.230   2.272   2.302   2.376
  2.402   2.432   2.496   2.605   2.638   2.687   2.740   2.793
  2.850   2.874   2.903   3.183   3.231   3.264   3.389   3.419
  3.478   3.524   3.732   4.271   4.435   4.608
 --------------------------------------------------------------
 
          Ground-State Mulliken Net Atomic Charges

     Atom                 Charge (a.u.)    Spin (a.u.)
  --------------------------------------------------------
      1 F                    -0.412316      -0.000000
      2 C                    -0.212482      -0.000000
      3 C                    -0.029060       0.000000
      4 C                    -0.323997       0.000000
      5 H                     0.148036      -0.000000
      6 H                     0.126832      -0.000000
      7 H                     0.162639      -0.000000
      8 H                     0.163315       0.000000
      9 H                     0.107056       0.000000
     10 H                     0.166759      -0.000000
     11 H                     0.103218       0.000000
  --------------------------------------------------------
  Sum of atomic charges =     0.000000
  Sum of spin   charges =    -0.000000

 -----------------------------------------------------------------
                    Cartesian Multipole Moments
 -----------------------------------------------------------------
    Charge (ESU x 10^10)
                -0.0000
    Dipole Moment (Debye)
         X      -2.2679      Y      -3.7139      Z      -1.1572
       Tot       4.5028
    Quadrupole Moments (Debye-Ang)
        XX     -27.6678     XY      -4.3608     YY     -25.3718
        XZ      -1.6529     YZ      -0.3754     ZZ     -23.7236
    Octopole Moments (Debye-Ang^2)
       XXX       6.0273    XXY      -6.7489    XYY       1.9790
       YYY      -4.1232    XXZ      -0.8126    XYZ      -0.7690
       YYZ      -0.1900    XZZ       3.9933    YZZ      -1.0332
       ZZZ      -0.8553
    Hexadecapole Moments (Debye-Ang^3)
      XXXX    -251.3141   XXXY     -14.6452   XXYY     -65.1664
      XYYY      -8.5413   YYYY    -134.8596   XXXZ      -7.0952
      XXYZ      -2.5455   XYYZ      -1.2718   YYYZ      -4.2457
      XXZZ     -50.0251   XYZZ      -2.5176   YYZZ     -32.7473
      XZZZ      -4.8353   YZZZ      -5.1708   ZZZZ     -50.9657
 -----------------------------------------------------------------
 Calculating analytic gradient of the SCF energy
 Gradient of SCF Energy
            1           2           3           4           5           6
    1   0.0262147  -0.0023378  -0.0221538   0.0003822   0.0001568  -0.0003038
    2   0.0572374  -0.0025755  -0.0524225  -0.0001587   0.0002633   0.0004263
    3   0.0217226  -0.0006727  -0.0205096   0.0002491  -0.0000577   0.0004408
            7           8           9          10          11
    1  -0.0007707  -0.0006420  -0.0000342  -0.0005136   0.0000021
    2  -0.0012402  -0.0015309   0.0000569  -0.0000485  -0.0000076
    3  -0.0006333  -0.0003499  -0.0000180  -0.0001370  -0.0000344
 Max gradient component =       5.724E-02
 RMS gradient           =       1.568E-02
 Gradient time:  CPU 7.35 s  wall 0.63 s
 Geometry Optimization Parameters
   NAtoms,    NIC,     NZ,  NCons,   NDum,   NFix, NCnnct, MaxDiis
       11      68       0       1       0       0       0       0

 Cartesian Hessian Update
 Hessian Updated using BFGS Update
**WARNING** Hereditary positive definiteness endangered


** CONSTRAINED OPTIMIZATION IN DELOCALIZED INTERNAL COORDINATES **
   Searching for a Minimum

   Optimization Cycle:   2

                       Coordinates (Angstroms)
     ATOM                X               Y               Z
      1  F         1.4855476531    1.1412626489    0.3442879151
      2  C        -0.6887934420   -0.7036873120    0.2530554505
      3  C         0.6460907870   -0.7579537884   -0.3746905231
      4  C        -1.4885126574    0.5400331737   -0.1450988009
      5  H        -0.5751788434   -0.7705991864    1.3392972300
      6  H        -1.2129880503   -1.6264453845   -0.0588266453
      7  H         1.4189441620   -1.3933751493    0.0440621606
      8  H         0.7473333898   -0.5189473189   -1.4287658514
      9  H        -2.4517852024    0.5671402483    0.3711042651
     10  H        -0.8948136196    1.4151936770    0.1222781025
     11  H        -1.6789441767    0.5625793918   -1.2235013031
   Point Group: c1    Number of degrees of freedom:    27


   Energy is   -218.280486039

              Constraints and their Current Values
                                        Value     Constraint
   Distance(Angs):        1   3             2.197417     2.200000
 Hessian Updated using BFGS Update
**WARNING** Hereditary positive definiteness endangered

   Using Lagrange Multiplier Algorithm


 25 Hessian modes will be used to form the next step
  Hessian Eigenvalues:
    -1.009818    0.044188    0.045000    0.054820    0.067853    0.077950
     0.083049    0.085462    0.090216    0.104111    0.131714    0.158527
     0.159999    0.208969    0.219300    0.292995    0.330080    0.342031
     0.342810    0.343416    0.344427    0.347301    0.353323    0.354418
     0.990968

 Minimum Search - Taking P-RFO Step
 Searching for Lamda that Maximizes Along the Constraint modes Only
 Value Taken    Lamda =   0.00003233
 Searching for Lamda that Minimizes Along All other modes
 Value Taken    Lamda =  -0.00040954
 Step Taken.  Stepsize is  0.062386

                             Maximum     Tolerance    Cnvgd?
         Gradient            0.012771       0.000300      NO
         Displacement        0.046029       0.001200      NO
         Energy change      0.012593       0.000001      NO


 New Cartesian Coordinates Obtained by Inverse Iteration

 Displacement from previous Coordinates is:  0.100373
 ----------------------------------------------------------------
             Standard Nuclear Orientation (Angstroms)
    I     Atom           X                Y                Z
 ----------------------------------------------------------------
    1      F       1.4438331550     1.1468535386     0.3443853402
    2      C      -0.6883977696    -0.7074946452     0.2534213637
    3      C       0.6389635378    -0.7687881438    -0.3784510203
    4      C      -1.4800547914     0.5413936772    -0.1453336013
    5      H      -0.5729518478    -0.7734197146     1.3396807706
    6      H      -1.2139774355    -1.6308672275    -0.0568344815
    7      H       1.4230984363    -1.3876755785     0.0444351371
    8      H       0.7451789423    -0.5167107130    -1.4290989840
    9      H      -2.4418074041     0.5770887738     0.3730786452
   10      H      -0.8748690985     1.4098523548     0.1212770214
   11      H      -1.6721157245     0.5649686783    -1.2233581912
 ----------------------------------------------------------------
 Nuclear Repulsion Energy =   119.9196844470 hartrees
 There are       17 alpha and       17 beta electrons

                       Distance Matrix (Angstroms)
             F (  1)   C (  2)   C (  3)   C (  4)   H (  5)   H (  6)
   C (  2)  2.827241
   C (  3)  2.199998  1.471363
   C (  4)  3.025810  1.531486  2.502231
   H (  5)  2.957276  1.094364  2.102555  2.181018
   H (  6)  3.865316  1.106847  2.068818  2.190285  1.759655
   H (  7)  2.552301  2.228169  1.084768  3.490791  2.457476  2.650201
   H (  8)  2.529982  2.218652  1.085673  2.778363  3.077257  2.638702
   H (  9)  3.927296  2.176906  3.444899  1.093158  2.500163  2.562706
   H ( 10)  2.344211  2.129646  2.699610  1.091582  2.518400  3.064750
   H ( 11)  3.536318  2.183516  2.798904  1.095253  3.093318  2.528312
             H (  7)   H (  8)   H (  9)   H ( 10)
   H (  8)  1.841048
   H (  9)  4.348080  3.821142
   H ( 10)  3.621149  2.956327  1.792260
   H ( 11)  3.873044  2.656252  1.772338  1.776928
 
 Applying Cartesian multipole field
    Component          Value
    ---------          -----
     (2,0,0)        1.00000E-11
     (0,2,0)        2.00000E-11
     (0,0,2)       -3.00000E-10
 Nucleus-field energy     =    -0.0000000047 hartrees
 Requested basis set is 6-31G(d,p)
 There are 37 shells and 95 basis functions
 A cutoff of  1.0D-14 yielded    691 shell pairs
 There are      4648 function pairs
 Smallest overlap matrix eigenvalue = 5.72E-03
 Guess from superposition of atomic densities
 Warning:  Energy on first SCF cycle will be non-variational
 SAD guess density has 34.000000 electrons

 -----------------------------------------------------------------------
  General SCF calculation program by
  Eric Jon Sundstrom, Paul Horn, Yuezhi Mao, Dmitri Zuev, Alec White,
  David Stuck, Shaama M.S., Shane Yost, Joonho Lee, David Small,
  Daniel Levine, Susi Lehtola, Hugh Burton, Evgeny Epifanovsky
 -----------------------------------------------------------------------
 Exchange:     0.2000 Hartree-Fock + 0.0800 Slater + 0.7200 B88
 Correlation:  0.1900 VWN1RPA + 0.8100 LYP
 Using SG-1 standard quadrature grid
 using 12 threads for integral computing
 -------------------------------------------------------
 OpenMP Integral computing Module                
 Release: version 1.0, May 2013, Q-Chem Inc. Pittsburgh 
 -------------------------------------------------------
 -------------------------------------------------------
 OpenMP BLAS3 based DFT computing Module                
 Release: version 1.0, May 2013, Q-Chem Inc. Pittsburgh 
 -------------------------------------------------------
 A unrestricted SCF calculation will be
 performed using DIIS
 SCF converges when DIIS error is below 1.0e-06
 Alpha HF Exchange    Energy =  -2.78171797087875
 Beta HF Exchange     Energy =  -2.78171797087875
 DFT Correlation      Energy =  -1.43288181979032
 DFT Exchange         Energy = -21.82499811453492
 One-Electron (alpha) Energy = -266.00767042556794
 One-Electron (beta)  Energy = -266.00767042556794
 Total Coulomb        Energy = 222.48936191170432
 ---------------------------------------
  Cycle       Energy         DIIS error
 ---------------------------------------
    1    -218.4276103732      2.96e-02  
 Alpha HF Exchange    Energy =  -2.84988363889573
 Beta HF Exchange     Energy =  -2.84988363889573
 DFT Correlation      Energy =  -1.46449913862825
 DFT Exchange         Energy = -22.61660043912960
 One-Electron (alpha) Energy = -269.99106546443841
 One-Electron (beta)  Energy = -269.99106546443858
 Total Coulomb        Energy = 231.72737378639673
    2    -218.1159395557      6.05e-03  
 Alpha HF Exchange    Energy =  -2.71895497006403
 Beta HF Exchange     Energy =  -2.71895497006402
 DFT Correlation      Energy =  -1.42845718798247
 DFT Exchange         Energy = -21.59904636584536
 One-Electron (alpha) Energy = -264.45122213647210
 One-Electron (beta)  Energy = -264.45122213647198
 Total Coulomb        Energy = 220.44338449957266
    3    -217.0047888250      1.65e-02  
 Alpha HF Exchange    Energy =  -2.79424995646547
 Beta HF Exchange     Energy =  -2.79424995646547
 DFT Correlation      Energy =  -1.44516148821815
 DFT Exchange         Energy = -22.18588621313926
 One-Electron (alpha) Energy = -267.40230260426142
 One-Electron (beta)  Energy = -267.40230260426159
 Total Coulomb        Energy = 225.87279289211554
    4    -218.2316754884      3.07e-03  
 Alpha HF Exchange    Energy =  -2.79311426959648
 Beta HF Exchange     Energy =  -2.79311426959648
 DFT Correlation      Energy =  -1.45048683282311
 DFT Exchange         Energy = -22.21413677761672
 One-Electron (alpha) Energy = -268.01783629653715
 One-Electron (beta)  Energy = -268.01783629653750
 Total Coulomb        Energy = 227.08960535604291
    5    -218.2772349443      8.97e-04  
 Alpha HF Exchange    Energy =  -2.79316832062167
 Beta HF Exchange     Energy =  -2.79316832062167
 DFT Correlation      Energy =  -1.44974352070921
 DFT Exchange         Energy = -22.21301679421459
 One-Electron (alpha) Energy = -267.92360378840300
 One-Electron (beta)  Energy = -267.92360378840294
 Total Coulomb        Energy = 226.89715525840967
    6    -218.2794648322      4.24e-04  
 Alpha HF Exchange    Energy =  -2.79370808418419
 Beta HF Exchange     Energy =  -2.79370808418419
 DFT Correlation      Energy =  -1.44973419801164
 DFT Exchange         Energy = -22.21492001216817
 One-Electron (alpha) Energy = -267.92846777202618
 One-Electron (beta)  Energy = -267.92846777202612
 Total Coulomb        Energy = 226.90916955662905
    7    -218.2801519236      1.95e-04  
 Alpha HF Exchange    Energy =  -2.79444285712195
 Beta HF Exchange     Energy =  -2.79444285712196
 DFT Correlation      Energy =  -1.44984566914538
 DFT Exchange         Energy = -22.21965996163343
 One-Electron (alpha) Energy = -267.94921101766874
 One-Electron (beta)  Energy = -267.94921101766897
 Total Coulomb        Energy = 226.95683789303959
    8    -218.2802910450      6.25e-05  
 Alpha HF Exchange    Energy =  -2.79476817000097
 Beta HF Exchange     Energy =  -2.79476817000097
 DFT Correlation      Energy =  -1.44987750907705
 DFT Exchange         Energy = -22.22164302696971
 One-Electron (alpha) Energy = -267.95464631325774
 One-Electron (beta)  Energy = -267.95464631325780
 Total Coulomb        Energy = 226.97035790528150
    9    -218.2803071550      5.38e-06  
 Alpha HF Exchange    Energy =  -2.79474644290322
 Beta HF Exchange     Energy =  -2.79474644290323
 DFT Correlation      Energy =  -1.44987421341367
 DFT Exchange         Energy = -22.22150072077179
 One-Electron (alpha) Energy = -267.95421980608484
 One-Electron (beta)  Energy = -267.95421980608495
 Total Coulomb        Energy = 226.96931572374228
   10    -218.2803072661      1.33e-06  
 Alpha HF Exchange    Energy =  -2.79474078296721
 Beta HF Exchange     Energy =  -2.79474078296721
 DFT Correlation      Energy =  -1.44987356820940
 DFT Exchange         Energy = -22.22146627259858
 One-Electron (alpha) Energy = -267.95410330609673
 One-Electron (beta)  Energy = -267.95410330609678
 Total Coulomb        Energy = 226.96903630273368
   11    -218.2803072739      1.97e-07  Convergence criterion met
 ---------------------------------------
 SCF time:   CPU 23.65s  wall 2.00s 
<S^2> =         -0.000000000
 Alpha HF Exchange    Energy =  -2.79474078296721
 Beta HF Exchange     Energy =  -2.79474078296721
 DFT Correlation      Energy =  -1.44987356820940
 DFT Exchange         Energy = -22.22146627259858
 One-Electron (alpha) Energy = -267.95410330609673
 One-Electron (beta)  Energy = -267.95410330609678
 Total Coulomb        Energy = 226.96903630273368
 Nuclear repulsion Energy = 119.91968444233142
 SCF   energy in the final basis set =     -218.2803072739
 Total energy in the final basis set =     -218.2803072739
 
 --------------------------------------------------------------
 
                    Orbital Energies (a.u.)
 --------------------------------------------------------------
 
 Alpha MOs
 -- Occupied --
-24.569 -10.292 -10.220 -10.184  -0.995  -0.820  -0.702  -0.612
 -0.497  -0.469  -0.442  -0.382  -0.372  -0.365  -0.290  -0.266
 -0.265
 -- Virtual --
 -0.097   0.084   0.118   0.119   0.143   0.162   0.172   0.202
  0.216   0.249   0.475   0.496   0.537   0.543   0.552   0.626
  0.640   0.690   0.761   0.788   0.823   0.860   0.875   0.889
  0.912   0.928   0.960   1.111   1.206   1.263   1.292   1.374
  1.394   1.462   1.514   1.600   1.648   1.714   1.788   1.829
  1.868   1.913   1.958   1.981   1.992   2.009   2.041   2.050
  2.064   2.081   2.114   2.146   2.232   2.274   2.304   2.379
  2.405   2.436   2.496   2.603   2.642   2.688   2.736   2.796
  2.850   2.874   2.904   3.185   3.230   3.263   3.392   3.420
  3.479   3.525   3.740   4.278   4.434   4.609
 
 Beta MOs
 -- Occupied --
-24.569 -10.292 -10.220 -10.184  -0.995  -0.820  -0.702  -0.612
 -0.497  -0.469  -0.442  -0.382  -0.372  -0.365  -0.290  -0.266
 -0.265
 -- Virtual --
 -0.097   0.084   0.118   0.119   0.143   0.162   0.172   0.202
  0.216   0.249   0.475   0.496   0.537   0.543   0.552   0.626
  0.640   0.690   0.761   0.788   0.823   0.860   0.875   0.889
  0.912   0.928   0.960   1.111   1.206   1.263   1.292   1.374
  1.394   1.462   1.514   1.600   1.648   1.714   1.788   1.829
  1.868   1.913   1.958   1.981   1.992   2.009   2.041   2.050
  2.064   2.081   2.114   2.146   2.232   2.274   2.304   2.379
  2.405   2.436   2.496   2.603   2.642   2.688   2.736   2.796
  2.850   2.874   2.904   3.185   3.230   3.263   3.392   3.420
  3.479   3.525   3.740   4.278   4.434   4.609
 --------------------------------------------------------------
 
          Ground-State Mulliken Net Atomic Charges

     Atom                 Charge (a.u.)    Spin (a.u.)
  --------------------------------------------------------
      1 F                    -0.414260       0.000000
      2 C                    -0.210911      -0.000000
      3 C                    -0.029826      -0.000000
      4 C                    -0.324593       0.000000
      5 H                     0.148275      -0.000000
      6 H                     0.125943       0.000000
      7 H                     0.163535       0.000000
      8 H                     0.164709       0.000000
      9 H                     0.106174       0.000000
     10 H                     0.168573      -0.000000
     11 H                     0.102381      -0.000000
  --------------------------------------------------------
  Sum of atomic charges =    -0.000000
  Sum of spin   charges =     0.000000

 -----------------------------------------------------------------
                    Cartesian Multipole Moments
 -----------------------------------------------------------------
    Charge (ESU x 10^10)
                -0.0000
    Dipole Moment (Debye)
         X      -2.1746      Y      -3.7465      Z      -1.1627
       Tot       4.4852
    Quadrupole Moments (Debye-Ang)
        XX     -27.4843     XY      -4.3196     YY     -25.4034
        XZ      -1.6434     YZ      -0.3836     ZZ     -23.7083
    Octopole Moments (Debye-Ang^2)
       XXX       7.1731    XXY      -6.5434    XYY       2.1871
       YYY      -4.1014    XXZ      -0.7349    XYZ      -0.7634
       YYZ      -0.1925    XZZ       4.1877    YZZ      -1.0069
       ZZZ      -0.8078
    Hexadecapole Moments (Debye-Ang^3)
      XXXX    -245.4445   XXXY     -13.8966   XXYY     -64.4078
      XYYY      -8.0449   YYYY    -136.0881   XXXZ      -6.7475
      XXYZ      -2.5512   XYYZ      -1.1973   YYYZ      -4.3358
      XXZZ     -49.1633   XYZZ      -2.3610   YYZZ     -32.9525
      XZZZ      -4.6412   YZZZ      -5.2885   ZZZZ     -51.0372
 -----------------------------------------------------------------
 Calculating analytic gradient of the SCF energy
 Gradient of SCF Energy
            1           2           3           4           5           6
    1   0.0238450  -0.0001772  -0.0243215   0.0005011   0.0000042   0.0004489
    2   0.0567575  -0.0011334  -0.0549095  -0.0004081   0.0003054  -0.0000034
    3   0.0214999  -0.0006519  -0.0205496  -0.0000681   0.0001418   0.0001548
            7           8           9          10          11
    1  -0.0002453  -0.0000982   0.0000475  -0.0000200   0.0000155
    2  -0.0006065  -0.0006070   0.0001102   0.0004206   0.0000740
    3  -0.0003860  -0.0002248   0.0000158   0.0000638   0.0000043
 Max gradient component =       5.676E-02
 RMS gradient           =       1.584E-02
 Gradient time:  CPU 7.35 s  wall 0.63 s
 Geometry Optimization Parameters
   NAtoms,    NIC,     NZ,  NCons,   NDum,   NFix, NCnnct, MaxDiis
       11      68       0       1       0       0       0       0

 Cartesian Hessian Update
 Hessian Updated using BFGS Update


** CONSTRAINED OPTIMIZATION IN DELOCALIZED INTERNAL COORDINATES **
   Searching for a Minimum

   Optimization Cycle:   3

                       Coordinates (Angstroms)
     ATOM                X               Y               Z
      1  F         1.4438331550    1.1468535386    0.3443853402
      2  C        -0.6883977696   -0.7074946452    0.2534213637
      3  C         0.6389635378   -0.7687881438   -0.3784510203
      4  C        -1.4800547914    0.5413936772   -0.1453336013
      5  H        -0.5729518478   -0.7734197146    1.3396807706
      6  H        -1.2139774355   -1.6308672275   -0.0568344815
      7  H         1.4230984363   -1.3876755785    0.0444351371
      8  H         0.7451789423   -0.5167107130   -1.4290989840
      9  H        -2.4418074041    0.5770887738    0.3730786452
     10  H        -0.8748690985    1.4098523548    0.1212770214
     11  H        -1.6721157245    0.5649686783   -1.2233581912
   Point Group: c1    Number of degrees of freedom:    27


   Energy is   -218.280307274

              Constraints and their Current Values
                                        Value     Constraint
   Distance(Angs):        1   3             2.199998     2.200000
 Hessian Updated using BFGS Update

   Using Lagrange Multiplier Algorithm


 26 Hessian modes will be used to form the next step
  Hessian Eigenvalues:
    -1.009523    0.036135    0.045000    0.047085    0.067971    0.078300
     0.083084    0.085459    0.090324    0.105067    0.135888    0.156944
     0.159999    0.160522    0.212985    0.230952    0.293011    0.329661
     0.342039    0.343256    0.344426    0.347209    0.353297    0.354416
     0.374923    0.991733

 Minimum Search - Taking P-RFO Step
 Searching for Lamda that Maximizes Along the Constraint modes Only
 Value Taken    Lamda =   0.00000000
 Searching for Lamda that Minimizes Along All other modes
 Value Taken    Lamda =  -0.00003222
 Step Taken.  Stepsize is  0.026273

                             Maximum     Tolerance    Cnvgd?
         Gradient            0.000838       0.000300      NO
         Displacement        0.019166       0.001200      NO
         Energy change      0.000179       0.000001      NO


 New Cartesian Coordinates Obtained by Inverse Iteration

 Displacement from previous Coordinates is:  0.021142
 ----------------------------------------------------------------
             Standard Nuclear Orientation (Angstroms)
    I     Atom           X                Y                Z
 ----------------------------------------------------------------
    1      F       1.4390141822     1.1453020041     0.3427197690
    2      C      -0.6882795473    -0.7069082974     0.2528674886
    3      C       0.6395600968    -0.7727916733    -0.3796304200
    4      C      -1.4806930186     0.5421019352    -0.1451906500
    5      H      -0.5718870704    -0.7742468962     1.3387452125
    6      H      -1.2177747353    -1.6287772679    -0.0572601407
    7      H       1.4264083687    -1.3857044636     0.0468794864
    8      H       0.7490048299    -0.5151297893    -1.4284802775
    9      H      -2.4416019594     0.5780450703     0.3748613246
   10      H      -0.8725929472     1.4081482539     0.1206494322
   11      H      -1.6742581995     0.5651621241    -1.2229592251
 ----------------------------------------------------------------
 Nuclear Repulsion Energy =   119.9447601957 hartrees
 There are       17 alpha and       17 beta electrons

                       Distance Matrix (Angstroms)
             F (  1)   C (  2)   C (  3)   C (  4)   H (  5)   H (  6)
   C (  2)  2.822080
   C (  3)  2.200000  1.472261
   C (  4)  3.021026  1.531795  2.505869
   H (  5)  2.953042  1.094172  2.102480  2.181918
   H (  6)  3.861868  1.107423  2.070345  2.188510  1.759609
   H (  7)  2.548269  2.230493  1.084759  3.493504  2.456824  2.657373
   H (  8)  2.523945  2.220247  1.085566  2.781389  3.077245  2.643611
   H (  9)  3.921989  2.177183  3.447837  1.093203  2.500720  2.560185
   H ( 10)  2.337077  2.127185  2.700627  1.091097  2.517346  3.061653
   H ( 11)  3.532758  2.183662  2.802691  1.095255  3.093795  2.525985
             H (  7)   H (  8)   H (  9)   H ( 10)
   H (  8)  1.842135
   H (  9)  4.350332  3.824532
   H ( 10)  3.618903  2.954383  1.793177
   H ( 11)  3.877177  2.661104  1.772572  1.777239
 
 Applying Cartesian multipole field
    Component          Value
    ---------          -----
     (2,0,0)        1.00000E-11
     (0,2,0)        2.00000E-11
     (0,0,2)       -3.00000E-10
 Nucleus-field energy     =    -0.0000000046 hartrees
 Requested basis set is 6-31G(d,p)
 There are 37 shells and 95 basis functions
 A cutoff of  1.0D-14 yielded    691 shell pairs
 There are      4648 function pairs
 Smallest overlap matrix eigenvalue = 5.73E-03
 Guess from superposition of atomic densities
 Warning:  Energy on first SCF cycle will be non-variational
 SAD guess density has 34.000000 electrons

 -----------------------------------------------------------------------
  General SCF calculation program by
  Eric Jon Sundstrom, Paul Horn, Yuezhi Mao, Dmitri Zuev, Alec White,
  David Stuck, Shaama M.S., Shane Yost, Joonho Lee, David Small,
  Daniel Levine, Susi Lehtola, Hugh Burton, Evgeny Epifanovsky
 -----------------------------------------------------------------------
 Exchange:     0.2000 Hartree-Fock + 0.0800 Slater + 0.7200 B88
 Correlation:  0.1900 VWN1RPA + 0.8100 LYP
 Using SG-1 standard quadrature grid
 using 12 threads for integral computing
 -------------------------------------------------------
 OpenMP Integral computing Module                
 Release: version 1.0, May 2013, Q-Chem Inc. Pittsburgh 
 -------------------------------------------------------
 -------------------------------------------------------
 OpenMP BLAS3 based DFT computing Module                
 Release: version 1.0, May 2013, Q-Chem Inc. Pittsburgh 
 -------------------------------------------------------
 A unrestricted SCF calculation will be
 performed using DIIS
 SCF converges when DIIS error is below 1.0e-06
 Alpha HF Exchange    Energy =  -2.78158551818484
 Beta HF Exchange     Energy =  -2.78158551818484
 DFT Correlation      Energy =  -1.43288358712518
 DFT Exchange         Energy = -21.82475603696125
 One-Electron (alpha) Energy = -266.03321018593238
 One-Electron (beta)  Energy = -266.03321018593238
 Total Coulomb        Energy = 222.51607989141502
 ---------------------------------------
  Cycle       Energy         DIIS error
 ---------------------------------------
    1    -218.4263909498      2.96e-02  
 Alpha HF Exchange    Energy =  -2.84988263463199
 Beta HF Exchange     Energy =  -2.84988263463198
 DFT Correlation      Energy =  -1.46449785605701
 DFT Exchange         Energy = -22.61649632371558
 One-Electron (alpha) Energy = -270.01999374962611
 One-Electron (beta)  Energy = -270.01999374962617
 Total Coulomb        Energy = 231.76024138691326
    2    -218.1157453703      6.06e-03  
 Alpha HF Exchange    Energy =  -2.71881564179705
 Beta HF Exchange     Energy =  -2.71881564179705
 DFT Correlation      Energy =  -1.42843187537130
 DFT Exchange         Energy = -21.59802001427263
 One-Electron (alpha) Energy = -264.46467468080607
 One-Electron (beta)  Energy = -264.46467468080607
 Total Coulomb        Energy = 220.45062786732149
    3    -216.9980444765      1.65e-02  
 Alpha HF Exchange    Energy =  -2.79425195909377
 Beta HF Exchange     Energy =  -2.79425195909377
 DFT Correlation      Energy =  -1.44517032627634
 DFT Exchange         Energy = -22.18583833612593
 One-Electron (alpha) Energy = -267.43153689037916
 One-Electron (beta)  Energy = -267.43153689037916
 Total Coulomb        Energy = 225.90621199346694
    4    -218.2316141768      3.08e-03  
 Alpha HF Exchange    Energy =  -2.79308593131041
 Beta HF Exchange     Energy =  -2.79308593131041
 DFT Correlation      Energy =  -1.45049484353804
 DFT Exchange         Energy = -22.21397571018835
 One-Electron (alpha) Energy = -268.04524625759149
 One-Electron (beta)  Energy = -268.04524625759143
 Total Coulomb        Energy = 227.11913968095877
    5    -218.2772350595      9.00e-04  
 Alpha HF Exchange    Energy =  -2.79313017545664
 Beta HF Exchange     Energy =  -2.79313017545664
 DFT Correlation      Energy =  -1.44974718753673
 DFT Exchange         Energy = -22.21279156723821
 One-Electron (alpha) Energy = -267.95047401339150
 One-Electron (beta)  Energy = -267.95047401339144
 Total Coulomb        Energy = 226.92551364513002
    6    -218.2794732963      4.26e-04  
 Alpha HF Exchange    Energy =  -2.79367233721128
 Beta HF Exchange     Energy =  -2.79367233721129
 DFT Correlation      Energy =  -1.44973752072343
 DFT Exchange         Energy = -22.21469402922602
 One-Electron (alpha) Energy = -267.95546709278068
 One-Electron (beta)  Energy = -267.95546709278108
 Total Coulomb        Energy = 226.93778174057474
    7    -218.2801684783      1.96e-04  
 Alpha HF Exchange    Energy =  -2.79441319042233
 Beta HF Exchange     Energy =  -2.79441319042233
 DFT Correlation      Energy =  -1.44984983954126
 DFT Exchange         Energy = -22.21946950382044
 One-Electron (alpha) Energy = -267.97641366865474
 One-Electron (beta)  Energy = -267.97641366865503
 Total Coulomb        Energy = 226.98590339646020
    8    -218.2803094740      6.27e-05  
 Alpha HF Exchange    Energy =  -2.79473990870578
 Beta HF Exchange     Energy =  -2.79473990870578
 DFT Correlation      Energy =  -1.44988171823795
 DFT Exchange         Energy = -22.22145932964597
 One-Electron (alpha) Energy = -267.98188960039352
 One-Electron (beta)  Energy = -267.98188960039346
 Total Coulomb        Energy = 226.99951419558232
    9    -218.2803256794      5.48e-06  
 Alpha HF Exchange    Energy =  -2.79471772285340
 Beta HF Exchange     Energy =  -2.79471772285340
 DFT Correlation      Energy =  -1.44987836615378
 DFT Exchange         Energy = -22.22131411679570
 One-Electron (alpha) Energy = -267.98145326350948
 One-Electron (beta)  Energy = -267.98145326350959
 Total Coulomb        Energy = 226.99844846991130
   10    -218.2803257947      1.35e-06  
 Alpha HF Exchange    Energy =  -2.79471194785414
 Beta HF Exchange     Energy =  -2.79471194785414
 DFT Correlation      Energy =  -1.44987770562767
 DFT Exchange         Energy = -22.22127897172901
 One-Electron (alpha) Energy = -267.98133321058754
 One-Electron (beta)  Energy = -267.98133321058771
 Total Coulomb        Energy = 226.99816100046638
   11    -218.2803258027      1.94e-07  Convergence criterion met
 ---------------------------------------
 SCF time:   CPU 23.52s  wall 2.00s 
<S^2> =          0.000000000
 Alpha HF Exchange    Energy =  -2.79471194785414
 Beta HF Exchange     Energy =  -2.79471194785414
 DFT Correlation      Energy =  -1.44987770562767
 DFT Exchange         Energy = -22.22127897172901
 One-Electron (alpha) Energy = -267.98133321058754
 One-Electron (beta)  Energy = -267.98133321058771
 Total Coulomb        Energy = 226.99816100046638
 Nuclear repulsion Energy = 119.94476019107644
 SCF   energy in the final basis set =     -218.2803258027
 Total energy in the final basis set =     -218.2803258027
 
 --------------------------------------------------------------
 
                    Orbital Energies (a.u.)
 --------------------------------------------------------------
 
 Alpha MOs
 -- Occupied --
-24.569 -10.292 -10.220 -10.184  -0.995  -0.820  -0.702  -0.611
 -0.497  -0.469  -0.442  -0.382  -0.372  -0.365  -0.289  -0.266
 -0.265
 -- Virtual --
 -0.097   0.084   0.118   0.119   0.143   0.162   0.172   0.203
  0.216   0.249   0.475   0.495   0.537   0.543   0.552   0.626
  0.640   0.690   0.762   0.788   0.823   0.860   0.875   0.889
  0.912   0.929   0.960   1.111   1.207   1.263   1.292   1.375
  1.396   1.459   1.516   1.601   1.649   1.713   1.788   1.829
  1.867   1.913   1.958   1.981   1.992   2.010   2.041   2.050
  2.064   2.080   2.114   2.146   2.233   2.275   2.303   2.379
  2.406   2.438   2.496   2.602   2.642   2.688   2.735   2.796
  2.849   2.875   2.905   3.185   3.231   3.263   3.393   3.420
  3.478   3.526   3.741   4.278   4.435   4.609
 
 Beta MOs
 -- Occupied --
-24.569 -10.292 -10.220 -10.184  -0.995  -0.820  -0.702  -0.611
 -0.497  -0.469  -0.442  -0.382  -0.372  -0.365  -0.289  -0.266
 -0.265
 -- Virtual --
 -0.097   0.084   0.118   0.119   0.143   0.162   0.172   0.203
  0.216   0.249   0.475   0.495   0.537   0.543   0.552   0.626
  0.640   0.690   0.762   0.788   0.823   0.860   0.875   0.889
  0.912   0.929   0.960   1.111   1.207   1.263   1.292   1.375
  1.396   1.459   1.516   1.601   1.649   1.713   1.788   1.829
  1.867   1.913   1.958   1.981   1.992   2.010   2.041   2.050
  2.064   2.080   2.114   2.146   2.233   2.275   2.303   2.379
  2.406   2.438   2.496   2.602   2.642   2.688   2.735   2.796
  2.849   2.875   2.905   3.185   3.231   3.263   3.393   3.420
  3.478   3.526   3.741   4.278   4.435   4.609
 --------------------------------------------------------------
 
          Ground-State Mulliken Net Atomic Charges

     Atom                 Charge (a.u.)    Spin (a.u.)
  --------------------------------------------------------
      1 F                    -0.414919      -0.000000
      2 C                    -0.210593      -0.000000
      3 C                    -0.030557       0.000000
      4 C                    -0.324585       0.000000
      5 H                     0.148185       0.000000
      6 H                     0.125563      -0.000000
      7 H                     0.164219      -0.000000
      8 H                     0.165308      -0.000000
      9 H                     0.106225      -0.000000
     10 H                     0.168827      -0.000000
     11 H                     0.102328      -0.000000
  --------------------------------------------------------
  Sum of atomic charges =     0.000000
  Sum of spin   charges =    -0.000000

 -----------------------------------------------------------------
                    Cartesian Multipole Moments
 -----------------------------------------------------------------
    Charge (ESU x 10^10)
                 0.0000
    Dipole Moment (Debye)
         X      -2.1601      Y      -3.7476      Z      -1.1615
       Tot       4.4788
    Quadrupole Moments (Debye-Ang)
        XX     -27.4404     XY      -4.3196     YY     -25.4153
        XZ      -1.6387     YZ      -0.3848     ZZ     -23.7037
    Octopole Moments (Debye-Ang^2)
       XXX       7.2961    XXY      -6.5171    XYY       2.2437
       YYY      -4.0239    XXZ      -0.7115    XYZ      -0.7641
       YYZ      -0.1707    XZZ       4.2215    YZZ      -0.9830
       ZZZ      -0.7709
    Hexadecapole Moments (Debye-Ang^3)
      XXXX    -245.0010   XXXY     -13.7126   XXYY     -64.3504
      XYYY      -7.8610   YYYY    -136.2011   XXXZ      -6.6551
      XXYZ      -2.5464   XYYZ      -1.1601   YYYZ      -4.3369
      XXZZ     -49.0900   XYZZ      -2.3031   YYZZ     -32.9507
      XZZZ      -4.5784   YZZZ      -5.2985   ZZZZ     -51.0009
 -----------------------------------------------------------------
 Calculating analytic gradient of the SCF energy
 Gradient of SCF Energy
            1           2           3           4           5           6
    1   0.0234687   0.0000337  -0.0237087  -0.0000674   0.0000286   0.0001691
    2   0.0565597   0.0000697  -0.0562946  -0.0000902   0.0001941  -0.0000964
    3   0.0213685  -0.0000879  -0.0210058  -0.0000246   0.0000391  -0.0000151
            7           8           9          10          11
    1   0.0000395   0.0000310  -0.0000600   0.0000704  -0.0000048
    2  -0.0002634  -0.0001589   0.0001025  -0.0000575   0.0000350
    3  -0.0002332  -0.0000738  -0.0000079   0.0000557  -0.0000150
 Max gradient component =       5.656E-02
 RMS gradient           =       1.593E-02
 Gradient time:  CPU 7.49 s  wall 0.64 s
 Geometry Optimization Parameters
   NAtoms,    NIC,     NZ,  NCons,   NDum,   NFix, NCnnct, MaxDiis
       11      68       0       1       0       0       0       0

 Cartesian Hessian Update
 Hessian Updated using BFGS Update


** CONSTRAINED OPTIMIZATION IN DELOCALIZED INTERNAL COORDINATES **
   Searching for a Minimum

   Optimization Cycle:   4

                       Coordinates (Angstroms)
     ATOM                X               Y               Z
      1  F         1.4390141822    1.1453020041    0.3427197690
      2  C        -0.6882795473   -0.7069082974    0.2528674886
      3  C         0.6395600968   -0.7727916733   -0.3796304200
      4  C        -1.4806930186    0.5421019352   -0.1451906500
      5  H        -0.5718870704   -0.7742468962    1.3387452125
      6  H        -1.2177747353   -1.6287772679   -0.0572601407
      7  H         1.4264083687   -1.3857044636    0.0468794864
      8  H         0.7490048299   -0.5151297893   -1.4284802775
      9  H        -2.4416019594    0.5780450703    0.3748613246
     10  H        -0.8725929472    1.4081482539    0.1206494322
     11  H        -1.6742581995    0.5651621241   -1.2229592251
   Point Group: c1    Number of degrees of freedom:    27


   Energy is   -218.280325803

              Constraints and their Current Values
                                        Value     Constraint
   Distance(Angs):        1   3             2.200000     2.200000
 Hessian Updated using BFGS Update

 25 Hessian modes will be used to form the next step
  Hessian Eigenvalues:
     0.028024    0.045000    0.047920    0.067907    0.077926    0.083333
     0.085528    0.090512    0.104418    0.132002    0.158886    0.159998
     0.160035    0.166854    0.221349    0.233050    0.293232    0.330038
     0.342039    0.343203    0.344462    0.347490    0.353278    0.354280
     0.370681

 Minimum Search - Taking Simple RFO Step
 Searching for Lamda that Minimizes Along All modes
 Value Taken    Lamda =  -0.00000476
 Step Taken.  Stepsize is  0.010111

                             Maximum     Tolerance    Cnvgd?
         Gradient           0.000379      0.000300      NO
         Displacement       0.006661      0.001200      NO
         Energy change     -0.000019      0.000001      NO


 New Cartesian Coordinates Obtained by Inverse Iteration

 Displacement from previous Coordinates is:  0.009282
 ----------------------------------------------------------------
             Standard Nuclear Orientation (Angstroms)
    I     Atom           X                Y                Z
 ----------------------------------------------------------------
    1      F       1.4399757640     1.1447390206     0.3410404471
    2      C      -0.6884536578    -0.7070616795     0.2526884276
    3      C       0.6396161779    -0.7735033022    -0.3799109449
    4      C      -1.4805369100     0.5422682792    -0.1450605095
    5      H      -0.5720129725    -0.7758383127     1.3384033902
    6      H      -1.2199466574    -1.6278094933    -0.0576055243
    7      H       1.4267369242    -1.3842921693     0.0487601147
    8      H       0.7500357622    -0.5139672831    -1.4281136548
    9      H      -2.4410688785     0.5770763425     0.3755586490
   10      H      -0.8729107290     1.4087845992     0.1201735170
   11      H      -1.6745348232     0.5648049985    -1.2227319121
 ----------------------------------------------------------------
 Nuclear Repulsion Energy =   119.9389061700 hartrees
 There are       17 alpha and       17 beta electrons

                       Distance Matrix (Angstroms)
             F (  1)   C (  2)   C (  3)   C (  4)   H (  5)   H (  6)
   C (  2)  2.822620
   C (  3)  2.200000  1.472537
   C (  4)  3.021367  1.531805  2.506284
   H (  5)  2.954903  1.094105  2.102535  2.182541
   H (  6)  3.862788  1.107494  2.071640  2.187417  1.759123
   H (  7)  2.545899  2.230305  1.084611  3.493056  2.455279  2.659990
   H (  8)  2.521355  2.220728  1.085486  2.781603  3.077337  2.645707
   H (  9)  3.922492  2.176182  3.447524  1.093105  2.500164  2.557400
   H ( 10)  2.338364  2.128001  2.701889  1.091059  2.519365  3.061526
   H ( 11)  3.532971  2.183315  2.802983  1.095225  3.093912  2.524228
             H (  7)   H (  8)   H (  9)   H ( 10)
   H (  8)  1.842972
   H (  9)  4.348987  3.824495
   H ( 10)  3.618668  2.954340  1.793343
   H ( 11)  3.877313  2.661667  1.772641  1.777160
 
 Applying Cartesian multipole field
    Component          Value
    ---------          -----
     (2,0,0)        1.00000E-11
     (0,2,0)        2.00000E-11
     (0,0,2)       -3.00000E-10
 Nucleus-field energy     =    -0.0000000046 hartrees
 Requested basis set is 6-31G(d,p)
 There are 37 shells and 95 basis functions
 A cutoff of  1.0D-14 yielded    691 shell pairs
 There are      4648 function pairs
 Smallest overlap matrix eigenvalue = 5.73E-03
 Guess from superposition of atomic densities
 Warning:  Energy on first SCF cycle will be non-variational
 SAD guess density has 34.000000 electrons

 -----------------------------------------------------------------------
  General SCF calculation program by
  Eric Jon Sundstrom, Paul Horn, Yuezhi Mao, Dmitri Zuev, Alec White,
  David Stuck, Shaama M.S., Shane Yost, Joonho Lee, David Small,
  Daniel Levine, Susi Lehtola, Hugh Burton, Evgeny Epifanovsky
 -----------------------------------------------------------------------
 Exchange:     0.2000 Hartree-Fock + 0.0800 Slater + 0.7200 B88
 Correlation:  0.1900 VWN1RPA + 0.8100 LYP
 Using SG-1 standard quadrature grid
 using 12 threads for integral computing
 -------------------------------------------------------
 OpenMP Integral computing Module                
 Release: version 1.0, May 2013, Q-Chem Inc. Pittsburgh 
 -------------------------------------------------------
 -------------------------------------------------------
 OpenMP BLAS3 based DFT computing Module                
 Release: version 1.0, May 2013, Q-Chem Inc. Pittsburgh 
 -------------------------------------------------------
 A unrestricted SCF calculation will be
 performed using DIIS
 SCF converges when DIIS error is below 1.0e-06
 Alpha HF Exchange    Energy =  -2.78156703443677
 Beta HF Exchange     Energy =  -2.78156703443677
 DFT Correlation      Energy =  -1.43287881096079
 DFT Exchange         Energy = -21.82472854918632
 One-Electron (alpha) Energy = -266.02729912151915
 One-Electron (beta)  Energy = -266.02729912151915
 Total Coulomb        Energy = 222.51026400011392
 ---------------------------------------
  Cycle       Energy         DIIS error
 ---------------------------------------
    1    -218.4261695066      2.96e-02  
 Alpha HF Exchange    Energy =  -2.84990630402433
 Beta HF Exchange     Energy =  -2.84990630402433
 DFT Correlation      Energy =  -1.46449718992524
 DFT Exchange         Energy = -22.61664048149499
 One-Electron (alpha) Energy = -270.01473740650039
 One-Electron (beta)  Energy = -270.01473740650039
 Total Coulomb        Energy = 231.75583937709055
    2    -218.1156795500      6.06e-03  
 Alpha HF Exchange    Energy =  -2.71880768474279
 Beta HF Exchange     Energy =  -2.71880768474279
 DFT Correlation      Energy =  -1.42842528144629
 DFT Exchange         Energy = -21.59794708310774
 One-Electron (alpha) Energy = -264.45765380514950
 One-Electron (beta)  Energy = -264.45765380514962
 Total Coulomb        Energy = 220.44385944515966
    3    -216.9965297338      1.65e-02  
 Alpha HF Exchange    Energy =  -2.79426381137236
 Beta HF Exchange     Energy =  -2.79426381137236
 DFT Correlation      Energy =  -1.44516919778424
 DFT Exchange         Energy = -22.18590448777308
 One-Electron (alpha) Energy = -267.42625539144819
 One-Electron (beta)  Energy = -267.42625539144808
 Total Coulomb        Energy = 225.90161635548722
    4    -218.2315895704      3.08e-03  
 Alpha HF Exchange    Energy =  -2.79308889079451
 Beta HF Exchange     Energy =  -2.79308889079450
 DFT Correlation      Energy =  -1.45049426228152
 DFT Exchange         Energy = -22.21401515107345
 One-Electron (alpha) Energy = -268.03977140111175
 One-Electron (beta)  Energy = -268.03977140111158
 Total Coulomb        Energy = 227.11409951065650
    5    -218.2772243212      9.02e-04  
 Alpha HF Exchange    Energy =  -2.79313520468524
 Beta HF Exchange     Energy =  -2.79313520468524
 DFT Correlation      Energy =  -1.44974588657355
 DFT Exchange         Energy = -22.21284017990354
 One-Electron (alpha) Energy = -267.94494865011228
 One-Electron (beta)  Energy = -267.94494865011239
 Total Coulomb        Energy = 226.92037493839371
    6    -218.2794726723      4.27e-04  
 Alpha HF Exchange    Energy =  -2.79367912689080
 Beta HF Exchange     Energy =  -2.79367912689080
 DFT Correlation      Energy =  -1.44973635474422
 DFT Exchange         Energy = -22.21475067124895
 One-Electron (alpha) Energy = -267.94998627765267
 One-Electron (beta)  Energy = -267.94998627765267
 Total Coulomb        Energy = 226.93274085970035
    7    -218.2801708100      1.97e-04  
 Alpha HF Exchange    Energy =  -2.79442301440251
 Beta HF Exchange     Energy =  -2.79442301440251
 DFT Correlation      Energy =  -1.44984905353596
 DFT Exchange         Energy = -22.21954457628919
 One-Electron (alpha) Energy = -267.97100781184514
 One-Electron (beta)  Energy = -267.97100781184525
 Total Coulomb        Energy = 226.98103648644275
    8    -218.2803126305      6.27e-05  
 Alpha HF Exchange    Energy =  -2.79474945176169
 Beta HF Exchange     Energy =  -2.79474945176170
 DFT Correlation      Energy =  -1.44988082926288
 DFT Exchange         Energy = -22.22153195623695
 One-Electron (alpha) Energy = -267.97646805412319
 One-Electron (beta)  Energy = -267.97646805412336
 Total Coulomb        Energy = 226.99461283143313
    9    -218.2803288005      5.53e-06  
 Alpha HF Exchange    Energy =  -2.79472698393915
 Beta HF Exchange     Energy =  -2.79472698393915
 DFT Correlation      Energy =  -1.44987744137964
 DFT Exchange         Energy = -22.22138498060584
 One-Electron (alpha) Energy = -267.97602500450040
 One-Electron (beta)  Energy = -267.97602500450034
 Total Coulomb        Energy = 226.99353131549535
   10    -218.2803289180      1.35e-06  
 Alpha HF Exchange    Energy =  -2.79472119056452
 Beta HF Exchange     Energy =  -2.79472119056451
 DFT Correlation      Energy =  -1.44987677878634
 DFT Exchange         Energy = -22.22134972727959
 One-Electron (alpha) Energy = -267.97590460861477
 One-Electron (beta)  Energy = -267.97590460861466
 Total Coulomb        Energy = 226.99324301299416
   11    -218.2803289261      1.95e-07  Convergence criterion met
 ---------------------------------------
 SCF time:   CPU 23.57s  wall 2.00s 
<S^2> =          0.000000000
 Alpha HF Exchange    Energy =  -2.79472119056452
[...]
     0.085603    0.090285    0.104266    0.138327    0.157990    0.159936
     0.160523    0.161684    0.179339    0.182053    0.230328    0.293478
     0.330194    0.342099    0.343309    0.345212    0.347971    0.353544
     0.355336    0.376013

 Minimum Search - Taking Simple RFO Step
 Searching for Lamda that Minimizes Along All modes
 Value Taken    Lamda =   0.00000000
 Step Taken.  Stepsize is  0.007429

                             Maximum     Tolerance    Cnvgd?
         Gradient           0.000101      0.000300     YES
         Displacement       0.004892      0.001200      NO
         Energy change     -0.000001      0.000001      NO


 New Cartesian Coordinates Obtained by Inverse Iteration

 Displacement from previous Coordinates is:  0.008853
 ----------------------------------------------------------------
             Standard Nuclear Orientation (Angstroms)
    I     Atom           X                Y                Z
 ----------------------------------------------------------------
    1      F       1.4419909644     1.1457595557     0.3362253113
    2      C      -0.6889934290    -0.7080385868     0.2524048249
    3      C       0.6395261422    -0.7736203979    -0.3793379552
    4      C      -1.4801519060     0.5423309227    -0.1443154669
    5      H      -0.5737495263    -0.7789780204     1.3381464120
    6      H      -1.2215871960    -1.6273811815    -0.0595015056
    7      H       1.4274282606    -1.3815029468     0.0518235118
    8      H       0.7502658641    -0.5145453924    -1.4275065706
    9      H      -2.4410768524     0.5767642938     0.3756688855
   10      H      -0.8729446572     1.4088973265     0.1216383326
   11      H      -1.6738076646     0.5655154270    -1.2220437799
 ----------------------------------------------------------------
 Nuclear Repulsion Energy =   119.9231666467 hartrees
 There are       17 alpha and       17 beta electrons

                       Distance Matrix (Angstroms)
             F (  1)   C (  2)   C (  3)   C (  4)   H (  5)   H (  6)
   C (  2)  2.825719
   C (  3)  2.200000  1.472537
   C (  4)  3.022245  1.531908  2.505993
   H (  5)  2.961701  1.094143  2.102812  2.182915
   H (  6)  3.865431  1.107309  2.072425  2.186710  1.758665
   H (  7)  2.543256  2.230029  1.084533  3.491938  2.454053  2.662730
   H (  8)  2.519096  2.220588  1.085376  2.781785  3.077625  2.645382
   H (  9)  3.924733  2.176168  3.447273  1.093136  2.500262  2.556323
   H ( 10)  2.339704  2.128933  2.702208  1.091041  2.521152  3.061593
   H ( 11)  3.531726  2.183071  2.802669  1.095234  3.093924  2.522856
             H (  7)   H (  8)   H (  9)   H ( 10)
   H (  8)  1.843524
   H (  9)  4.347990  3.824535
   H ( 10)  3.617032  2.955384  1.793325
   H ( 11)  3.877020  2.661744  1.772432  1.777120
 
 Applying Cartesian multipole field
    Component          Value
    ---------          -----
     (2,0,0)        1.00000E-11
     (0,2,0)        2.00000E-11
     (0,0,2)       -3.00000E-10
 Nucleus-field energy     =    -0.0000000046 hartrees
 Requested basis set is 6-31G(d,p)
 There are 37 shells and 95 basis functions
 A cutoff of  1.0D-14 yielded    691 shell pairs
 There are      4648 function pairs
 Smallest overlap matrix eigenvalue = 5.73E-03
 Guess from superposition of atomic densities
 Warning:  Energy on first SCF cycle will be non-variational
 SAD guess density has 34.000000 electrons

 -----------------------------------------------------------------------
  General SCF calculation program by
  Eric Jon Sundstrom, Paul Horn, Yuezhi Mao, Dmitri Zuev, Alec White,
  David Stuck, Shaama M.S., Shane Yost, Joonho Lee, David Small,
  Daniel Levine, Susi Lehtola, Hugh Burton, Evgeny Epifanovsky
 -----------------------------------------------------------------------
 Exchange:     0.2000 Hartree-Fock + 0.0800 Slater + 0.7200 B88
 Correlation:  0.1900 VWN1RPA + 0.8100 LYP
 Using SG-1 standard quadrature grid
 using 12 threads for integral computing
 -------------------------------------------------------
 OpenMP Integral computing Module                
 Release: version 1.0, May 2013, Q-Chem Inc. Pittsburgh 
 -------------------------------------------------------
 -------------------------------------------------------
 OpenMP BLAS3 based DFT computing Module                
 Release: version 1.0, May 2013, Q-Chem Inc. Pittsburgh 
 -------------------------------------------------------
 A unrestricted SCF calculation will be
 performed using DIIS
 SCF converges when DIIS error is below 1.0e-06
 Alpha HF Exchange    Energy =  -2.78156602940115
 Beta HF Exchange     Energy =  -2.78156602940115
 DFT Correlation      Energy =  -1.43287266574304
 DFT Exchange         Energy = -21.82473602189888
 One-Electron (alpha) Energy = -266.01144647901776
 One-Electron (beta)  Energy = -266.01144647901776
 Total Coulomb        Energy = 222.49433976433548
 ---------------------------------------
  Cycle       Energy         DIIS error
 ---------------------------------------
    1    -218.4261272980      2.96e-02  
 Alpha HF Exchange    Energy =  -2.84992016482962
 Beta HF Exchange     Energy =  -2.84992016482962
 DFT Correlation      Energy =  -1.46449211466321
 DFT Exchange         Energy = -22.61673406016923
 One-Electron (alpha) Energy = -269.99814367542081
 One-Electron (beta)  Energy = -269.99814367542086
 Total Coulomb        Energy = 231.73848060643084
    2    -218.1157066067      6.06e-03  
 Alpha HF Exchange    Energy =  -2.71885168456026
 Beta HF Exchange     Energy =  -2.71885168456026
 DFT Correlation      Energy =  -1.42843479533839
 DFT Exchange         Energy = -21.59825851437884
 One-Electron (alpha) Energy = -264.44491646365742
 One-Electron (beta)  Energy = -264.44491646365759
 Total Coulomb        Energy = 220.43430862201848
    3    -216.9967543420      1.65e-02  
 Alpha HF Exchange    Energy =  -2.79426955857220
 Beta HF Exchange     Energy =  -2.79426955857219
 DFT Correlation      Energy =  -1.44516553558724
 DFT Exchange         Energy = -22.18594598925859
 One-Electron (alpha) Energy = -267.41013255578605
 One-Electron (beta)  Energy = -267.41013255578599
 Total Coulomb        Energy = 225.88516522002945
    4    -218.2315838914      3.08e-03  
 Alpha HF Exchange    Energy =  -2.79309653356115
 Beta HF Exchange     Energy =  -2.79309653356115
 DFT Correlation      Energy =  -1.45049187496199
 DFT Exchange         Energy = -22.21408319326518
 One-Electron (alpha) Energy = -268.02392930889226
 One-Electron (beta)  Energy = -268.02392930889232
 Total Coulomb        Energy = 227.09824077759046
    5    -218.2772193334      9.03e-04  
 Alpha HF Exchange    Energy =  -2.79314611979169
 Beta HF Exchange     Energy =  -2.79314611979169
 DFT Correlation      Energy =  -1.44974384289209
 DFT Exchange         Energy = -22.21292719393427
 One-Electron (alpha) Energy = -267.92919382569494
 One-Electron (beta)  Energy = -267.92919382569494
 Total Coulomb        Energy = 226.90471073018310
    6    -218.2794735555      4.27e-04  
 Alpha HF Exchange    Energy =  -2.79368994689417
 Beta HF Exchange     Energy =  -2.79368994689417
 DFT Correlation      Energy =  -1.44973417391488
 DFT Exchange         Energy = -22.21483567231759
 One-Electron (alpha) Energy = -267.93418635826754
 One-Electron (beta)  Energy = -267.93418635826760
 Total Coulomb        Energy = 226.91698334831491
    7    -218.2801724661      1.97e-04  
 Alpha HF Exchange    Energy =  -2.79443463413362
 Beta HF Exchange     Energy =  -2.79443463413362
 DFT Correlation      Energy =  -1.44984690855384
 DFT Exchange         Energy = -22.21963426081373
 One-Electron (alpha) Energy = -267.95521506228346
 One-Electron (beta)  Energy = -267.95521506228357
 Total Coulomb        Energy = 226.96529942620353
    8    -218.2803144938      6.26e-05  
 Alpha HF Exchange    Energy =  -2.79476065455969
 Beta HF Exchange     Energy =  -2.79476065455969
 DFT Correlation      Energy =  -1.44987858291459
 DFT Exchange         Energy = -22.22161872903708
 One-Electron (alpha) Energy = -267.96065224179449
 One-Electron (beta)  Energy = -267.96065224179432
 Total Coulomb        Energy = 226.97882583297422
    9    -218.2803306295      5.54e-06  
 Alpha HF Exchange    Energy =  -2.79473811363002
 Beta HF Exchange     Energy =  -2.79473811363002
 DFT Correlation      Energy =  -1.44987519281777
 DFT Exchange         Energy = -22.22147135081094
 One-Electron (alpha) Energy = -267.96020921089104
 One-Electron (beta)  Energy = -267.96020921089109
 Total Coulomb        Energy = 226.97774380272739
   10    -218.2803307478      1.35e-06  
 Alpha HF Exchange    Energy =  -2.79473228840305
 Beta HF Exchange     Energy =  -2.79473228840305
 DFT Correlation      Energy =  -1.44987452281379
 DFT Exchange         Energy = -22.22143587164922
 One-Electron (alpha) Energy = -267.96008720837392
 One-Electron (beta)  Energy = -267.96008720837398
 Total Coulomb        Energy = 226.97745199003597
   11    -218.2803307558      1.89e-07  Convergence criterion met
 ---------------------------------------
 SCF time:   CPU 23.65s  wall 2.00s 
<S^2> =         -0.000000000
 Alpha HF Exchange    Energy =  -2.79473228840305
 Beta HF Exchange     Energy =  -2.79473228840305
 DFT Correlation      Energy =  -1.44987452281379
 DFT Exchange         Energy = -22.22143587164922
 One-Electron (alpha) Energy = -267.96008720837392
 One-Electron (beta)  Energy = -267.96008720837398
 Total Coulomb        Energy = 226.97745199003597
 Nuclear repulsion Energy = 119.92316664215420
 SCF   energy in the final basis set =     -218.2803307558
 Total energy in the final basis set =     -218.2803307558
 
 --------------------------------------------------------------
 
                    Orbital Energies (a.u.)
 --------------------------------------------------------------
 
 Alpha MOs
 -- Occupied --
-24.569 -10.292 -10.220 -10.184  -0.995  -0.820  -0.702  -0.611
 -0.497  -0.469  -0.442  -0.382  -0.372  -0.365  -0.289  -0.266
 -0.265
 -- Virtual --
 -0.097   0.084   0.118   0.119   0.143   0.162   0.172   0.203
  0.216   0.249   0.475   0.496   0.537   0.543   0.551   0.626
  0.639   0.690   0.762   0.788   0.823   0.860   0.875   0.889
  0.913   0.929   0.960   1.111   1.207   1.263   1.292   1.375
  1.396   1.458   1.516   1.603   1.648   1.712   1.789   1.829
  1.867   1.912   1.958   1.981   1.992   2.009   2.041   2.049
  2.064   2.080   2.114   2.145   2.232   2.276   2.303   2.379
  2.408   2.440   2.497   2.602   2.642   2.688   2.734   2.796
  2.848   2.875   2.905   3.186   3.232   3.263   3.394   3.420
  3.478   3.527   3.741   4.277   4.435   4.609
 
 Beta MOs
 -- Occupied --
-24.569 -10.292 -10.220 -10.184  -0.995  -0.820  -0.702  -0.611
 -0.497  -0.469  -0.442  -0.382  -0.372  -0.365  -0.289  -0.266
 -0.265
 -- Virtual --
 -0.097   0.084   0.118   0.119   0.143   0.162   0.172   0.203
  0.216   0.249   0.475   0.496   0.537   0.543   0.551   0.626
  0.639   0.690   0.762   0.788   0.823   0.860   0.875   0.889
  0.913   0.929   0.960   1.111   1.207   1.263   1.292   1.375
  1.396   1.458   1.516   1.603   1.648   1.712   1.789   1.829
  1.867   1.912   1.958   1.981   1.992   2.009   2.041   2.049
  2.064   2.080   2.114   2.145   2.232   2.276   2.303   2.379
  2.408   2.440   2.497   2.602   2.642   2.688   2.734   2.796
  2.848   2.875   2.905   3.186   3.232   3.263   3.394   3.420
  3.478   3.527   3.741   4.277   4.435   4.609
 --------------------------------------------------------------
 
          Ground-State Mulliken Net Atomic Charges

     Atom                 Charge (a.u.)    Spin (a.u.)
  --------------------------------------------------------
      1 F                    -0.415244       0.000000
      2 C                    -0.210982      -0.000000
      3 C                    -0.030898       0.000000
      4 C                    -0.324341      -0.000000
      5 H                     0.147833       0.000000
      6 H                     0.125880       0.000000
      7 H                     0.164590      -0.000000
      8 H                     0.165669       0.000000
      9 H                     0.106218       0.000000
     10 H                     0.168829       0.000000
     11 H                     0.102448       0.000000
  --------------------------------------------------------
  Sum of atomic charges =    -0.000000
  Sum of spin   charges =    -0.000000

 -----------------------------------------------------------------
                    Cartesian Multipole Moments
 -----------------------------------------------------------------
    Charge (ESU x 10^10)
                 0.0000
    Dipole Moment (Debye)
         X      -2.1691      Y      -3.7489      Z      -1.1491
       Tot       4.4810
    Quadrupole Moments (Debye-Ang)
        XX     -27.4455     XY      -4.3210     YY     -25.4225
        XZ      -1.6164     YZ      -0.3817     ZZ     -23.6954
    Octopole Moments (Debye-Ang^2)
       XXX       7.2210    XXY      -6.5464    XYY       2.2051
       YYY      -3.9859    XXZ      -0.6622    XYZ      -0.7569
       YYZ      -0.1237    XZZ       4.2232    YZZ      -0.9762
       ZZZ      -0.7020
    Hexadecapole Moments (Debye-Ang^3)
      XXXX    -245.3195   XXXY     -13.8155   XXYY     -64.4294
      XYYY      -7.9513   YYYY    -136.3271   XXXZ      -6.4700
      XXYZ      -2.5054   XYYZ      -1.0875   YYYZ      -4.2265
      XXZZ     -49.0860   XYZZ      -2.3303   YYZZ     -32.9232
      XZZZ      -4.4396   YZZZ      -5.1915   ZZZZ     -50.8281
 -----------------------------------------------------------------
 Calculating analytic gradient of the SCF energy
 Gradient of SCF Energy
            1           2           3           4           5           6
    1   0.0236597  -0.0000152  -0.0235889   0.0000272   0.0000164  -0.0000334
    2   0.0565082   0.0000009  -0.0566212  -0.0000166   0.0000272   0.0000005
    3   0.0210731  -0.0000446  -0.0211780  -0.0000306   0.0000035   0.0001058
            7           8           9          10          11
    1  -0.0000469  -0.0000026   0.0000040  -0.0000243   0.0000040
    2  -0.0000129   0.0001087  -0.0000030   0.0000188  -0.0000106
    3   0.0000313   0.0000473  -0.0000071   0.0000002  -0.0000008
 Max gradient component =       5.662E-02
 RMS gradient           =       1.596E-02
 Gradient time:  CPU 7.39 s  wall 0.63 s
 Geometry Optimization Parameters
   NAtoms,    NIC,     NZ,  NCons,   NDum,   NFix, NCnnct, MaxDiis
       11      68       0       1       0       0       0       0

 Cartesian Hessian Update
 Hessian Updated using BFGS Update


** CONSTRAINED OPTIMIZATION IN DELOCALIZED INTERNAL COORDINATES **
   Searching for a Minimum

   Optimization Cycle:   7

                       Coordinates (Angstroms)
     ATOM                X               Y               Z
      1  F         1.4419909644    1.1457595557    0.3362253113
      2  C        -0.6889934290   -0.7080385868    0.2524048249
      3  C         0.6395261422   -0.7736203979   -0.3793379552
      4  C        -1.4801519060    0.5423309227   -0.1443154669
      5  H        -0.5737495263   -0.7789780204    1.3381464120
      6  H        -1.2215871960   -1.6273811815   -0.0595015056
      7  H         1.4274282606   -1.3815029468    0.0518235118
      8  H         0.7502658641   -0.5145453924   -1.4275065706
      9  H        -2.4410768524    0.5767642938    0.3756688855
     10  H        -0.8729446572    1.4088973265    0.1216383326
     11  H        -1.6738076646    0.5655154270   -1.2220437799
   Point Group: c1    Number of degrees of freedom:    27


   Energy is   -218.280330756

              Constraints and their Current Values
                                        Value     Constraint
   Distance(Angs):        1   3             2.200000     2.200000
 Hessian Updated using BFGS Update

 26 Hessian modes will be used to form the next step
  Hessian Eigenvalues:
     0.006210    0.037461    0.045029    0.068338    0.078521    0.084022
     0.085667    0.090421    0.105099    0.135528    0.158879    0.159946
     0.160395    0.163247    0.172419    0.222805    0.237418    0.293746
     0.332010    0.342102    0.343502    0.345238    0.347869    0.354085
     0.355325    0.374531

 Minimum Search - Taking Simple RFO Step
 Searching for Lamda that Minimizes Along All modes
 Value Taken    Lamda =  -0.00000135
 Step Taken.  Stepsize is  0.013301

                             Maximum     Tolerance    Cnvgd?
         Gradient           0.000088      0.000300     YES
         Displacement       0.009242      0.001200      NO
         Energy change     -0.000001      0.000001     YES


                       Distance Matrix (Angstroms)
             F (  1)   C (  2)   C (  3)   C (  4)   H (  5)   H (  6)
   C (  2)  2.825719
   C (  3)  2.200000  1.472537
   C (  4)  3.022245  1.531908  2.505993
   H (  5)  2.961701  1.094143  2.102812  2.182915
   H (  6)  3.865431  1.107309  2.072425  2.186710  1.758665
   H (  7)  2.543256  2.230029  1.084533  3.491938  2.454053  2.662730
   H (  8)  2.519096  2.220588  1.085376  2.781785  3.077625  2.645382
   H (  9)  3.924733  2.176168  3.447273  1.093136  2.500262  2.556323
   H ( 10)  2.339704  2.128933  2.702208  1.091041  2.521152  3.061593
   H ( 11)  3.531726  2.183071  2.802669  1.095234  3.093924  2.522856
             H (  7)   H (  8)   H (  9)   H ( 10)
   H (  8)  1.843524
   H (  9)  4.347990  3.824535
   H ( 10)  3.617032  2.955384  1.793325
   H ( 11)  3.877020  2.661744  1.772432  1.777120
 
 Final energy is   -218.280330755827     


 ******************************
 **  OPTIMIZATION CONVERGED  **
 ******************************

                       Coordinates (Angstroms)
     ATOM                X               Y               Z
      1  F         1.4419909644    1.1457595557    0.3362253113
      2  C        -0.6889934290   -0.7080385868    0.2524048249
      3  C         0.6395261422   -0.7736203979   -0.3793379552
      4  C        -1.4801519060    0.5423309227   -0.1443154669
      5  H        -0.5737495263   -0.7789780204    1.3381464120
      6  H        -1.2215871960   -1.6273811815   -0.0595015056
      7  H         1.4274282606   -1.3815029468    0.0518235118
      8  H         0.7502658641   -0.5145453924   -1.4275065706
      9  H        -2.4410768524    0.5767642938    0.3756688855
     10  H        -0.8729446572    1.4088973265    0.1216383326
     11  H        -1.6738076646    0.5655154270   -1.2220437799

Z-matrix Print:
$molecule
0 1
C 
H  1 1.094143
H  1 1.107309 2 106.042350
C  1 1.472537 2 109.135800 3 -113.821133 0
H  4 1.084533 1 120.653365 2 33.910712 0
H  4 1.085376 1 119.717857 2 -167.336483 0
C  1 1.531908 2 111.364496 3 120.703186 0
H  7 1.091041 1 107.321443 2 66.291126 0
H  7 1.093136 1 110.886168 2 -54.337049 0
H  7 1.095234 1 111.310846 2 -174.820392 0
F  4 2.200000 1 98.666727 2 -67.725666 0
$end

PES scan, value:    2.2000 energy: -218.2803307558
------- Summary of potential scan: ------ 
    2.2000      -218.2803307558
----------------------------------------- 
Archival summary:
1\1\hpc0244\JobtypUnspecified\ProcedureUnspecified\6-31G**\137\knomura\WedMar1315:06:452019WedMar1315:06:452019\0\\#,JobtypUnspecified,ProcedureUnspecified,6-31G**,\\0,1\C\H,1,1.09414\H,1,1.10731,2,106.042\C,1,1.47254,2,109.136,3,-113.821,0\H,4,1.08453,1,120.653,2,33.9107,0\H,4,1.08538,1,119.718,2,-167.336,0\C,1,1.53191,2,111.364,3,120.703,0\H,7,1.09104,1,107.321,2,66.2911,0\H,7,1.09314,1,110.886,2,-54.337,0\H,7,1.09523,1,111.311,2,-174.82,0\F,4,2.2,1,98.6667,2,-67.7257,0\\\@

 Total job time:  21.23s(wall), 244.90s(cpu) 
 Wed Mar 13 15:06:45 2019

        *************************************************************
        *                                                           *
        *  Thank you very much for using Q-Chem.  Have a nice day.  *
        *                                                           *
        *************************************************************


