
Running Job 1 of 1 halogens/Flourine/02/F_3.xyz.data/inputs/bond_triplet_2.8.in
qchem halogens/Flourine/02/F_3.xyz.data/inputs/bond_triplet_2.8.in_31266.0 /staging/scratch/2868761/qchem31266/ 1
/usr/usc/qchem/5.1.1/exe/qcprog.exe_s halogens/Flourine/02/F_3.xyz.data/inputs/bond_triplet_2.8.in_31266.0 /staging/scratch/2868761/qchem31266/
Check license passed

                  Welcome to Q-Chem
     A Quantum Leap Into The Future Of Chemistry


 Q-Chem 5.1, Q-Chem, Inc., Pleasanton, CA (2018)

 Yihan Shao,  Zhengting Gan,  E. Epifanovsky,  A. T. B. Gilbert,  M. Wormit,  
 J. Kussmann,  A. W. Lange,  A. Behn,  Jia Deng,  Xintian Feng,  D. Ghosh,  
 M. Goldey,  P. R. Horn,  L. D. Jacobson,  I. Kaliman,  T. Kus,  A. Landau,  
 Jie Liu,  E. I. Proynov,  R. M. Richard,  R. P. Steele,  E. J. Sundstrom,  
 H. L. Woodcock III,  P. M. Zimmerman,  D. Zuev,  B. Albrecht,  E. Alguire,  
 S. A. Baeppler,  D. Barton,  Z. Benda,  Y. A. Bernard,  E. J. Berquist,  
 K. B. Bravaya,  H. Burton,  D. Casanova,  Chun-Min Chang,  Yunqing Chen,  
 A. Chien,  K. D. Closser,  M. P. Coons,  S. Coriani,  S. Dasgupta,  
 A. L. Dempwolff,  M. Diedenhofen,  Hainam Do,  R. G. Edgar,  Po-Tung Fang,  
 S. Faraji,  S. Fatehi,  Qingguo Feng,  K. D. Fenk,  J. Fosso-Tande,  
 Qinghui Ge,  A. Ghysels,  G. Gidofalvi,  J. Gomes,  J. Gonthier,  A. Gunina,  
 D. Hait,  M. W. D. Hanson-Heine,  P. H. P. Harbach,  A. W. Hauser,  
 J. E. Herr,  E. G. Hohenstein,  Z. C. Holden,  Kerwin Hui,  B. C. Huynh,  
 T.-C. Jagau,  Hyunjun Ji,  B. Kaduk,  K. Khistyaev,  Jaehoon Kim,  
 P. Klunzinger,  K. Koh,  D. Kosenkov,  L. Koulias,  T. Kowalczyk,  
 C. M. Krauter,  A. Kunitsa,  Ka Un Lao,  A. Laurent,  K. V. Lawler,  
 Joonho Lee,  D. Lefrancois,  S. Lehtola,  D. S. Levine,  Yi-Pei Li,  
 You-Sheng Lin,  Fenglai Liu,  E. Livshits,  A. Luenser,  P. Manohar,  
 E. Mansoor,  S. F. Manzer,  Shan-Ping Mao,  Yuezhi Mao,  N. Mardirossian,  
 A. V. Marenich,  T. Markovich,  L. A. Martinez-Martinez,  S. A. Maurer,  
 N. J. Mayhall,  S. C. McKenzie,  J.-M. Mewes,  A. F. Morrison,  
 J. W. Mullinax,  K. Nanda,  T. S. Nguyen-Beck,  R. Olivares-Amaya,  
 J. A. Parkhill,  T. M. Perrine,  F. Plasser,  P. Pokhilko,  S. Prager,  
 A. Prociuk,  E. Ramos,  D. R. Rehn,  F. Rob,  M. Schneider,  N. Sergueev,  
 S. M. Sharada,  S. Sharma,  D. W. Small,  T. Stauch,  T. Stein,  
 Yu-Chuan Su,  A. J. W. Thom,  A. Tkatchenko,  T. Tsuchimochi,  N. M. Tubman,  
 L. Vogt,  M. L. Vidal,  O. Vydrov,  M. A. Watson,  J. Wenzel,  
 M. de Wergifosse,  T. A. Wesolowski,  A. White,  J. Witte,  A. Yamada,  
 Jun Yang,  K. Yao,  S. Yeganeh,  S. R. Yost,  Zhi-Qiang You,  A. Zech,  
 Igor Ying Zhang,  Xing Zhang,  Yan Zhao,  Ying Zhu,  B. R. Brooks,  
 G. K. L. Chan,  C. J. Cramer,  M. S. Gordon,  W. J. Hehre,  A. Klamt,  
 M. W. Schmidt,  C. D. Sherrill,  D. G. Truhlar,  A. Aspuru-Guzik,  R. Baer,  
 A. T. Bell,  N. A. Besley,  Jeng-Da Chai,  A. E. DePrince, III,  
 R. A. DiStasio Jr.,  A. Dreuw,  B. D. Dunietz,  T. R. Furlani,  
 Chao-Ping Hsu,  Yousung Jung,  Jing Kong,  D. S. Lambrecht,  WanZhen Liang,  
 C. Ochsenfeld,  V. A. Rassolov,  L. V. Slipchenko,  J. E. Subotnik,  
 T. Van Voorhis,  J. M. Herbert,  A. I. Krylov,  P. M. W. Gill,  M. Head-Gordon

 Contributors to earlier versions of Q-Chem not listed above: 
 R. D. Adamson,  B. Austin,  J. Baker,  G. J. O. Beran,  K. Brandhorst,  
 S. T. Brown,  E. F. C. Byrd,  A. K. Chakraborty,  C.-L. Cheng,  
 Siu Hung Chien,  D. M. Chipman,  D. L. Crittenden,  H. Dachsel,  
 R. J. Doerksen,  A. D. Dutoi,  L. Fusti-Molnar,  W. A. Goddard III,  
 A. Golubeva-Zadorozhnaya,  S. R. Gwaltney,  G. Hawkins,  A. Heyden,  
 S. Hirata,  G. Kedziora,  F. J. Keil,  C. Kelley,  Jihan Kim,  R. A. King,  
 R. Z. Khaliullin,  P. P. Korambath,  W. Kurlancheek,  A. M. Lee,  M. S. Lee,  
 S. V. Levchenko,  Ching Yeh Lin,  D. Liotard,  R. C. Lochan,  I. Lotan,  
 P. E. Maslen,  N. Nair,  D. P. O'Neill,  D. Neuhauser,  E. Neuscamman,  
 C. M. Oana,  R. Olson,  B. Peters,  R. Peverati,  P. A. Pieniazek,  
 Y. M. Rhee,  J. Ritchie,  M. A. Rohrdanz,  E. Rosta,  N. J. Russ,  
 H. F. Schaefer III,  N. E. Schultz,  N. Shenvi,  A. C. Simmonett,  A. Sodt,  
 D. Stuck,  K. S. Thanthiriwatte,  V. Vanovschi,  Tao Wang,  A. Warshel,  
 C. F. Williams,  Q. Wu,  X. Xu,  W. Zhang

 Please cite Q-Chem as follows:
 Y. Shao et al., Mol. Phys. 113, 184-215 (2015)
 DOI: 10.1080/00268976.2014.952696

 Q-Chem 5.1.1 for Intel X86 EM64T Linux

 Parts of Q-Chem use Armadillo 8.300.2 (Tropical Shenanigans).
 http://arma.sourceforge.net/

 Q-Chem begins on Wed Mar 13 15:40:05 2019  

Host: 
0

     Scratch files written to /staging/scratch/2868761/qchem31266//
 Aug318 |scratch|qcdevops|jenkins|workspace|build_RNUM 6013   
Processing $rem in /usr/usc/qchem/5.1.1/config/preferences.
 MEM_TOTAL  2000 
Input Ideriv = 2
Curr. Ideriv = -1
Max.  Ideriv = 2

Checking the input file for inconsistencies... 	...done.

--------------------------------------------------------------
User input:
--------------------------------------------------------------

$comment
potential surface scanner
$end

$rem
JOBTYPE  PES_SCAN
UNRESTRICTED TRUE
SYM_IGNORE  TRUE
GEOM_OPT_MAX_CYCLES 400
SCF_MAX_CYCLES 400
METHOD   B3LYP
BASIS   6-31G**
PDB_PRINT 2
SCF_CONVERGENCE 6
THRESH 14
SCF_PRINT 1
$end
$molecule
0 3
F 0.756965 1.930564 -0.319673
C -0.372870 -0.511410 0.466663
C 0.685795 -0.966528 -0.428276
C -1.732564 -0.143928 -0.059524
H -0.287657 -0.725082 1.535646
H -2.254910 -1.027107 -0.461520
H 0.710581 -1.995889 -0.786952
H 1.432473 -0.283127 -0.820692
H -2.366988 0.288605 0.719835
H 0.382539 1.316627 0.282205
H -1.646467 0.572474 -0.884517
$end
$scan
stre 1 3 2.800000 2.801000 0.100000
$end
--------------------------------------------------------------
 ----------------------------------------------------------------
             Standard Nuclear Orientation (Angstroms)
    I     Atom           X                Y                Z
 ----------------------------------------------------------------
    1      F       0.7569650000     1.9305640000    -0.3196730000
    2      C      -0.3728700000    -0.5114100000     0.4666630000
    3      C       0.6857950000    -0.9665280000    -0.4282760000
    4      C      -1.7325640000    -0.1439280000    -0.0595240000
    5      H      -0.2876570000    -0.7250820000     1.5356460000
    6      H      -2.2549100000    -1.0271070000    -0.4615200000
    7      H       0.7105810000    -1.9958890000    -0.7869520000
    8      H       1.4324730000    -0.2831270000    -0.8206920000
    9      H      -2.3669880000     0.2886050000     0.7198350000
   10      H       0.3825390000     1.3166270000     0.2822050000
   11      H      -1.6464670000     0.5724740000    -0.8845170000
 ----------------------------------------------------------------
 Nuclear Repulsion Energy =   116.6821409308 hartrees
 There are       18 alpha and       16 beta electrons
 Requested basis set is 6-31G(d,p)
 There are 37 shells and 95 basis functions

 Total QAlloc Memory Limit   2000 MB
 Mega-Array Size       188 MB
 MEM_STATIC part       192 MB
A total of 1 constraints
  
            1
    1   1.0100000
    2   1.0100000
    3   3.0100000
    4   2.8000000
    5   2.8010000
    6   0.1000000
    7   0.0000000
    8   0.0000000
    9   0.0000000
   10   0.0000000

                       Distance Matrix (Angstroms)
             F (  1)   C (  2)   C (  3)   C (  4)   H (  5)   H (  6)
   C (  2)  2.803228
   C (  3)  2.900000  1.459048
   C (  4)  3.250992  1.503557  2.580912
   H (  5)  3.403807  1.093454  2.205197  2.229364
   H (  6)  4.223663  2.160912  2.941517  1.102021  2.819570
   H (  7)  3.954432  2.224656  1.090343  3.150852  2.829468  3.136651
   H (  8)  2.368071  2.229049  1.085613  3.258253  2.950678  3.778797
   H (  9)  3.679088  2.163476  3.494711  1.094065  2.452902  1.771795
   H ( 10)  0.937748  1.986551  2.410300  2.593002  2.487740  3.605878
   H ( 11)  2.817790  2.150010  2.831277  1.096019  3.063855  1.762892
             H (  7)   H (  8)   H (  9)   H ( 10)
   H (  8)  1.858984
   H (  9)  4.118343  4.139566
   H ( 10)  3.496208  2.208610  2.967869
   H ( 11)  3.487360  3.196248  1.781482  2.455986
 
 A cutoff of  1.0D-14 yielded    687 shell pairs
 There are      4622 function pairs
 
 -------------------------------------------------------
 OpenMP Integral Computing Module                       
 Release: version 1.0, May 2013, Q-Chem Inc. Pittsburgh 
 -------------------------------------------------------
 Integral Job Info:
 Integral job number is                      11
 Integral operator is                         1
 short-range coefficients                     0
 long-range coefficients              100000000
 Omega coefficients                           0
 if combine SR and LR in K                    0
 Integral screening is                        0
 Integral computing path is                   2
 max size of driver memory is            800000
 size of driver memory is                593474
 size of scratch memory is              2361544
 max col of scratch BK array               1296
 max len of scratch array in speh3          155
 max len of scratch index in speh4           18
 max int batch size is                      520
 min int batch size is                       52
 fixed nKL is                                52
 max L of basis functions is                  2
 order of int derivative is                   0
 number of shells is                         37
 number of basis is                          95
 number of cartesian basis is                95
 number of contracted shell pairs           687
 number of primitive shell pairs           2373
 maxK2 (contraction) of shell pair           36
 max number of K2 of shell pair               1
 max number of CS2 of shell pair             63
 max number of PS2 of shell pair            246
 mem total for path MDJ                  514716
 -------------------------------------------------------
 Smallest overlap matrix eigenvalue = 6.28E-03

 Scale SEOQF with 1.000000e-01/1.000000e-01/1.000000e+00

 Standard Electronic Orientation quadrupole field applied
 Nucleus-field energy     =    -0.0000000042 hartrees
 Guess from superposition of atomic densities
 Warning:  Energy on first SCF cycle will be non-variational
 SAD guess density has 34.000000 electrons

 -----------------------------------------------------------------------
  General SCF calculation program by
  Eric Jon Sundstrom, Paul Horn, Yuezhi Mao, Dmitri Zuev, Alec White,
  David Stuck, Shaama M.S., Shane Yost, Joonho Lee, David Small,
  Daniel Levine, Susi Lehtola, Hugh Burton, Evgeny Epifanovsky
 -----------------------------------------------------------------------
 Exchange:     0.2000 Hartree-Fock + 0.0800 Slater + 0.7200 B88
 Correlation:  0.1900 VWN1RPA + 0.8100 LYP
 Using SG-1 standard quadrature grid
 using 12 threads for integral computing
 -------------------------------------------------------
 OpenMP Integral computing Module                
 Release: version 1.0, May 2013, Q-Chem Inc. Pittsburgh 
 -------------------------------------------------------
 -------------------------------------------------------
 OpenMP BLAS3 based DFT computing Module                
 Release: version 1.0, May 2013, Q-Chem Inc. Pittsburgh 
 -------------------------------------------------------
 A unrestricted SCF calculation will be
 performed using DIIS
 SCF converges when DIIS error is below 1.0e-06
 Alpha HF Exchange    Energy =  -2.78478123498264
 Beta HF Exchange     Energy =  -2.78478123498264
 DFT Correlation      Energy =  -1.43331504552389
 DFT Exchange         Energy = -21.84641465830976
 One-Electron (alpha) Energy = -262.64091692992514
 One-Electron (beta)  Energy = -262.64091692992514
 Total Coulomb        Energy = 218.93703841150770
 ---------------------------------------
  Cycle       Energy         DIIS error
 ---------------------------------------
    1    -218.5119466955      3.01e-02  
 Alpha HF Exchange    Energy =  -2.93847668989909
 Beta HF Exchange     Energy =  -2.75082814433632
 DFT Correlation      Energy =  -1.45391086192989
 DFT Exchange         Energy = -22.57916465100066
 One-Electron (alpha) Energy = -276.39885432104194
 One-Electron (beta)  Energy = -255.86717804395323
 Total Coulomb        Energy = 227.14189562122948
    2    -218.1643761643      4.58e-03  
 Alpha HF Exchange    Energy =  -2.85852936289877
 Beta HF Exchange     Energy =  -2.67892891237061
 DFT Correlation      Energy =  -1.42520608597633
 DFT Exchange         Energy = -21.96150244195621
 One-Electron (alpha) Energy = -272.79025349760713
 One-Electron (beta)  Energy = -252.42834050264506
 Total Coulomb        Energy = 219.29982611419587
    3    -218.1607937626      5.03e-03  
 Alpha HF Exchange    Energy =  -2.90022380979375
 Beta HF Exchange     Energy =  -2.71694266354652
 DFT Correlation      Energy =  -1.43860713718379
 DFT Exchange         Energy = -22.28031386547522
 One-Electron (alpha) Energy = -274.72109150482612
 One-Electron (beta)  Energy = -254.16892288429702
 Total Coulomb        Energy = 223.29375272285986
    4    -218.2502082156      3.74e-04  
 Alpha HF Exchange    Energy =  -2.90092940598221
 Beta HF Exchange     Energy =  -2.71626832142005
 DFT Correlation      Energy =  -1.43882071202257
 DFT Exchange         Energy = -22.28081147052309
 One-Electron (alpha) Energy = -274.78535811257734
 One-Electron (beta)  Energy = -254.16200480403191
 Total Coulomb        Energy = 223.35142100874640
    5    -218.2506308912      2.05e-04  
 Alpha HF Exchange    Energy =  -2.90094141948072
 Beta HF Exchange     Energy =  -2.71651593934202
 DFT Correlation      Energy =  -1.43847271558344
 DFT Exchange         Energy = -22.28090661486716
 One-Electron (alpha) Energy = -274.76458682121233
 One-Electron (beta)  Energy = -254.13092374103147
 Total Coulomb        Energy = 223.29940513297944
    6    -218.2508011919      4.01e-05  
 Alpha HF Exchange    Energy =  -2.90104691503234
 Beta HF Exchange     Energy =  -2.71647925831940
 DFT Correlation      Energy =  -1.43846581178193
 DFT Exchange         Energy = -22.28114379190487
 One-Electron (alpha) Energy = -274.77646249917535
 One-Electron (beta)  Energy = -254.13078894258928
 Total Coulomb        Energy = 223.31143665927979
    7    -218.2508096329      1.54e-05  
 Alpha HF Exchange    Energy =  -2.90108468426613
 Beta HF Exchange     Energy =  -2.71646377601599
 DFT Correlation      Energy =  -1.43844393750065
 DFT Exchange         Energy = -22.28117726437620
 One-Electron (alpha) Energy = -274.77720811407949
 One-Electron (beta)  Energy = -254.12698572028410
 Total Coulomb        Energy = 223.30841167724347
    8    -218.2508108926      7.19e-06  
 Alpha HF Exchange    Energy =  -2.90109881747549
 Beta HF Exchange     Energy =  -2.71645278534893
 DFT Correlation      Energy =  -1.43843761406018
 DFT Exchange         Energy = -22.28118111131808
 One-Electron (alpha) Energy = -274.77842652858277
 One-Electron (beta)  Energy = -254.12589573445084
 Total Coulomb        Energy = 223.30854046091912
    9    -218.2508112037      1.15e-06  
 Alpha HF Exchange    Energy =  -2.90110358204200
 Beta HF Exchange     Energy =  -2.71645073944721
 DFT Correlation      Energy =  -1.43843720045341
 DFT Exchange         Energy = -22.28119238568284
 One-Electron (alpha) Energy = -274.77867416884010
 One-Electron (beta)  Energy = -254.12576239161436
 Total Coulomb        Energy = 223.30866832822326
   10    -218.2508112132      4.10e-07  Convergence criterion met
 ---------------------------------------
 SCF time:   CPU 24.15s  wall 5.00s 
<S^2> =          2.004264448
 Alpha HF Exchange    Energy =  -2.90110358204200
 Beta HF Exchange     Energy =  -2.71645073944721
 DFT Correlation      Energy =  -1.43843720045341
 DFT Exchange         Energy = -22.28119238568284
 One-Electron (alpha) Energy = -274.77867416884010
 One-Electron (beta)  Energy = -254.12576239161436
 Total Coulomb        Energy = 223.30866832822326
 Nuclear repulsion Energy = 116.68214092663800
 SCF   energy in the final basis set =     -218.2508112132
 Total energy in the final basis set =     -218.2508112132
 
 --------------------------------------------------------------
 
                    Orbital Energies (a.u.)
 --------------------------------------------------------------
 
 Alpha MOs
 -- Occupied --
-24.649 -10.218 -10.201 -10.195  -1.153  -0.800  -0.697  -0.584
 -0.512  -0.461  -0.449  -0.416  -0.407  -0.375  -0.364  -0.362
 -0.219  -0.215
 -- Virtual --
  0.100   0.115   0.138   0.155   0.163   0.171   0.218   0.239
  0.282   0.488   0.517   0.532   0.569   0.589   0.622   0.644
  0.680   0.735   0.775   0.808   0.844   0.861   0.875   0.892
  0.911   0.941   1.067   1.156   1.239   1.266   1.302   1.334
  1.432   1.520   1.590   1.611   1.659   1.754   1.765   1.833
  1.836   1.870   1.902   1.910   1.956   1.997   2.010   2.035
  2.085   2.150   2.271   2.343   2.369   2.401   2.439   2.543
  2.566   2.601   2.610   2.656   2.751   2.783   2.787   2.825
  2.843   2.972   3.171   3.284   3.340   3.406   3.456   3.469
  3.710   3.924   4.236   4.405   4.555
 
 Beta MOs
 -- Occupied --
-24.648 -10.206 -10.195 -10.188  -1.150  -0.770  -0.672  -0.553
 -0.503  -0.448  -0.428  -0.403  -0.393  -0.366  -0.362  -0.359
 -- Virtual --
 -0.079  -0.057   0.109   0.131   0.151   0.164   0.172   0.181
  0.236   0.255   0.298   0.496   0.549   0.563   0.581   0.625
  0.644   0.673   0.702   0.745   0.788   0.820   0.854   0.873
  0.884   0.908   0.918   0.954   1.093   1.161   1.240   1.274
  1.323   1.341   1.476   1.525   1.608   1.625   1.677   1.774
  1.781   1.854   1.864   1.883   1.909   1.924   1.999   2.005
  2.032   2.046   2.092   2.165   2.291   2.355   2.381   2.424
  2.463   2.568   2.585   2.610   2.634   2.665   2.753   2.789
  2.795   2.832   2.852   2.982   3.177   3.296   3.351   3.413
  3.464   3.482   3.712   3.926   4.262   4.427   4.573
 --------------------------------------------------------------
 
          Ground-State Mulliken Net Atomic Charges

     Atom                 Charge (a.u.)    Spin (a.u.)
  --------------------------------------------------------
      1 F                    -0.368573       0.030282
      2 C                    -0.176864       0.878988
      3 C                    -0.239289       1.008206
      4 C                    -0.327616      -0.035025
      5 H                     0.120572       0.001146
      6 H                     0.126058       0.058867
      7 H                     0.117409       0.003334
      8 H                     0.143751      -0.009146
      9 H                     0.116750       0.012901
     10 H                     0.351605       0.024961
     11 H                     0.136196       0.025486
  --------------------------------------------------------
  Sum of atomic charges =     0.000000
  Sum of spin   charges =     2.000000

 -----------------------------------------------------------------
                    Cartesian Multipole Moments
 -----------------------------------------------------------------
    Charge (ESU x 10^10)
                 0.0000
    Dipole Moment (Debye)
         X      -1.1778      Y      -1.7375      Z       0.8646
       Tot       2.2702
    Quadrupole Moments (Debye-Ang)
        XX     -25.0421     XY      -1.5839     YY     -28.8092
        XZ      -0.0594     YZ       1.6747     ZZ     -24.7800
    Octopole Moments (Debye-Ang^2)
       XXX      17.5525    XXY      -0.6187    XYY       2.6372
       YYY      -9.2230    XXZ       1.3748    XYZ       0.9465
       YYZ       3.0780    XZZ       6.3759    YZZ       0.5510
       ZZZ       7.9384
    Hexadecapole Moments (Debye-Ang^3)
      XXXX    -222.3758   XXXY     -15.3683   XXYY     -73.9209
      XYYY     -23.9761   YYYY    -216.7861   XXXZ       9.7432
      XXYZ       3.0143   XYYZ       4.9484   YYYZ      10.1101
      XXZZ     -46.0911   XYZZ      -5.9514   YYZZ     -42.9694
      XZZZ      11.3601   YZZZ       1.3572   ZZZZ     -60.8689
 -----------------------------------------------------------------
 Calculating analytic gradient of the SCF energy
 Gradient of SCF Energy
            1           2           3           4           5           6
    1  -0.0000780   0.0000912   0.0000200  -0.0000564  -0.0000416   0.0000156
    2  -0.0035252  -0.0000155   0.0035435  -0.0000218   0.0000058   0.0000025
    3  -0.0001264  -0.0000147   0.0001870   0.0000024   0.0000084  -0.0000206
            7           8           9          10          11
    1   0.0000143   0.0000274   0.0000017   0.0000071  -0.0000013
    2   0.0000109  -0.0000140  -0.0000157   0.0000173   0.0000121
    3  -0.0000380   0.0000106  -0.0000005  -0.0000119   0.0000038
 Max gradient component =       3.544E-03
 RMS gradient           =       8.714E-04
 Gradient time:  CPU 8.14 s  wall 0.75 s
 Geometry Optimization Parameters
   NAtoms,    NIC,     NZ,  NCons,   NDum,   NFix, NCnnct, MaxDiis
       11      66       0       1       0       0       0       0


** CONSTRAINED OPTIMIZATION IN DELOCALIZED INTERNAL COORDINATES **
   Searching for a Minimum

   Optimization Cycle:   1

                       Coordinates (Angstroms)
     ATOM                X               Y               Z
      1  F         0.7569650000    1.9305640000   -0.3196730000
      2  C        -0.3728700000   -0.5114100000    0.4666630000
      3  C         0.6857950000   -0.9665280000   -0.4282760000
      4  C        -1.7325640000   -0.1439280000   -0.0595240000
      5  H        -0.2876570000   -0.7250820000    1.5356460000
      6  H        -2.2549100000   -1.0271070000   -0.4615200000
      7  H         0.7105810000   -1.9958890000   -0.7869520000
      8  H         1.4324730000   -0.2831270000   -0.8206920000
      9  H        -2.3669880000    0.2886050000    0.7198350000
     10  H         0.3825390000    1.3166270000    0.2822050000
     11  H        -1.6464670000    0.5724740000   -0.8845170000
   Point Group: c1    Number of degrees of freedom:    27


   Energy is   -218.250811213

              Constraints and their Current Values
                                        Value     Constraint
   Distance(Angs):        1   3             2.900000     2.800000

 Attempting to Generate Delocalized Internal Coordinates

   Using Lagrange Multiplier Algorithm


 28 Hessian modes will be used to form the next step
  Hessian Eigenvalues:
    -0.989841    0.044956    0.045000    0.045000    0.045112    0.052454
     0.063768    0.081978    0.083358    0.095708    0.124298    0.146891
     0.160000    0.160000    0.160000    0.160000    0.160000    0.176519
     0.320070    0.334596    0.341262    0.343470    0.344165    0.347731
     0.353246    0.365498    0.570223    1.010263

 Minimum Search - Taking P-RFO Step
 Searching for Lamda that Maximizes Along the Constraint modes Only
 Value Taken    Lamda =   0.01855735
 Searching for Lamda that Minimizes Along All other modes
 Value Taken    Lamda =  -0.01656587
 Step Taken.  Stepsize is  0.185707

                             Maximum     Tolerance    Cnvgd?
         Gradient            0.188973       0.000300      NO
         Displacement        0.185704       0.001200      NO
         Energy change     *********       0.000001      NO


 New Cartesian Coordinates Obtained by Inverse Iteration

 Displacement from previous Coordinates is:  0.206938
 ----------------------------------------------------------------
             Standard Nuclear Orientation (Angstroms)
    I     Atom           X                Y                Z
 ----------------------------------------------------------------
    1      F       0.7823792818     1.8607598033    -0.3461641481
    2      C      -0.3789364051    -0.5067064919     0.4698252571
    3      C       0.6838449383    -0.9381854389    -0.4228972599
    4      C      -1.7400650676    -0.1458454329    -0.0571000503
    5      H      -0.2978120344    -0.7236043973     1.5384697780
    6      H      -2.2571740477    -1.0311830533    -0.4611320969
    7      H       0.7211247002    -1.9630300109    -0.7932150816
    8      H       1.4243595477    -0.2421213241    -0.8045708909
    9      H      -2.3777000583     0.2818820109     0.7222979870
   10      H       0.4039131027     1.2908225605     0.2784725612
   11      H      -1.6570369576     0.5724107746    -0.8807910555
 ----------------------------------------------------------------
 Nuclear Repulsion Energy =   117.5807926220 hartrees
 There are       18 alpha and       16 beta electrons

                       Distance Matrix (Angstroms)
             F (  1)   C (  2)   C (  3)   C (  4)   H (  5)   H (  6)
   C (  2)  2.760324
   C (  3)  2.801730  1.453490
   C (  4)  3.236163  1.503510  2.576228
   H (  5)  3.376033  1.093447  2.203782  2.227048
   H (  6)  4.197075  2.160910  2.942737  1.102028  2.816401
   H (  7)  3.850321  2.219523  1.090335  3.146662  2.830400  3.138293
   H (  8)  2.245971  2.223953  1.085607  3.252932  2.947463  3.780775
   H (  9)  3.690605  2.163486  3.488996  1.094071  2.450117  1.771771
   H ( 10)  0.926410  1.969919  2.353457  2.602550  2.477484  3.608339
   H ( 11)  2.810057  2.149930  2.823348  1.096017  3.062674  1.762893
             H (  7)   H (  8)   H (  9)   H ( 10)
   H (  8)  1.859084
   H (  9)  4.115717  4.130565
   H ( 10)  3.440450  2.136401  2.992042
   H ( 11)  3.477324  3.188146  1.781476  2.471340
 
 Applying Cartesian multipole field
    Component          Value
    ---------          -----
     (2,0,0)        1.00000E-11
     (0,2,0)        2.00000E-11
     (0,0,2)       -3.00000E-10
 Nucleus-field energy     =    -0.0000000045 hartrees
 Requested basis set is 6-31G(d,p)
 There are 37 shells and 95 basis functions
 A cutoff of  1.0D-14 yielded    689 shell pairs
 There are      4635 function pairs
 Smallest overlap matrix eigenvalue = 6.22E-03
 Guess from superposition of atomic densities
 Warning:  Energy on first SCF cycle will be non-variational
 SAD guess density has 34.000000 electrons

 -----------------------------------------------------------------------
  General SCF calculation program by
  Eric Jon Sundstrom, Paul Horn, Yuezhi Mao, Dmitri Zuev, Alec White,
  David Stuck, Shaama M.S., Shane Yost, Joonho Lee, David Small,
  Daniel Levine, Susi Lehtola, Hugh Burton, Evgeny Epifanovsky
 -----------------------------------------------------------------------
 Exchange:     0.2000 Hartree-Fock + 0.0800 Slater + 0.7200 B88
 Correlation:  0.1900 VWN1RPA + 0.8100 LYP
 Using SG-1 standard quadrature grid
 using 12 threads for integral computing
 -------------------------------------------------------
 OpenMP Integral computing Module                
 Release: version 1.0, May 2013, Q-Chem Inc. Pittsburgh 
 -------------------------------------------------------
 -------------------------------------------------------
 OpenMP BLAS3 based DFT computing Module                
 Release: version 1.0, May 2013, Q-Chem Inc. Pittsburgh 
 -------------------------------------------------------
 A unrestricted SCF calculation will be
 performed using DIIS
 SCF converges when DIIS error is below 1.0e-06
 Alpha HF Exchange    Energy =  -2.78713080399425
 Beta HF Exchange     Energy =  -2.78713080399425
 DFT Correlation      Energy =  -1.43432872968177
 DFT Exchange         Energy = -21.85142392170592
 One-Electron (alpha) Energy = -263.52368391327337
 One-Electron (beta)  Energy = -263.52368391327337
 Total Coulomb        Energy = 219.79506929114791
 ---------------------------------------
  Cycle       Energy         DIIS error
 ---------------------------------------
    1    -218.5315201773      3.03e-02  
 Alpha HF Exchange    Energy =  -2.93959605378231
 Beta HF Exchange     Energy =  -2.75154444494004
 DFT Correlation      Energy =  -1.45490117028154
 DFT Exchange         Energy = -22.58590312658626
 One-Electron (alpha) Energy = -277.34729402014420
 One-Electron (beta)  Energy = -256.71502787834180
 Total Coulomb        Energy = 228.05017170085861
    2    -218.1633023758      4.57e-03  
 Alpha HF Exchange    Energy =  -2.85973241551071
 Beta HF Exchange     Energy =  -2.67999334194880
 DFT Correlation      Energy =  -1.42625629290940
 DFT Exchange         Energy = -21.96960338785902
 One-Electron (alpha) Energy = -273.71968951843701
 One-Electron (beta)  Energy = -253.26471503082470
 Total Coulomb        Energy = 220.17884155651646
    3    -218.1603558135      4.99e-03  
 Alpha HF Exchange    Energy =  -2.90132709137789
 Beta HF Exchange     Energy =  -2.71780911356147
 DFT Correlation      Energy =  -1.43964410553694
 DFT Exchange         Energy = -22.28735286422608
 One-Electron (alpha) Energy = -275.66149235938701
 One-Electron (beta)  Energy = -255.01296906178797
 Total Coulomb        Energy = 224.19068243832928
    4    -218.2491195401      3.66e-04  
 Alpha HF Exchange    Energy =  -2.90197202433889
 Beta HF Exchange     Energy =  -2.71710950887523
 DFT Correlation      Energy =  -1.43982156456621
 DFT Exchange         Energy = -22.28746462892169
 One-Electron (alpha) Energy = -275.72066446686819
 One-Electron (beta)  Energy = -255.00161435039868
 Total Coulomb        Energy = 224.23833011443207
    5    -218.2495238121      2.02e-04  
 Alpha HF Exchange    Energy =  -2.90198244236392
 Beta HF Exchange     Energy =  -2.71737101996371
 DFT Correlation      Energy =  -1.43948305492923
 DFT Exchange         Energy = -22.28762454269274
 One-Electron (alpha) Energy = -275.70076643359431
 One-Electron (beta)  Energy = -254.97205896691540
 Total Coulomb        Energy = 224.18880430454178
    6    -218.2496895385      3.98e-05  
 Alpha HF Exchange    Energy =  -2.90208725563025
 Beta HF Exchange     Energy =  -2.71733380487488
 DFT Correlation      Energy =  -1.43947734046070
 DFT Exchange         Energy = -22.28785755186842
 One-Electron (alpha) Energy = -275.71264940568261
 One-Electron (beta)  Energy = -254.97194861528456
 Total Coulomb        Energy = 224.20086351818594
    7    -218.2496978381      1.50e-05  
 Alpha HF Exchange    Energy =  -2.90212191389458
 Beta HF Exchange     Energy =  -2.71732053292393
 DFT Correlation      Energy =  -1.43945455126674
 DFT Exchange         Energy = -22.28788577999110
 One-Electron (alpha) Energy = -275.71322274464660
 One-Electron (beta)  Energy = -254.96812599595958
 Total Coulomb        Energy = 224.19763987656987
    8    -218.2496990246      7.23e-06  
 Alpha HF Exchange    Energy =  -2.90213578592010
 Beta HF Exchange     Energy =  -2.71731042256329
 DFT Correlation      Energy =  -1.43944885791275
 DFT Exchange         Energy = -22.28789317186534
 One-Electron (alpha) Energy = -275.71446788600798
 One-Electron (beta)  Energy = -254.96712284461242
 Total Coulomb        Energy = 224.19788701711624
    9    -218.2496993343      1.16e-06  
 Alpha HF Exchange    Energy =  -2.90214032579402
 Beta HF Exchange     Energy =  -2.71730855881588
 DFT Correlation      Energy =  -1.43944839893222
 DFT Exchange         Energy = -22.28790417176894
 One-Electron (alpha) Energy = -275.71470872053038
 One-Electron (beta)  Energy = -254.96699459321789
 Total Coulomb        Energy = 224.19801280768669
   10    -218.2496993439      4.16e-07  Convergence criterion met
 ---------------------------------------
 SCF time:   CPU 29.15s  wall 4.00s 
<S^2> =          2.004230044
 Alpha HF Exchange    Energy =  -2.90214032579402
 Beta HF Exchange     Energy =  -2.71730855881588
 DFT Correlation      Energy =  -1.43944839893222
 DFT Exchange         Energy = -22.28790417176894
 One-Electron (alpha) Energy = -275.71470872053038
 One-Electron (beta)  Energy = -254.96699459321789
 Total Coulomb        Energy = 224.19801280768669
 Nuclear repulsion Energy = 117.58079261746695
 SCF   energy in the final basis set =     -218.2496993439
 Total energy in the final basis set =     -218.2496993439
 
 --------------------------------------------------------------
 
                    Orbital Energies (a.u.)
 --------------------------------------------------------------
 
 Alpha MOs
 -- Occupied --
-24.651 -10.216 -10.199 -10.194  -1.159  -0.800  -0.696  -0.582
 -0.517  -0.460  -0.449  -0.416  -0.407  -0.375  -0.367  -0.363
 -0.218  -0.214
 -- Virtual --
  0.103   0.116   0.140   0.157   0.164   0.172   0.221   0.240
  0.286   0.489   0.518   0.534   0.569   0.590   0.625   0.647
  0.682   0.737   0.775   0.807   0.845   0.862   0.877   0.893
  0.913   0.944   1.071   1.157   1.239   1.270   1.303   1.348
  1.435   1.519   1.590   1.609   1.663   1.759   1.769   1.836
  1.838   1.869   1.908   1.921   1.958   1.996   2.013   2.036
  2.086   2.151   2.273   2.345   2.373   2.405   2.441   2.547
  2.572   2.612   2.620   2.657   2.759   2.787   2.807   2.824
  2.844   2.976   3.172   3.286   3.343   3.407   3.457   3.471
  3.723   3.935   4.242   4.404   4.557
 
 Beta MOs
 -- Occupied --
-24.650 -10.204 -10.194 -10.186  -1.156  -0.770  -0.671  -0.552
 -0.507  -0.447  -0.429  -0.403  -0.393  -0.367  -0.364  -0.359
 -- Virtual --
 -0.078  -0.056   0.110   0.132   0.154   0.165   0.173   0.181
  0.239   0.256   0.301   0.497   0.551   0.564   0.582   0.627
  0.647   0.676   0.704   0.747   0.788   0.819   0.855   0.874
  0.886   0.909   0.920   0.956   1.096   1.161   1.242   1.280
  1.325   1.355   1.478   1.526   1.610   1.623   1.680   1.780
  1.785   1.855   1.865   1.883   1.916   1.934   1.999   2.006
  2.034   2.048   2.092   2.167   2.292   2.358   2.385   2.428
  2.466   2.572   2.591   2.626   2.638   2.666   2.762   2.799
  2.809   2.831   2.853   2.987   3.178   3.299   3.354   3.414
  3.466   3.484   3.726   3.937   4.267   4.428   4.574
 --------------------------------------------------------------
 
          Ground-State Mulliken Net Atomic Charges

     Atom                 Charge (a.u.)    Spin (a.u.)
  --------------------------------------------------------
      1 F                    -0.359478       0.029916
      2 C                    -0.178335       0.878771
      3 C                    -0.242015       1.005517
      4 C                    -0.326545      -0.034424
      5 H                     0.119535       0.002025
      6 H                     0.125736       0.058655
      7 H                     0.115480       0.004350
      8 H                     0.146320      -0.008039
      9 H                     0.115854       0.013215
     10 H                     0.348272       0.024933
     11 H                     0.135175       0.025082
  --------------------------------------------------------
  Sum of atomic charges =    -0.000000
  Sum of spin   charges =     2.000000

 -----------------------------------------------------------------
                    Cartesian Multipole Moments
 -----------------------------------------------------------------
    Charge (ESU x 10^10)
                 0.0000
    Dipole Moment (Debye)
         X      -1.1657      Y      -1.5888      Z       0.8995
       Tot       2.1661
    Quadrupole Moments (Debye-Ang)
        XX     -25.0995     XY      -1.5026     YY     -28.4496
        XZ       0.0000     YZ       1.6928     ZZ     -24.8125
    Octopole Moments (Debye-Ang^2)
       XXX      17.4821    XXY      -0.4551    XYY       2.8285
       YYY      -7.4540    XXZ       1.5003    XYZ       0.9996
       YYZ       3.1658    XZZ       6.3392    YZZ       0.6852
       ZZZ       8.0831
    Hexadecapole Moments (Debye-Ang^3)
      XXXX    -225.1684   XXXY     -15.9409   XXYY     -72.5171
      XYYY     -23.9181   YYYY    -204.0056   XXXZ      10.2719
      XXYZ       3.2836   XYYZ       5.2189   YYYZ      10.7678
      XXZZ     -46.5992   XYZZ      -6.1001   YYZZ     -41.3190
      XZZZ      11.8218   YZZZ       2.1563   ZZZZ     -61.2892
 -----------------------------------------------------------------
 Calculating analytic gradient of the SCF energy
 Gradient of SCF Energy
            1           2           3           4           5           6
    1  -0.0052866   0.0029260  -0.0027982   0.0000926  -0.0002692   0.0000466
    2  -0.0143165  -0.0005475   0.0062083  -0.0001091   0.0002250  -0.0000035
    3   0.0079562  -0.0021326   0.0023673   0.0000880  -0.0000636  -0.0000294
            7           8           9          10          11
    1   0.0000829   0.0000854   0.0000512   0.0051176  -0.0000484
    2   0.0002838   0.0010742   0.0000091   0.0071167   0.0000595
    3  -0.0000760   0.0000617  -0.0000305  -0.0081435   0.0000023
 Max gradient component =       1.432E-02
 RMS gradient           =       3.916E-03
 Gradient time:  CPU 9.52 s  wall 1.68 s
 Geometry Optimization Parameters
   NAtoms,    NIC,     NZ,  NCons,   NDum,   NFix, NCnnct, MaxDiis
       11      66       0       1       0       0       0       0

 Cartesian Hessian Update
 Hessian Updated using BFGS Update


** CONSTRAINED OPTIMIZATION IN DELOCALIZED INTERNAL COORDINATES **
   Searching for a Minimum

   Optimization Cycle:   2

                       Coordinates (Angstroms)
     ATOM                X               Y               Z
      1  F         0.7823792818    1.8607598033   -0.3461641481
      2  C        -0.3789364051   -0.5067064919    0.4698252571
      3  C         0.6838449383   -0.9381854389   -0.4228972599
      4  C        -1.7400650676   -0.1458454329   -0.0571000503
      5  H        -0.2978120344   -0.7236043973    1.5384697780
      6  H        -2.2571740477   -1.0311830533   -0.4611320969
      7  H         0.7211247002   -1.9630300109   -0.7932150816
      8  H         1.4243595477   -0.2421213241   -0.8045708909
      9  H        -2.3777000583    0.2818820109    0.7222979870
     10  H         0.4039131027    1.2908225605    0.2784725612
     11  H        -1.6570369576    0.5724107746   -0.8807910555
   Point Group: c1    Number of degrees of freedom:    27


   Energy is   -218.249699344

              Constraints and their Current Values
                                        Value     Constraint
   Distance(Angs):        1   3             2.801730     2.800000
 Hessian Updated using BFGS Update

   Using Lagrange Multiplier Algorithm


 25 Hessian modes will be used to form the next step
  Hessian Eigenvalues:
    -0.987517    0.044970    0.044999    0.045002    0.045136    0.052460
     0.063768    0.081979    0.083358    0.095743    0.124379    0.146911
     0.159997    0.161638    0.176527    0.320087    0.334596    0.341262
     0.343471    0.344172    0.347754    0.353424    0.376006    0.706508
     1.020774

 Minimum Search - Taking P-RFO Step
 Searching for Lamda that Maximizes Along the Constraint modes Only
 Value Taken    Lamda =   0.00000993
 Searching for Lamda that Minimizes Along All other modes
 Value Taken    Lamda =  -0.00022832
 Step Taken.  Stepsize is  0.020290

                             Maximum     Tolerance    Cnvgd?
         Gradient            0.007305       0.000300      NO
         Displacement        0.011523       0.001200      NO
         Energy change      0.001112       0.000001      NO


 New Cartesian Coordinates Obtained by Inverse Iteration

 Displacement from previous Coordinates is:  0.020215
 ----------------------------------------------------------------
             Standard Nuclear Orientation (Angstroms)
    I     Atom           X                Y                Z
 ----------------------------------------------------------------
    1      F       0.7848555206     1.8611864139    -0.3511248791
    2      C      -0.3806415905    -0.5063523769     0.4709637963
    3      C       0.6863953112    -0.9361379447    -0.4238110224
    4      C      -1.7418367650    -0.1455326457    -0.0563570196
    5      H      -0.2988913704    -0.7251681059     1.5393225394
    6      H      -2.2584654000    -1.0305595926    -0.4617214709
    7      H       0.7225736811    -1.9617316782    -0.7929841923
    8      H       1.4292433736    -0.2439747613    -0.8056334770
    9      H      -2.3803457328     0.2809856941     0.7230656076
   10      H       0.4023012203     1.2889281719     0.2806937816
   11      H      -1.6582912482     0.5735558255    -0.8792186636
 ----------------------------------------------------------------
 Nuclear Repulsion Energy =   117.4529175189 hartrees
 There are       18 alpha and       16 beta electrons

                       Distance Matrix (Angstroms)
             F (  1)   C (  2)   C (  3)   C (  4)   H (  5)   H (  6)
   C (  2)  2.763956
   C (  3)  2.800000  1.457362
   C (  4)  3.240059  1.503699  2.579998
   H (  5)  3.381942  1.093597  2.206624  2.228062
   H (  6)  4.199551  2.161230  2.946618  1.102043  2.817334
   H (  7)  3.848873  2.220986  1.090615  3.148733  2.830571  3.140607
   H (  8)  2.248003  2.230297  1.084759  3.259886  2.952425  3.786316
   H (  9)  3.697218  2.163856  3.493081  1.094126  2.451749  1.771645
   H ( 10)  0.934357  1.967799  2.351160  2.601655  2.476369  3.607060
   H ( 11)  2.811733  2.149787  2.825620  1.095979  3.063330  1.762867
             H (  7)   H (  8)   H (  9)   H ( 10)
   H (  8)  1.857480
   H (  9)  4.117802  4.138294
   H ( 10)  3.438335  2.141147  2.992451
   H ( 11)  3.479028  3.194783  1.781649  2.470465
 
 Applying Cartesian multipole field
    Component          Value
    ---------          -----
     (2,0,0)        1.00000E-11
     (0,2,0)        2.00000E-11
     (0,0,2)       -3.00000E-10
 Nucleus-field energy     =    -0.0000000046 hartrees
 Requested basis set is 6-31G(d,p)
 There are 37 shells and 95 basis functions
 A cutoff of  1.0D-14 yielded    689 shell pairs
 There are      4635 function pairs
 Smallest overlap matrix eigenvalue = 6.26E-03
 Guess from superposition of atomic densities
 Warning:  Energy on first SCF cycle will be non-variational
 SAD guess density has 34.000000 electrons

 -----------------------------------------------------------------------
  General SCF calculation program by
  Eric Jon Sundstrom, Paul Horn, Yuezhi Mao, Dmitri Zuev, Alec White,
  David Stuck, Shaama M.S., Shane Yost, Joonho Lee, David Small,
  Daniel Levine, Susi Lehtola, Hugh Burton, Evgeny Epifanovsky
 -----------------------------------------------------------------------
 Exchange:     0.2000 Hartree-Fock + 0.0800 Slater + 0.7200 B88
 Correlation:  0.1900 VWN1RPA + 0.8100 LYP
 Using SG-1 standard quadrature grid
 using 12 threads for integral computing
 -------------------------------------------------------
 OpenMP Integral computing Module                
 Release: version 1.0, May 2013, Q-Chem Inc. Pittsburgh 
 -------------------------------------------------------
 -------------------------------------------------------
 OpenMP BLAS3 based DFT computing Module                
 Release: version 1.0, May 2013, Q-Chem Inc. Pittsburgh 
 -------------------------------------------------------
 A unrestricted SCF calculation will be
 performed using DIIS
 SCF converges when DIIS error is below 1.0e-06
 Alpha HF Exchange    Energy =  -2.78609009184718
 Beta HF Exchange     Energy =  -2.78609009184718
 DFT Correlation      Energy =  -1.43411204538321
 DFT Exchange         Energy = -21.84902019008632
 One-Electron (alpha) Energy = -263.40652636885972
 One-Electron (beta)  Energy = -263.40652636885972
 Total Coulomb        Energy = 219.69302584071741
 ---------------------------------------
  Cycle       Energy         DIIS error
 ---------------------------------------
    1    -218.5224218019      3.02e-02  
 Alpha HF Exchange    Energy =  -2.93889486995280
 Beta HF Exchange     Energy =  -2.75094960460834
 DFT Correlation      Energy =  -1.45462815359729
 DFT Exchange         Energy = -22.58131598210374
 One-Electron (alpha) Energy = -277.21692182203998
 One-Electron (beta)  Energy = -256.59449101906506
 Total Coulomb        Energy = 227.92068171939260
    2    -218.1636022177      4.57e-03  
 Alpha HF Exchange    Energy =  -2.85912730016319
 Beta HF Exchange     Energy =  -2.67927043809160
 DFT Correlation      Energy =  -1.42602774299671
 DFT Exchange         Energy = -21.96523796053989
 One-Electron (alpha) Energy = -273.60115853867660
 One-Electron (beta)  Energy = -253.14981477902103
 Total Coulomb        Energy = 220.06744991426845
    3    -218.1602693309      5.00e-03  
 Alpha HF Exchange    Energy =  -2.90071925491017
 Beta HF Exchange     Energy =  -2.71720870505950
 DFT Correlation      Energy =  -1.43938423807456
 DFT Exchange         Energy = -22.28326453463494
 One-Electron (alpha) Energy = -275.53614587824853
 One-Electron (beta)  Energy = -254.89486361900663
 Total Coulomb        Energy = 224.06945989086569
    4    -218.2492088248      3.77e-04  
 Alpha HF Exchange    Energy =  -2.90137918736624
 Beta HF Exchange     Energy =  -2.71648921318175
 DFT Correlation      Energy =  -1.43958460549827
 DFT Exchange         Energy = -22.28341914822619
 One-Electron (alpha) Energy = -275.59828258313735
 One-Electron (beta)  Energy = -254.88568391699462
 Total Coulomb        Energy = 224.12228360101733
    5    -218.2496375391      2.06e-04  
 Alpha HF Exchange    Energy =  -2.90139731029281
 Beta HF Exchange     Energy =  -2.71675207945706
 DFT Correlation      Energy =  -1.43923964042245
 DFT Exchange         Energy = -22.28359074192394
 One-Electron (alpha) Energy = -275.57782596371180
 One-Electron (beta)  Energy = -254.85513652359975
 Total Coulomb        Energy = 224.07121588705246
    6    -218.2498088580      4.02e-05  
 Alpha HF Exchange    Energy =  -2.90150151999237
 Beta HF Exchange     Energy =  -2.71671505962344
 DFT Correlation      Energy =  -1.43923312681673
 DFT Exchange         Energy = -22.28382149701962
 One-Electron (alpha) Energy = -275.58971972467515
 One-Electron (beta)  Energy = -254.85500092442251
 Total Coulomb        Energy = 224.08325702384519
    7    -218.2498173144      1.55e-05  
 Alpha HF Exchange    Energy =  -2.90153818911981
 Beta HF Exchange     Energy =  -2.71670049541653
 DFT Correlation      Energy =  -1.43921078842789
 DFT Exchange         Energy = -22.28385299293952
 One-Electron (alpha) Energy = -275.59041350378624
 One-Electron (beta)  Energy = -254.85119228090215
 Total Coulomb        Energy = 224.08017215282308
    8    -218.2498185835      7.19e-06  
 Alpha HF Exchange    Energy =  -2.90155251955772
 Beta HF Exchange     Energy =  -2.71668980725076
 DFT Correlation      Energy =  -1.43920457516430
 DFT Exchange         Energy = -22.28385881163402
 One-Electron (alpha) Energy = -275.59164692935411
 One-Electron (beta)  Energy = -254.85009817176189
 Total Coulomb        Energy = 224.08031440458043
    9    -218.2498188958      1.15e-06  
 Alpha HF Exchange    Energy =  -2.90155722210479
 Beta HF Exchange     Energy =  -2.71668784759344
 DFT Correlation      Energy =  -1.43920415325055
 DFT Exchange         Energy = -22.28387014835024
 One-Electron (alpha) Energy = -275.59189811269596
 One-Electron (beta)  Energy = -254.84997035877697
 Total Coulomb        Energy = 224.08045142303553
   10    -218.2498189054      4.12e-07  Convergence criterion met
 ---------------------------------------
 SCF time:   CPU 31.24s  wall 7.00s 
<S^2> =          2.004256803
 Alpha HF Exchange    Energy =  -2.90155722210479
 Beta HF Exchange     Energy =  -2.71668784759344
 DFT Correlation      Energy =  -1.43920415325055
 DFT Exchange         Energy = -22.28387014835024
 One-Electron (alpha) Energy = -275.59189811269596
 One-Electron (beta)  Energy = -254.84997035877697
 Total Coulomb        Energy = 224.08045142303553
 Nuclear repulsion Energy = 117.45291751430685
 SCF   energy in the final basis set =     -218.2498189054
 Total energy in the final basis set =     -218.2498189054
 
 --------------------------------------------------------------
 
                    Orbital Energies (a.u.)
 --------------------------------------------------------------
 
 Alpha MOs
 -- Occupied --
-24.651 -10.217 -10.199 -10.194  -1.156  -0.800  -0.696  -0.583
 -0.515  -0.460  -0.448  -0.416  -0.407  -0.375  -0.366  -0.362
 -0.218  -0.214
 -- Virtual --
  0.102   0.116   0.140   0.156   0.164   0.172   0.220   0.240
  0.285   0.489   0.518   0.533   0.569   0.590   0.624   0.646
  0.681   0.736   0.774   0.807   0.845   0.862   0.877   0.893
  0.912   0.943   1.069   1.157   1.239   1.270   1.303   1.348
  1.435   1.519   1.589   1.608   1.662   1.757   1.768   1.835
  1.837   1.869   1.908   1.920   1.958   1.997   2.012   2.036
  2.085   2.150   2.273   2.344   2.372   2.403   2.440   2.545
  2.570   2.604   2.613   2.655   2.753   2.785   2.798   2.824
  2.843   2.975   3.172   3.286   3.342   3.407   3.457   3.471
  3.714   3.927   4.241   4.404   4.556
 
 Beta MOs
 -- Occupied --
-24.649 -10.205 -10.194 -10.186  -1.153  -0.770  -0.671  -0.552
 -0.505  -0.447  -0.428  -0.403  -0.393  -0.366  -0.363  -0.358
 -- Virtual --
 -0.079  -0.056   0.110   0.132   0.154   0.164   0.173   0.181
  0.238   0.256   0.300   0.497   0.550   0.564   0.581   0.627
  0.646   0.675   0.703   0.745   0.787   0.819   0.854   0.874
  0.886   0.909   0.920   0.956   1.094   1.161   1.242   1.280
  1.325   1.355   1.478   1.525   1.608   1.623   1.679   1.778
  1.784   1.855   1.864   1.883   1.916   1.933   1.999   2.006
  2.034   2.048   2.092   2.166   2.293   2.356   2.384   2.427
  2.465   2.569   2.588   2.614   2.637   2.663   2.756   2.797
  2.800   2.831   2.852   2.986   3.178   3.298   3.353   3.414
  3.465   3.484   3.717   3.929   4.265   4.428   4.574
 --------------------------------------------------------------
 
          Ground-State Mulliken Net Atomic Charges

     Atom                 Charge (a.u.)    Spin (a.u.)
  --------------------------------------------------------
      1 F                    -0.362952       0.031162
      2 C                    -0.178906       0.878488
      3 C                    -0.241923       1.006947
      4 C                    -0.326502      -0.034890
      5 H                     0.119859       0.001413
      6 H                     0.125923       0.058696
      7 H                     0.115356       0.003856
      8 H                     0.146973      -0.008833
      9 H                     0.116031       0.013149
     10 H                     0.350602       0.025027
     11 H                     0.135539       0.024986
  --------------------------------------------------------
  Sum of atomic charges =     0.000000
  Sum of spin   charges =     2.000000

 -----------------------------------------------------------------
                    Cartesian Multipole Moments
 -----------------------------------------------------------------
    Charge (ESU x 10^10)
                 0.0000
    Dipole Moment (Debye)
         X      -1.1761      Y      -1.6021      Z       0.9097
       Tot       2.1858
    Quadrupole Moments (Debye-Ang)
        XX     -25.0868     XY      -1.5196     YY     -28.4781
        XZ      -0.0005     YZ       1.7056     ZZ     -24.8157
    Octopole Moments (Debye-Ang^2)
       XXX      17.4316    XXY      -0.5019    XYY       2.7886
       YYY      -7.5403    XXZ       1.5020    XYZ       1.0146
       YYZ       3.2167    XZZ       6.3280    YZZ       0.6511
       ZZZ       8.1362
    Hexadecapole Moments (Debye-Ang^3)
      XXXX    -225.6208   XXXY     -16.0247   XXYY     -72.6390
      XYYY     -24.0164   YYYY    -204.1072   XXXZ      10.3900
      XXYZ       3.3492   XYYZ       5.2967   YYYZ      10.9403
      XXZZ     -46.7010   XYZZ      -6.1210   YYZZ     -41.3541
      XZZZ      11.9657   YZZZ       2.2895   ZZZZ     -61.4403
 -----------------------------------------------------------------
 Calculating analytic gradient of the SCF energy
 Gradient of SCF Energy
            1           2           3           4           5           6
    1  -0.0017781   0.0010623  -0.0007499  -0.0001084  -0.0002408   0.0000141
    2  -0.0090838  -0.0005225   0.0066827   0.0000053   0.0002329   0.0000081
    3   0.0022019  -0.0007892   0.0010724   0.0001025   0.0001231  -0.0000378
            7           8           9          10          11
    1   0.0001373   0.0000298  -0.0000178   0.0016941  -0.0000425
    2   0.0001587   0.0003801   0.0000192   0.0020731   0.0000461
    3  -0.0001639  -0.0000732  -0.0000286  -0.0024039  -0.0000034
 Max gradient component =       9.084E-03
 RMS gradient           =       2.148E-03
 Gradient time:  CPU 5.69 s  wall 0.76 s
 Geometry Optimization Parameters
   NAtoms,    NIC,     NZ,  NCons,   NDum,   NFix, NCnnct, MaxDiis
       11      66       0       1       0       0       0       0

 Cartesian Hessian Update
 Hessian Updated using BFGS Update


** CONSTRAINED OPTIMIZATION IN DELOCALIZED INTERNAL COORDINATES **
   Searching for a Minimum

   Optimization Cycle:   3

                       Coordinates (Angstroms)
     ATOM                X               Y               Z
      1  F         0.7848555206    1.8611864139   -0.3511248791
      2  C        -0.3806415905   -0.5063523769    0.4709637963
      3  C         0.6863953112   -0.9361379447   -0.4238110224
      4  C        -1.7418367650   -0.1455326457   -0.0563570196
      5  H        -0.2988913704   -0.7251681059    1.5393225394
      6  H        -2.2584654000   -1.0305595926   -0.4617214709
      7  H         0.7225736811   -1.9617316782   -0.7929841923
      8  H         1.4292433736   -0.2439747613   -0.8056334770
      9  H        -2.3803457328    0.2809856941    0.7230656076
     10  H         0.4023012203    1.2889281719    0.2806937816
     11  H        -1.6582912482    0.5735558255   -0.8792186636
   Point Group: c1    Number of degrees of freedom:    27


   Energy is   -218.249818905

              Constraints and their Current Values
                                        Value     Constraint
   Distance(Angs):        1   3             2.800000     2.800000
 Hessian Updated using BFGS Update

 24 Hessian modes will be used to form the next step
  Hessian Eigenvalues:
     0.044812    0.044993    0.045001    0.045026    0.052184    0.063757
     0.081974    0.083359    0.095526    0.123262    0.145874    0.156278
     0.160000    0.160798    0.176588    0.319789    0.334596    0.341245
     0.343471    0.343997    0.347659    0.352228    0.362882    0.553096

 Minimum Search - Taking Simple RFO Step
 Searching for Lamda that Minimizes Along All modes
 Value Taken    Lamda =  -0.00003406
 Step Taken.  Stepsize is  0.013148

                             Maximum     Tolerance    Cnvgd?
         Gradient           0.002227      0.000300      NO
         Displacement       0.006891      0.001200      NO
         Energy change     -0.000120      0.000001      NO


 New Cartesian Coordinates Obtained by Inverse Iteration

 Displacement from previous Coordinates is:  0.014534
 ----------------------------------------------------------------
             Standard Nuclear Orientation (Angstroms)
    I     Atom           X                Y                Z
 ----------------------------------------------------------------
    1      F       0.7829210413     1.8620978415    -0.3523060832
    2      C      -0.3808977009    -0.5052303615     0.4711919465
    3      C       0.6873438804    -0.9353308676    -0.4248242120
    4      C      -1.7417094040    -0.1448368604    -0.0563758527
    5      H      -0.2973570385    -0.7263881449     1.5387845258
    6      H      -2.2578203171    -1.0298705908    -0.4623899525
    7      H       0.7208641770    -1.9622143812    -0.7911229857
    8      H       1.4327157195    -0.2467622577    -0.8067376558
    9      H      -2.3805551629     0.2807677972     0.7232607107
   10      H       0.3991181013     1.2882924642     0.2824638300
   11      H      -1.6577262960     0.5746743613    -0.8787492710
 ----------------------------------------------------------------
 Nuclear Repulsion Energy =   117.4240262954 hartrees
 There are       18 alpha and       16 beta electrons

                       Distance Matrix (Angstroms)
             F (  1)   C (  2)   C (  3)   C (  4)   H (  5)   H (  6)
   C (  2)  2.763488
   C (  3)  2.800000  1.459100
   C (  4)  3.238691  1.503336  2.580879
   H (  5)  3.382822  1.093455  2.206593  2.229101
   H (  6)  4.197822  2.160940  2.946921  1.102045  2.817839
   H (  7)  3.849906  2.220388  1.090774  3.147536  2.827103  3.138454
   H (  8)  2.253005  2.233630  1.084234  3.263496  2.953755  3.788389
   H (  9)  3.696624  2.163322  3.494138  1.094119  2.453397  1.771611
   H ( 10)  0.937811  1.964883  2.351134  2.598425  2.474340  3.603888
   H ( 11)  2.809157  2.149146  2.825866  1.095923  3.063958  1.762961
             H (  7)   H (  8)   H (  9)   H ( 10)
   H (  8)  1.857351
   H (  9)  4.116203  4.142489
   H ( 10)  3.438300  2.147342  2.989313
   H ( 11)  3.478674  3.198558  1.781937  2.467443
 
 Applying Cartesian multipole field
    Component          Value
    ---------          -----
     (2,0,0)        1.00000E-11
     (0,2,0)        2.00000E-11
     (0,0,2)       -3.00000E-10
 Nucleus-field energy     =    -0.0000000046 hartrees
 Requested basis set is 6-31G(d,p)
 There are 37 shells and 95 basis functions
 A cutoff of  1.0D-14 yielded    689 shell pairs
 There are      4635 function pairs
 Smallest overlap matrix eigenvalue = 6.27E-03
 Guess from superposition of atomic densities
 Warning:  Energy on first SCF cycle will be non-variational
 SAD guess density has 34.000000 electrons

 -----------------------------------------------------------------------
  General SCF calculation program by
  Eric Jon Sundstrom, Paul Horn, Yuezhi Mao, Dmitri Zuev, Alec White,
  David Stuck, Shaama M.S., Shane Yost, Joonho Lee, David Small,
  Daniel Levine, Susi Lehtola, Hugh Burton, Evgeny Epifanovsky
 -----------------------------------------------------------------------
 Exchange:     0.2000 Hartree-Fock + 0.0800 Slater + 0.7200 B88
 Correlation:  0.1900 VWN1RPA + 0.8100 LYP
 Using SG-1 standard quadrature grid
 using 12 threads for integral computing
 -------------------------------------------------------
 OpenMP Integral computing Module                
 Release: version 1.0, May 2013, Q-Chem Inc. Pittsburgh 
 -------------------------------------------------------
 -------------------------------------------------------
 OpenMP BLAS3 based DFT computing Module                
 Release: version 1.0, May 2013, Q-Chem Inc. Pittsburgh 
 -------------------------------------------------------
 A unrestricted SCF calculation will be
 performed using DIIS
 SCF converges when DIIS error is below 1.0e-06
 Alpha HF Exchange    Energy =  -2.78572590509365
 Beta HF Exchange     Energy =  -2.78572590509365
 DFT Correlation      Energy =  -1.43404017843017
 DFT Exchange         Energy = -21.84814730257885
 One-Electron (alpha) Energy = -263.38179866312936
 One-Electron (beta)  Energy = -263.38179866312936
 Total Coulomb        Energy = 219.67404491934010
 ---------------------------------------
  Cycle       Energy         DIIS error
 ---------------------------------------
    1    -218.5191654073      3.01e-02  
 Alpha HF Exchange    Energy =  -2.93866261708987
 Beta HF Exchange     Energy =  -2.75073023317969
 DFT Correlation      Energy =  -1.45453807922830
 DFT Exchange         Energy = -22.57972740061160
 One-Electron (alpha) Energy = -277.18947271547756
 One-Electron (beta)  Energy = -256.56814630724364
 Total Coulomb        Energy = 227.89359536042323
    2    -218.1636557016      4.57e-03  
 Alpha HF Exchange    Energy =  -2.85891206772567
 Beta HF Exchange     Energy =  -2.67896417117220
 DFT Correlation      Energy =  -1.42594830510117
 DFT Exchange         Energy = -21.96353300929106
 One-Electron (alpha) Energy = -273.57718751902826
 One-Electron (beta)  Energy = -253.12389233160712
 Total Coulomb        Energy = 220.04426804234271
    3    -218.1601430708      5.01e-03  
 Alpha HF Exchange    Energy =  -2.90051679690784
 Beta HF Exchange     Energy =  -2.71696925815827
 DFT Correlation      Energy =  -1.43929476751683
 DFT Exchange         Energy = -22.28178500650873
 One-Electron (alpha) Energy = -275.51007932997334
 One-Electron (beta)  Energy = -254.86837801762954
 Total Coulomb        Energy = 224.04378290996203
    4    -218.2492139760      3.82e-04  
 Alpha HF Exchange    Energy =  -2.90118478159892
 Beta HF Exchange     Energy =  -2.71624119020014
 DFT Correlation      Energy =  -1.43950585526884
 DFT Exchange         Energy = -22.28196581974450
 One-Electron (alpha) Energy = -275.57364516301652
 One-Electron (beta)  Energy = -254.86022093888860
 Total Coulomb        Energy = 224.09908365088998
    5    -218.2496538070      2.07e-04  
 Alpha HF Exchange    Energy =  -2.90120682176756
 Beta HF Exchange     Energy =  -2.71650443905511
 DFT Correlation      Energy =  -1.43915804360398
 DFT Exchange         Energy = -22.28214383058189
 One-Electron (alpha) Energy = -275.55294657083482
 One-Electron (beta)  Energy = -254.82920915538148
 Total Coulomb        Energy = 224.04731492506727
    6    -218.2498276454      4.05e-05  
 Alpha HF Exchange    Energy =  -2.90131068349813
 Beta HF Exchange     Energy =  -2.71646728338492
 DFT Correlation      Energy =  -1.43915113031394
 DFT Exchange         Energy = -22.28237242310269
 One-Electron (alpha) Energy = -275.56484123929164
 One-Electron (beta)  Energy = -254.82905377972585
 Total Coulomb        Energy = 224.05933407009192
    7    -218.2498361784      1.57e-05  
 Alpha HF Exchange    Energy =  -2.90134840587247
 Beta HF Exchange     Energy =  -2.71645206602017
 DFT Correlation      Energy =  -1.43912903645069
 DFT Exchange         Energy = -22.28240575909135
 One-Electron (alpha) Energy = -275.56559798269393
 One-Electron (beta)  Energy = -254.82525126695560
 Total Coulomb        Energy = 224.05632074116417
    8    -218.2498374851      7.17e-06  
 Alpha HF Exchange    Energy =  -2.90136294548086
 Beta HF Exchange     Energy =  -2.71644107988488
 DFT Correlation      Energy =  -1.43912260031846
 DFT Exchange         Energy = -22.28241077249973
 One-Electron (alpha) Energy = -275.56682508912627
 One-Electron (beta)  Energy = -254.82411673800954
 Total Coulomb        Energy = 224.05641513643465
    9    -218.2498377981      1.15e-06  
 Alpha HF Exchange    Energy =  -2.90136772168023
 Beta HF Exchange     Energy =  -2.71643906471175
 DFT Correlation      Energy =  -1.43912219360630
 DFT Exchange         Energy = -22.28242220663383
 One-Electron (alpha) Energy = -275.56708049378210
 One-Electron (beta)  Energy = -254.82398843240011
 Total Coulomb        Energy = 224.05655601432997
   10    -218.2498378077      4.09e-07  Convergence criterion met
 ---------------------------------------
 SCF time:   CPU 21.81s  wall 2.00s 
<S^2> =          2.004271351
 Alpha HF Exchange    Energy =  -2.90136772168023
 Beta HF Exchange     Energy =  -2.71643906471175
 DFT Correlation      Energy =  -1.43912219360630
 DFT Exchange         Energy = -22.28242220663383
 One-Electron (alpha) Energy = -275.56708049378210
 One-Electron (beta)  Energy = -254.82398843240011
 Total Coulomb        Energy = 224.05655601432997
 Nuclear repulsion Energy = 117.42402629077819
 SCF   energy in the final basis set =     -218.2498378077
 Total energy in the final basis set =     -218.2498378077
 
 --------------------------------------------------------------
 
                    Orbital Energies (a.u.)
 --------------------------------------------------------------
 
 Alpha MOs
 -- Occupied --
-24.651 -10.217 -10.200 -10.195  -1.155  -0.800  -0.696  -0.583
 -0.514  -0.460  -0.448  -0.416  -0.407  -0.375  -0.365  -0.361
 -0.218  -0.214
 -- Virtual --
  0.102   0.116   0.140   0.155   0.164   0.172   0.220   0.240
  0.284   0.489   0.518   0.533   0.569   0.590   0.624   0.645
  0.681   0.735   0.774   0.806   0.844   0.862   0.877   0.893
  0.912   0.943   1.068   1.157   1.240   1.270   1.303   1.348
  1.435   1.518   1.589   1.608   1.662   1.756   1.768   1.835
  1.837   1.869   1.908   1.921   1.958   1.997   2.012   2.036
  2.085   2.150   2.273   2.344   2.372   2.402   2.440   2.544
  2.570   2.599   2.612   2.654   2.750   2.784   2.795   2.824
  2.843   2.974   3.172   3.286   3.342   3.407   3.456   3.471
  3.710   3.924   4.240   4.404   4.556
 
 Beta MOs
 -- Occupied --
-24.649 -10.205 -10.194 -10.187  -1.151  -0.770  -0.671  -0.553
 -0.504  -0.447  -0.428  -0.403  -0.393  -0.366  -0.363  -0.357
 -- Virtual --
 -0.079  -0.056   0.110   0.132   0.154   0.164   0.173   0.181
  0.237   0.256   0.299   0.497   0.549   0.564   0.581   0.627
  0.646   0.674   0.703   0.745   0.787   0.819   0.854   0.874
  0.886   0.909   0.920   0.956   1.094   1.162   1.242   1.279
  1.325   1.355   1.478   1.525   1.608   1.623   1.679   1.778
  1.783   1.855   1.864   1.883   1.916   1.933   2.000   2.007
  2.033   2.048   2.091   2.165   2.293   2.356   2.384   2.426
  2.465   2.568   2.588   2.609   2.637   2.662   2.753   2.796
  2.797   2.831   2.852   2.985   3.178   3.298   3.353   3.414
  3.465   3.484   3.713   3.926   4.265   4.428   4.574
 --------------------------------------------------------------
 
          Ground-State Mulliken Net Atomic Charges

     Atom                 Charge (a.u.)    Spin (a.u.)
  --------------------------------------------------------
      1 F                    -0.364535       0.031920
      2 C                    -0.179410       0.878060
      3 C                    -0.241599       1.007890
      4 C                    -0.326425      -0.035204
      5 H                     0.120042       0.001123
      6 H                     0.125991       0.058803
      7 H                     0.115265       0.003574
      8 H                     0.147201      -0.009359
      9 H                     0.116127       0.013135
     10 H                     0.351532       0.025106
     11 H                     0.135811       0.024951
  --------------------------------------------------------
  Sum of atomic charges =    -0.000000
  Sum of spin   charges =     2.000000

 -----------------------------------------------------------------
                    Cartesian Multipole Moments
 -----------------------------------------------------------------
    Charge (ESU x 10^10)
                -0.0000
    Dipole Moment (Debye)
         X      -1.1790      Y      -1.6126      Z       0.9148
       Tot       2.1971
    Quadrupole Moments (Debye-Ang)
        XX     -25.0746     XY      -1.5229     YY     -28.4927
        XZ      -0.0009     YZ       1.7054     ZZ     -24.8177
    Octopole Moments (Debye-Ang^2)
       XXX      17.4496    XXY      -0.5213    XYY       2.7782
       YYY      -7.6315    XXZ       1.4987    XYZ       1.0105
       YYZ       3.2464    XZZ       6.3314    YZZ       0.6330
       ZZZ       8.1656
    Hexadecapole Moments (Debye-Ang^3)
      XXXX    -225.4772   XXXY     -15.9356   XXYY     -72.6415
      XYYY     -23.9216   YYYY    -204.2412   XXXZ      10.3880
      XXYZ       3.3530   XYYZ       5.3171   YYYZ      10.9537
      XXZZ     -46.6841   XYZZ      -6.0903   YYZZ     -41.3807
      XZZZ      11.9939   YZZZ       2.2957   ZZZZ     -61.4923
 -----------------------------------------------------------------
 Calculating analytic gradient of the SCF energy
 Gradient of SCF Energy
            1           2           3           4           5           6
    1  -0.0003530  -0.0000906   0.0002853  -0.0000452  -0.0000686   0.0000155
    2  -0.0069397  -0.0004533   0.0070380   0.0000398   0.0001913   0.0000099
    3  -0.0001424  -0.0000900   0.0004545   0.0000192   0.0000358  -0.0000310
            7           8           9          10          11
    1   0.0000345  -0.0000422   0.0000144   0.0002657  -0.0000157
    2   0.0000500   0.0000035  -0.0000081   0.0000435   0.0000251
    3  -0.0001083  -0.0000961   0.0000011  -0.0000388  -0.0000041
 Max gradient component =       7.038E-03
 RMS gradient           =       1.728E-03
 Gradient time:  CPU 6.33 s  wall 3.30 s
 Geometry Optimization Parameters
   NAtoms,    NIC,     NZ,  NCons,   NDum,   NFix, NCnnct, MaxDiis
       11      66       0       1       0       0       0       0

 Cartesian Hessian Update
 Hessian Updated using BFGS Update


** CONSTRAINED OPTIMIZATION IN DELOCALIZED INTERNAL COORDINATES **
   Searching for a Minimum

   Optimization Cycle:   4

                       Coordinates (Angstroms)
     ATOM                X               Y               Z
      1  F         0.7829210413    1.8620978415   -0.3523060832
      2  C        -0.3808977009   -0.5052303615    0.4711919465
      3  C         0.6873438804   -0.9353308676   -0.4248242120
      4  C        -1.7417094040   -0.1448368604   -0.0563758527
      5  H        -0.2973570385   -0.7263881449    1.5387845258
      6  H        -2.2578203171   -1.0298705908   -0.4623899525
      7  H         0.7208641770   -1.9622143812   -0.7911229857
      8  H         1.4327157195   -0.2467622577   -0.8067376558
      9  H        -2.3805551629    0.2807677972    0.7232607107
     10  H         0.3991181013    1.2882924642    0.2824638300
     11  H        -1.6577262960    0.5746743613   -0.8787492710
   Point Group: c1    Number of degrees of freedom:    27


   Energy is   -218.249837808

              Constraints and their Current Values
                                        Value     Constraint
   Distance(Angs):        1   3             2.800000     2.800000
 Hessian Updated using BFGS Update

 25 Hessian modes will be used to form the next step
  Hessian Eigenvalues:
     0.041260    0.044981    0.045001    0.045009    0.049074    0.063792
     0.081960    0.083361    0.094700    0.121376    0.141481    0.155822
     0.160000    0.160176    0.161551    0.176424    0.319314    0.334594
     0.341196    0.343475    0.344278    0.347671    0.352931    0.366016
     0.591647

 Minimum Search - Taking Simple RFO Step
 Searching for Lamda that Minimizes Along All modes
 Value Taken    Lamda =  -0.00000240
 Step Taken.  Stepsize is  0.007086

                             Maximum     Tolerance    Cnvgd?
         Gradient           0.000159      0.000300     YES
         Displacement       0.004237      0.001200      NO
         Energy change     -0.000019      0.000001      NO


 New Cartesian Coordinates Obtained by Inverse Iteration

 Displacement from previous Coordinates is:  0.007815
 ----------------------------------------------------------------
             Standard Nuclear Orientation (Angstroms)
    I     Atom           X                Y                Z
 ----------------------------------------------------------------
    1      F       0.7811250350     1.8621427355    -0.3520553628
    2      C      -0.3804672816    -0.5043778534     0.4709841229
    3      C       0.6873819942    -0.9353241326    -0.4254898180
    4      C      -1.7413148314    -0.1443261906    -0.0564257644
    5      H      -0.2962227084    -0.7269062394     1.5382424649
    6      H      -2.2572213656    -1.0294889786    -0.4624469058
    7      H       0.7199383505    -1.9628341637    -0.7901960700
    8      H       1.4340940612    -0.2479785237    -0.8068374024
    9      H      -2.3803929138     0.2810392688     0.7231695547
   10      H       0.3973091128     1.2880564618     0.2829973715
   11      H      -1.6573324530     0.5751966160    -0.8787471906
 ----------------------------------------------------------------
 Nuclear Repulsion Energy =   117.4366227705 hartrees
 There are       18 alpha and       16 beta electrons

                       Distance Matrix (Angstroms)
             F (  1)   C (  2)   C (  3)   C (  4)   H (  5)   H (  6)
   C (  2)  2.761722
   C (  3)  2.800000  1.459343
   C (  4)  3.236668  1.503231  2.580786
   H (  5)  3.381875  1.093461  2.206164  2.229497
   H (  6)  4.195863  2.160843  2.946340  1.102055  2.817770
   H (  7)  3.850475  2.220037  1.090801  3.146928  2.825195  3.137201
   H (  8)  2.255173  2.234100  1.084181  3.264519  2.953433  3.788822
   H (  9)  3.694752  2.163372  3.494310  1.094132  2.454397  1.771537
   H ( 10)  0.938180  1.962930  2.351493  2.596274  2.473197  3.601838
   H ( 11)  2.807082  2.148870  2.825739  1.095892  3.064299  1.763006
             H (  7)   H (  8)   H (  9)   H ( 10)
   H (  8)  1.857694
   H (  9)  4.115495  4.143802
   H ( 10)  3.438622  2.149899  2.987217
   H ( 11)  3.478629  3.199954  1.781988  2.465638
 
 Applying Cartesian multipole field
    Component          Value
    ---------          -----
     (2,0,0)        1.00000E-11
     (0,2,0)        2.00000E-11
     (0,0,2)       -3.00000E-10
 Nucleus-field energy     =    -0.0000000046 hartrees
 Requested basis set is 6-31G(d,p)
 There are 37 shells and 95 basis functions
 A cutoff of  1.0D-14 yielded    689 shell pairs
 There are      4635 function pairs
 Smallest overlap matrix eigenvalue = 6.27E-03
 Guess from superposition of atomic densities
 Warning:  Energy on first SCF cycle will be non-variational
 SAD guess density has 34.000000 electrons

 -----------------------------------------------------------------------
  General SCF calculation program by
  Eric Jon Sundstrom, Paul Horn, Yuezhi Mao, Dmitri Zuev, Alec White,
  David Stuck, Shaama M.S., Shane Yost, Joonho Lee, David Small,
  Daniel Levine, Susi Lehtola, Hugh Burton, Evgeny Epifanovsky
 -----------------------------------------------------------------------
 Exchange:     0.2000 Hartree-Fock + 0.0800 Slater + 0.7200 B88
 Correlation:  0.1900 VWN1RPA + 0.8100 LYP
 Using SG-1 standard quadrature grid
 using 12 threads for integral computing
 -------------------------------------------------------
 OpenMP Integral computing Module                
 Release: version 1.0, May 2013, Q-Chem Inc. Pittsburgh 
 -------------------------------------------------------
 -------------------------------------------------------
 OpenMP BLAS3 based DFT computing Module                
 Release: version 1.0, May 2013, Q-Chem Inc. Pittsburgh 
 -------------------------------------------------------
 A unrestricted SCF calculation will be
 performed using DIIS
 SCF converges when DIIS error is below 1.0e-06
 Alpha HF Exchange    Energy =  -2.78570507501914
 Beta HF Exchange     Energy =  -2.78570507501914
 DFT Correlation      Energy =  -1.43404195830694
 DFT Exchange         Energy = -21.84808443021935
 One-Electron (alpha) Energy = -263.39483960469511
 One-Electron (beta)  Energy = -263.39483960469511
 Total Coulomb        Energy = 219.68763786876042
 ---------------------------------------
  Cycle       Energy         DIIS error
 ---------------------------------------
    1    -218.5189551133      3.01e-02  
 Alpha HF Exchange    Energy =  -2.93865277742767
 Beta HF Exchange     Energy =  -2.75070094910531
 DFT Correlation      Energy =  -1.45453680958074
 DFT Exchange         Energy = -22.57959376419161
 One-Electron (alpha) Energy = -277.20364055718255
 One-Electron (beta)  Energy = -256.58024206782511
 Total Coulomb        Energy = 227.90708354540277
    2    -218.1636606140      4.57e-03  
 Alpha HF Exchange    Energy =  -2.85890934150982
 Beta HF Exchange     Energy =  -2.67891803061951
 DFT Correlation      Energy =  -1.42594898428953
 DFT Exchange         Energy = -21.96338215820430
 One-Electron (alpha) Energy = -273.59167899329464
 One-Electron (beta)  Energy = -253.13548453705459
 Total Coulomb        Energy = 220.05757493039340
    3    -218.1601243487      5.01e-03  
 Alpha HF Exchange    Energy =  -2.90051437178024
 Beta HF Exchange     Energy =  -2.71693312706339
 DFT Correlation      Energy =  -1.43929313494602
 DFT Exchange         Energy = -22.28166098684279
 One-Electron (alpha) Energy = -275.52437131433823
 One-Electron (beta)  Energy = -254.88000660948063
 Total Coulomb        Energy = 224.05694251024832
    4    -218.2492142683      3.83e-04  
 Alpha HF Exchange    Energy =  -2.90118457541746
 Beta HF Exchange     Energy =  -2.71620396333766
 DFT Correlation      Energy =  -1.43950607098404
 DFT Exchange         Energy = -22.28185062398035
 One-Electron (alpha) Energy = -275.58821894465683
 One-Electron (beta)  Energy = -254.87202596366905
 Total Coulomb        Energy = 224.11271207727773
    5    -218.2496552989      2.07e-04  
 Alpha HF Exchange    Energy =  -2.90120715836019
 Beta HF Exchange     Energy =  -2.71646715400062
 DFT Correlation      Energy =  -1.43915768479366
 DFT Exchange         Energy = -22.28202871059452
 One-Electron (alpha) Energy = -275.56747125680045
 One-Electron (beta)  Energy = -254.84091691073536
 Total Coulomb        Energy = 224.06079656911314
    6    -218.2498295403      4.05e-05  
 Alpha HF Exchange    Energy =  -2.90131100543336
 Beta HF Exchange     Energy =  -2.71642986677482
 DFT Correlation      Energy =  -1.43915071017116
 DFT Exchange         Energy = -22.28225671579425
 One-Electron (alpha) Energy = -275.57937107440176
 One-Electron (beta)  Energy = -254.84075450719362
 Total Coulomb        Energy = 224.07281302574242
    7    -218.2498380882      1.57e-05  
 Alpha HF Exchange    Energy =  -2.90134894428102
 Beta HF Exchange     Energy =  -2.71641449645833
 DFT Correlation      Energy =  -1.43912866531905
 DFT Exchange         Energy = -22.28229036257911
 One-Electron (alpha) Energy = -275.58014084325964
 One-Electron (beta)  Energy = -254.83695114460278
 Total Coulomb        Energy = 224.06981229067046
    8    -218.2498394000      7.17e-06  
 Alpha HF Exchange    Energy =  -2.90136351501973
 Beta HF Exchange     Energy =  -2.71640345923231
 DFT Correlation      Energy =  -1.43912219829390
 DFT Exchange         Energy = -22.28229525194277
 One-Electron (alpha) Energy = -275.58136710264768
 One-Electron (beta)  Energy = -254.83581028999066
 Total Coulomb        Energy = 224.06989933832529
    9    -218.2498397129      1.15e-06  
 Alpha HF Exchange    Energy =  -2.90136830752314
 Beta HF Exchange     Energy =  -2.71640143090854
 DFT Correlation      Energy =  -1.43912179410185
 DFT Exchange         Energy = -22.28230669987325
 One-Electron (alpha) Energy = -275.58162332859729
 One-Electron (beta)  Energy = -254.83568165881132
 Total Coulomb        Energy = 224.07004073140664
   10    -218.2498397225      4.09e-07  Convergence criterion met
 ---------------------------------------
 SCF time:   CPU 25.42s  wall 4.00s 
<S^2> =          2.004273826
 Alpha HF Exchange    Energy =  -2.90136830752314
 Beta HF Exchange     Energy =  -2.71640143090854
 DFT Correlation      Energy =  -1.43912179410185
 DFT Exchange         Energy = -22.28230669987325
 One-Electron (alpha) Energy = -275.58162332859729
 One-Electron (beta)  Energy = -254.83568165881132
 Total Coulomb        Energy = 224.07004073140664
 Nuclear repulsion Energy = 117.43662276587581
 SCF   energy in the final basis set =     -218.2498397225
 Total energy in the final basis set =     -218.2498397225
 
 --------------------------------------------------------------
 
                    Orbital Energies (a.u.)
 --------------------------------------------------------------
 
 Alpha MOs
 -- Occupied --
-24.650 -10.217 -10.200 -10.195  -1.155  -0.800  -0.696  -0.583
 -0.514  -0.460  -0.448  -0.416  -0.407  -0.375  -0.365  -0.361
 -0.218  -0.214
 -- Virtual --
  0.102   0.116   0.140   0.155   0.164   0.172   0.220   0.240
  0.284   0.489   0.518   0.533   0.569   0.590   0.624   0.645
  0.681   0.735   0.774   0.806   0.844   0.862   0.877   0.893
  0.912   0.943   1.069   1.157   1.240   1.270   1.303   1.349
  1.435   1.518   1.589   1.608   1.662   1.756   1.769   1.836
  1.837   1.869   1.908   1.921   1.958   1.997   2.012   2.036
  2.085   2.150   2.273   2.343   2.372   2.402   2.441   2.544
  2.570   2.599   2.612   2.654   2.750   2.784   2.795   2.824
  2.843   2.974   3.172   3.286   3.342   3.407   3.456   3.471
  3.710   3.924   4.241   4.404   4.556
 
 Beta MOs
 -- Occupied --
-24.649 -10.205 -10.194 -10.187  -1.151  -0.770  -0.671  -0.553
 -0.504  -0.447  -0.428  -0.403  -0.393  -0.366  -0.363  -0.357
 -- Virtual --
 -0.079  -0.056   0.110   0.132   0.154   0.164   0.173   0.181
  0.237   0.256   0.299   0.497   0.549   0.564   0.581   0.626
  0.646   0.674   0.703   0.745   0.787   0.819   0.854   0.874
  0.886   0.909   0.920   0.956   1.094   1.162   1.243   1.279
[...]


   Energy is   -218.249842158

              Constraints and their Current Values
                                        Value     Constraint
   Distance(Angs):        1   3             2.800000     2.800000
 Hessian Updated using BFGS Update

 26 Hessian modes will be used to form the next step
  Hessian Eigenvalues:
     0.008618    0.044989    0.045001    0.045390    0.048959    0.064034
     0.081977    0.083356    0.093469    0.128188    0.148557    0.159687
     0.159988    0.160032    0.160260    0.173721    0.180501    0.322053
     0.334607    0.341293    0.343492    0.344363    0.348047    0.353240
     0.375771    0.641549

 Minimum Search - Taking Simple RFO Step
 Searching for Lamda that Minimizes Along All modes
 Value Taken    Lamda =  -0.00000126
 Step Taken.  Stepsize is  0.009887

                             Maximum     Tolerance    Cnvgd?
         Gradient           0.000191      0.000300     YES
         Displacement       0.007555      0.001200      NO
         Energy change     -0.000002      0.000001      NO


 New Cartesian Coordinates Obtained by Inverse Iteration

 Displacement from previous Coordinates is:  0.006722
 ----------------------------------------------------------------
             Standard Nuclear Orientation (Angstroms)
    I     Atom           X                Y                Z
 ----------------------------------------------------------------
    1      F       0.7766288615     1.8619532037    -0.3508898713
    2      C      -0.3787311747    -0.5014381005     0.4698530732
    3      C       0.6868645209    -0.9355458996    -0.4279767421
    4      C      -1.7402684538    -0.1427647572    -0.0564347197
    5      H      -0.2940308058    -0.7286036262     1.5362015966
    6      H      -2.2555509234    -1.0287085466    -0.4615898904
    7      H       0.7182886409    -1.9645738155    -0.7883118152
    8      H       1.4383232402    -0.2512956440    -0.8054744232
    9      H      -2.3793995074     0.2822966794     0.7233057108
   10      H       0.3920223965     1.2875286181     0.2836448964
   11      H      -1.6572497949     0.5763508884    -0.8791328152
 ----------------------------------------------------------------
 Nuclear Repulsion Energy =   117.4850964302 hartrees
 There are       18 alpha and       16 beta electrons

                       Distance Matrix (Angstroms)
             F (  1)   C (  2)   C (  3)   C (  4)   H (  5)   H (  6)
   C (  2)  2.755738
   C (  3)  2.800000  1.459466
   C (  4)  3.231156  1.503133  2.580217
   H (  5)  3.379114  1.093562  2.205216  2.229641
   H (  6)  4.190739  2.160568  2.944082  1.102072  2.815812
   H (  7)  3.851889  2.219729  1.090746  3.146289  2.820598  3.134695
   H (  8)  2.260599  2.233992  1.084155  3.267458  2.951664  3.790427
   H (  9)  3.689136  2.163597  3.494362  1.094148  2.455908  1.771454
   H ( 10)  0.938360  1.956818  2.352743  2.589992  2.470700  3.595827
   H ( 11)  2.802781  2.148488  2.825641  1.095834  3.065145  1.763100
             H (  7)   H (  8)   H (  9)   H ( 10)
   H (  8)  1.858512
   H (  9)  4.114497  4.146914
   H ( 10)  3.439725  2.156132  2.980700
   H ( 11)  3.479616  3.205152  1.782071  2.461167
 
 Applying Cartesian multipole field
    Component          Value
    ---------          -----
     (2,0,0)        1.00000E-11
     (0,2,0)        2.00000E-11
     (0,0,2)       -3.00000E-10
 Nucleus-field energy     =    -0.0000000046 hartrees
 Requested basis set is 6-31G(d,p)
 There are 37 shells and 95 basis functions
 A cutoff of  1.0D-14 yielded    689 shell pairs
 There are      4635 function pairs
 Smallest overlap matrix eigenvalue = 6.26E-03
 Guess from superposition of atomic densities
 Warning:  Energy on first SCF cycle will be non-variational
 SAD guess density has 34.000000 electrons

 -----------------------------------------------------------------------
  General SCF calculation program by
  Eric Jon Sundstrom, Paul Horn, Yuezhi Mao, Dmitri Zuev, Alec White,
  David Stuck, Shaama M.S., Shane Yost, Joonho Lee, David Small,
  Daniel Levine, Susi Lehtola, Hugh Burton, Evgeny Epifanovsky
 -----------------------------------------------------------------------
 Exchange:     0.2000 Hartree-Fock + 0.0800 Slater + 0.7200 B88
 Correlation:  0.1900 VWN1RPA + 0.8100 LYP
 Using SG-1 standard quadrature grid
 using 12 threads for integral computing
 -------------------------------------------------------
 OpenMP Integral computing Module                
 Release: version 1.0, May 2013, Q-Chem Inc. Pittsburgh 
 -------------------------------------------------------
 -------------------------------------------------------
 OpenMP BLAS3 based DFT computing Module                
 Release: version 1.0, May 2013, Q-Chem Inc. Pittsburgh 
 -------------------------------------------------------
 A unrestricted SCF calculation will be
 performed using DIIS
 SCF converges when DIIS error is below 1.0e-06
 Alpha HF Exchange    Energy =  -2.78576036624548
 Beta HF Exchange     Energy =  -2.78576036624548
 DFT Correlation      Energy =  -1.43407235768666
 DFT Exchange         Energy = -21.84817125552515
 One-Electron (alpha) Energy = -263.44346868620136
 One-Electron (beta)  Energy = -263.44346868620136
 Total Coulomb        Energy = 219.73624797664908
 ---------------------------------------
  Cycle       Energy         DIIS error
 ---------------------------------------
    1    -218.5193573158      3.01e-02  
 Alpha HF Exchange    Energy =  -2.93870196506633
 Beta HF Exchange     Energy =  -2.75066856803885
 DFT Correlation      Energy =  -1.45456435385124
 DFT Exchange         Energy = -22.57967958999515
 One-Electron (alpha) Energy = -277.25722893982635
 One-Electron (beta)  Energy = -256.62581659316271
 Total Coulomb        Energy = 227.95790495971141
    2    -218.1636586246      4.57e-03  
 Alpha HF Exchange    Energy =  -2.85898055930523
 Beta HF Exchange     Energy =  -2.67885546634089
 DFT Correlation      Energy =  -1.42598010927899
 DFT Exchange         Energy = -21.96345349203889
 One-Electron (alpha) Energy = -273.64551527576452
 One-Electron (beta)  Energy = -253.17935261730716
 Total Coulomb        Energy = 220.10693785707241
    3    -218.1601032373      5.01e-03  
 Alpha HF Exchange    Energy =  -2.90058055155984
 Beta HF Exchange     Energy =  -2.71688404873675
 DFT Correlation      Energy =  -1.43931885276615
 DFT Exchange         Energy = -22.28174539018325
 One-Electron (alpha) Energy = -275.57800159315212
 One-Electron (beta)  Energy = -254.92401034843405
 Total Coulomb        Energy = 224.10622807165805
    4    -218.2492162876      3.83e-04  
 Alpha HF Exchange    Energy =  -2.90125613469671
 Beta HF Exchange     Energy =  -2.71615372592824
 DFT Correlation      Energy =  -1.43953493282466
 DFT Exchange         Energy = -22.28195821055878
 One-Electron (alpha) Energy = -275.64241236244720
 One-Electron (beta)  Energy = -254.91634246094029
 Total Coulomb        Energy = 224.16290342612081
    5    -218.2496579757      2.08e-04  
 Alpha HF Exchange    Energy =  -2.90127917394679
 Beta HF Exchange     Energy =  -2.71641680400860
 DFT Correlation      Energy =  -1.43918534457178
 DFT Exchange         Energy = -22.28213412362301
 One-Electron (alpha) Energy = -275.62155637507061
 One-Electron (beta)  Energy = -254.88502914739911
 Total Coulomb        Energy = 224.11067168223559
    6    -218.2498328608      4.06e-05  
 Alpha HF Exchange    Energy =  -2.90138315412284
 Beta HF Exchange     Energy =  -2.71637917033301
 DFT Correlation      Energy =  -1.43917830185495
 DFT Exchange         Energy = -22.28236126783512
 One-Electron (alpha) Energy = -275.63347746865065
 One-Electron (beta)  Energy = -254.88484939117177
 Total Coulomb        Energy = 224.12269089038153
    7    -218.2498414380      1.58e-05  
 Alpha HF Exchange    Energy =  -2.90142146575748
 Beta HF Exchange     Energy =  -2.71636345263717
 DFT Correlation      Energy =  -1.43915634159210
 DFT Exchange         Energy = -22.28239513753462
 One-Electron (alpha) Energy = -275.63427180929204
 One-Electron (beta)  Energy = -254.88103989590854
 Total Coulomb        Energy = 224.11970892273217
    8    -218.2498427544      7.17e-06  
 Alpha HF Exchange    Energy =  -2.90143607770642
 Beta HF Exchange     Energy =  -2.71635235050785
 DFT Correlation      Energy =  -1.43914984182067
 DFT Exchange         Energy = -22.28239992390714
 One-Electron (alpha) Energy = -275.63549787174139
 One-Electron (beta)  Energy = -254.87989027418703
 Total Coulomb        Energy = 224.11978684706025
    9    -218.2498430672      1.15e-06  
 Alpha HF Exchange    Energy =  -2.90144091176924
 Beta HF Exchange     Energy =  -2.71635029148017
 DFT Correlation      Energy =  -1.43914944142523
 DFT Exchange         Energy = -22.28241140834894
 One-Electron (alpha) Energy = -275.63575595635672
 One-Electron (beta)  Energy = -254.87976036838040
 Total Coulomb        Energy = 224.11992887531440
   10    -218.2498430768      4.09e-07  Convergence criterion met
 ---------------------------------------
 SCF time:   CPU 23.45s  wall 3.00s 
<S^2> =          2.004273482
 Alpha HF Exchange    Energy =  -2.90144091176924
 Beta HF Exchange     Energy =  -2.71635029148017
 DFT Correlation      Energy =  -1.43914944142523
 DFT Exchange         Energy = -22.28241140834894
 One-Electron (alpha) Energy = -275.63575595635672
 One-Electron (beta)  Energy = -254.87976036838040
 Total Coulomb        Energy = 224.11992887531440
 Nuclear repulsion Energy = 117.48509642561801
 SCF   energy in the final basis set =     -218.2498430768
 Total energy in the final basis set =     -218.2498430768
 
 --------------------------------------------------------------
 
                    Orbital Energies (a.u.)
 --------------------------------------------------------------
 
 Alpha MOs
 -- Occupied --
-24.650 -10.217 -10.200 -10.195  -1.154  -0.800  -0.696  -0.583
 -0.514  -0.460  -0.448  -0.416  -0.407  -0.375  -0.365  -0.361
 -0.218  -0.214
 -- Virtual --
  0.102   0.116   0.140   0.156   0.164   0.171   0.220   0.240
  0.283   0.489   0.518   0.533   0.568   0.590   0.623   0.644
  0.681   0.735   0.774   0.807   0.844   0.862   0.877   0.894
  0.912   0.943   1.070   1.157   1.241   1.269   1.303   1.349
  1.436   1.518   1.589   1.608   1.662   1.755   1.770   1.837
  1.838   1.869   1.908   1.922   1.959   1.997   2.011   2.036
  2.085   2.149   2.273   2.343   2.371   2.402   2.441   2.545
  2.571   2.598   2.612   2.654   2.750   2.783   2.796   2.824
  2.844   2.973   3.172   3.287   3.342   3.407   3.456   3.471
  3.710   3.925   4.241   4.404   4.557
 
 Beta MOs
 -- Occupied --
-24.649 -10.205 -10.194 -10.187  -1.151  -0.770  -0.671  -0.553
 -0.504  -0.447  -0.428  -0.403  -0.393  -0.366  -0.363  -0.357
 -- Virtual --
 -0.079  -0.056   0.110   0.132   0.154   0.164   0.173   0.180
  0.237   0.256   0.299   0.497   0.549   0.564   0.581   0.626
  0.645   0.673   0.703   0.745   0.787   0.819   0.854   0.874
  0.885   0.910   0.920   0.956   1.095   1.162   1.243   1.279
  1.325   1.356   1.479   1.524   1.609   1.623   1.678   1.778
  1.784   1.855   1.866   1.883   1.916   1.934   2.000   2.007
  2.033   2.048   2.092   2.164   2.292   2.355   2.383   2.425
  2.466   2.568   2.590   2.609   2.636   2.662   2.753   2.794
  2.798   2.831   2.853   2.984   3.178   3.299   3.353   3.414
  3.464   3.484   3.713   3.927   4.266   4.428   4.574
 --------------------------------------------------------------
 
          Ground-State Mulliken Net Atomic Charges

     Atom                 Charge (a.u.)    Spin (a.u.)
  --------------------------------------------------------
      1 F                    -0.365036       0.032842
      2 C                    -0.180201       0.876736
      3 C                    -0.240695       1.008623
      4 C                    -0.326374      -0.035179
      5 H                     0.120056       0.001507
      6 H                     0.126009       0.058922
      7 H                     0.115298       0.003317
      8 H                     0.147091      -0.009884
      9 H                     0.116172       0.013091
     10 H                     0.351587       0.025232
     11 H                     0.136094       0.024794
  --------------------------------------------------------
  Sum of atomic charges =    -0.000000
  Sum of spin   charges =     2.000000

 -----------------------------------------------------------------
                    Cartesian Multipole Moments
 -----------------------------------------------------------------
    Charge (ESU x 10^10)
                 0.0000
    Dipole Moment (Debye)
         X      -1.1767      Y      -1.6275      Z       0.9185
       Tot       2.2084
    Quadrupole Moments (Debye-Ang)
        XX     -25.0481     XY      -1.5236     YY     -28.4869
        XZ      -0.0035     YZ       1.6906     ZZ     -24.8314
    Octopole Moments (Debye-Ang^2)
       XXX      17.5261    XXY      -0.5349    XYY       2.8009
       YYY      -7.7632    XXZ       1.5005    XYZ       0.9938
       YYZ       3.2708    XZZ       6.3403    YZZ       0.6158
       ZZZ       8.2146
    Hexadecapole Moments (Debye-Ang^3)
      XXXX    -224.7869   XXXY     -15.6080   XXYY     -72.4882
      XYYY     -23.5650   YYYY    -204.1216   XXXZ      10.3151
      XXYZ       3.2904   XYYZ       5.2874   YYYZ      10.7953
      XXZZ     -46.5842   XYZZ      -5.9846   YYZZ     -41.3658
      XZZZ      11.9709   YZZZ       2.1520   ZZZZ     -61.5096
 -----------------------------------------------------------------
 Calculating analytic gradient of the SCF energy
 Gradient of SCF Energy
            1           2           3           4           5           6
    1  -0.0002678  -0.0002446   0.0004060   0.0000747   0.0000752  -0.0000013
    2  -0.0068083   0.0000273   0.0068886   0.0000095   0.0000281   0.0000031
    3  -0.0003105  -0.0000145   0.0001842  -0.0000381  -0.0000083  -0.0000212
            7           8           9          10          11
    1  -0.0000498  -0.0000343  -0.0000233   0.0000508   0.0000144
    2  -0.0000209   0.0000055  -0.0000260  -0.0001200   0.0000132
    3   0.0000228  -0.0000223  -0.0000020   0.0001917   0.0000183
 Max gradient component =       6.889E-03
 RMS gradient           =       1.691E-03
 Gradient time:  CPU 7.42 s  wall 0.66 s
 Geometry Optimization Parameters
   NAtoms,    NIC,     NZ,  NCons,   NDum,   NFix, NCnnct, MaxDiis
       11      66       0       1       0       0       0       0

 Cartesian Hessian Update
 Hessian Updated using BFGS Update


** CONSTRAINED OPTIMIZATION IN DELOCALIZED INTERNAL COORDINATES **
   Searching for a Minimum

   Optimization Cycle:   7

                       Coordinates (Angstroms)
     ATOM                X               Y               Z
      1  F         0.7766288615    1.8619532037   -0.3508898713
      2  C        -0.3787311747   -0.5014381005    0.4698530732
      3  C         0.6868645209   -0.9355458996   -0.4279767421
      4  C        -1.7402684538   -0.1427647572   -0.0564347197
      5  H        -0.2940308058   -0.7286036262    1.5362015966
      6  H        -2.2555509234   -1.0287085466   -0.4615898904
      7  H         0.7182886409   -1.9645738155   -0.7883118152
      8  H         1.4383232402   -0.2512956440   -0.8054744232
      9  H        -2.3793995074    0.2822966794    0.7233057108
     10  H         0.3920223965    1.2875286181    0.2836448964
     11  H        -1.6572497949    0.5763508884   -0.8791328152
   Point Group: c1    Number of degrees of freedom:    27


   Energy is   -218.249843077

              Constraints and their Current Values
                                        Value     Constraint
   Distance(Angs):        1   3             2.800000     2.800000
 Hessian Updated using BFGS Update

 26 Hessian modes will be used to form the next step
  Hessian Eigenvalues:
     0.005919    0.044989    0.044994    0.045358    0.049520    0.063126
     0.081982    0.083359    0.093184    0.122888    0.143303    0.158712
     0.159926    0.160064    0.160192    0.162025    0.176538    0.318984
     0.334596    0.341261    0.343481    0.344120    0.347849    0.352942
     0.367462    0.621441

 Minimum Search - Taking Simple RFO Step
 Searching for Lamda that Minimizes Along All modes
 Value Taken    Lamda =  -0.00000112
 Step Taken.  Stepsize is  0.010571

                             Maximum     Tolerance    Cnvgd?
         Gradient           0.000115      0.000300     YES
         Displacement       0.008426      0.001200      NO
         Energy change     -0.000001      0.000001     YES


                       Distance Matrix (Angstroms)
             F (  1)   C (  2)   C (  3)   C (  4)   H (  5)   H (  6)
   C (  2)  2.755738
   C (  3)  2.800000  1.459466
   C (  4)  3.231156  1.503133  2.580217
   H (  5)  3.379114  1.093562  2.205216  2.229641
   H (  6)  4.190739  2.160568  2.944082  1.102072  2.815812
   H (  7)  3.851889  2.219729  1.090746  3.146289  2.820598  3.134695
   H (  8)  2.260599  2.233992  1.084155  3.267458  2.951664  3.790427
   H (  9)  3.689136  2.163597  3.494362  1.094148  2.455908  1.771454
   H ( 10)  0.938360  1.956818  2.352743  2.589992  2.470700  3.595827
   H ( 11)  2.802781  2.148488  2.825641  1.095834  3.065145  1.763100
             H (  7)   H (  8)   H (  9)   H ( 10)
   H (  8)  1.858512
   H (  9)  4.114497  4.146914
   H ( 10)  3.439725  2.156132  2.980700
   H ( 11)  3.479616  3.205152  1.782071  2.461167
 
 Final energy is   -218.249843076828     


 ******************************
 **  OPTIMIZATION CONVERGED  **
 ******************************

                       Coordinates (Angstroms)
     ATOM                X               Y               Z
      1  F         0.7766288615    1.8619532037   -0.3508898713
      2  C        -0.3787311747   -0.5014381005    0.4698530732
      3  C         0.6868645209   -0.9355458996   -0.4279767421
      4  C        -1.7402684538   -0.1427647572   -0.0564347197
      5  H        -0.2940308058   -0.7286036262    1.5362015966
      6  H        -2.2555509234   -1.0287085466   -0.4615898904
      7  H         0.7182886409   -1.9645738155   -0.7883118152
      8  H         1.4383232402   -0.2512956440   -0.8054744232
      9  H        -2.3793995074    0.2822966794    0.7233057108
     10  H         0.3920223965    1.2875286181    0.2836448964
     11  H        -1.6572497949    0.5763508884   -0.8791328152

Z-matrix Print:
$molecule
0 3
C 
H  1 1.093562
C  1 1.459466 2 118.785330
H  3 1.084155 1 122.177643 2 -102.496606 0
H  3 1.090746 1 120.323045 2 80.935836 0
C  1 1.503133 2 117.460674 3 161.849839 0
H  6 1.094148 1 111.857069 2 25.928193 0
H  6 1.095834 1 110.537682 2 147.492348 0
H  6 1.102072 1 111.125335 2 -94.261515 0
H  1 1.956818 2 104.607407 3 -93.193440 0
F  10 0.938360 1 141.761071 2 158.360313 0
$end

PES scan, value:    2.8000 energy: -218.2498430768
------- Summary of potential scan: ------ 
    2.8000      -218.2498430768
----------------------------------------- 
Archival summary:
1\1\hpc0244\JobtypUnspecified\ProcedureUnspecified\6-31G**\137(3)\knomura\WedMar1315:40:512019WedMar1315:40:512019\0\\#,JobtypUnspecified,ProcedureUnspecified,6-31G**,\\0,3\C\H,1,1.09356\C,1,1.45947,2,118.785\H,3,1.08416,1,122.178,2,-102.497,0\H,3,1.09075,1,120.323,2,80.9358,0\C,1,1.50313,2,117.461,3,161.85,0\H,6,1.09415,1,111.857,2,25.9282,0\H,6,1.09583,1,110.538,2,147.492,0\H,6,1.10207,1,111.125,2,-94.2615,0\H,1,1.95682,2,104.607,3,-93.1934,0\F,10,0.93836,1,141.761,2,158.36,0\\\@

 Total job time:  45.34s(wall), 269.15s(cpu) 
 Wed Mar 13 15:40:51 2019

        *************************************************************
        *                                                           *
        *  Thank you very much for using Q-Chem.  Have a nice day.  *
        *                                                           *
        *************************************************************


