
Running Job 1 of 1 halogens/Bromine/04/Br_1_4.xyz.data/inputs/bond_singlet_2.7.in
qchem halogens/Bromine/04/Br_1_4.xyz.data/inputs/bond_singlet_2.7.in_15385.0 /staging/scratch/2868759/qchem15385/ 1
/usr/usc/qchem/5.1.1/exe/qcprog.exe_s halogens/Bromine/04/Br_1_4.xyz.data/inputs/bond_singlet_2.7.in_15385.0 /staging/scratch/2868759/qchem15385/
Check license passed

                  Welcome to Q-Chem
     A Quantum Leap Into The Future Of Chemistry


 Q-Chem 5.1, Q-Chem, Inc., Pleasanton, CA (2018)

 Yihan Shao,  Zhengting Gan,  E. Epifanovsky,  A. T. B. Gilbert,  M. Wormit,  
 J. Kussmann,  A. W. Lange,  A. Behn,  Jia Deng,  Xintian Feng,  D. Ghosh,  
 M. Goldey,  P. R. Horn,  L. D. Jacobson,  I. Kaliman,  T. Kus,  A. Landau,  
 Jie Liu,  E. I. Proynov,  R. M. Richard,  R. P. Steele,  E. J. Sundstrom,  
 H. L. Woodcock III,  P. M. Zimmerman,  D. Zuev,  B. Albrecht,  E. Alguire,  
 S. A. Baeppler,  D. Barton,  Z. Benda,  Y. A. Bernard,  E. J. Berquist,  
 K. B. Bravaya,  H. Burton,  D. Casanova,  Chun-Min Chang,  Yunqing Chen,  
 A. Chien,  K. D. Closser,  M. P. Coons,  S. Coriani,  S. Dasgupta,  
 A. L. Dempwolff,  M. Diedenhofen,  Hainam Do,  R. G. Edgar,  Po-Tung Fang,  
 S. Faraji,  S. Fatehi,  Qingguo Feng,  K. D. Fenk,  J. Fosso-Tande,  
 Qinghui Ge,  A. Ghysels,  G. Gidofalvi,  J. Gomes,  J. Gonthier,  A. Gunina,  
 D. Hait,  M. W. D. Hanson-Heine,  P. H. P. Harbach,  A. W. Hauser,  
 J. E. Herr,  E. G. Hohenstein,  Z. C. Holden,  Kerwin Hui,  B. C. Huynh,  
 T.-C. Jagau,  Hyunjun Ji,  B. Kaduk,  K. Khistyaev,  Jaehoon Kim,  
 P. Klunzinger,  K. Koh,  D. Kosenkov,  L. Koulias,  T. Kowalczyk,  
 C. M. Krauter,  A. Kunitsa,  Ka Un Lao,  A. Laurent,  K. V. Lawler,  
 Joonho Lee,  D. Lefrancois,  S. Lehtola,  D. S. Levine,  Yi-Pei Li,  
 You-Sheng Lin,  Fenglai Liu,  E. Livshits,  A. Luenser,  P. Manohar,  
 E. Mansoor,  S. F. Manzer,  Shan-Ping Mao,  Yuezhi Mao,  N. Mardirossian,  
 A. V. Marenich,  T. Markovich,  L. A. Martinez-Martinez,  S. A. Maurer,  
 N. J. Mayhall,  S. C. McKenzie,  J.-M. Mewes,  A. F. Morrison,  
 J. W. Mullinax,  K. Nanda,  T. S. Nguyen-Beck,  R. Olivares-Amaya,  
 J. A. Parkhill,  T. M. Perrine,  F. Plasser,  P. Pokhilko,  S. Prager,  
 A. Prociuk,  E. Ramos,  D. R. Rehn,  F. Rob,  M. Schneider,  N. Sergueev,  
 S. M. Sharada,  S. Sharma,  D. W. Small,  T. Stauch,  T. Stein,  
 Yu-Chuan Su,  A. J. W. Thom,  A. Tkatchenko,  T. Tsuchimochi,  N. M. Tubman,  
 L. Vogt,  M. L. Vidal,  O. Vydrov,  M. A. Watson,  J. Wenzel,  
 M. de Wergifosse,  T. A. Wesolowski,  A. White,  J. Witte,  A. Yamada,  
 Jun Yang,  K. Yao,  S. Yeganeh,  S. R. Yost,  Zhi-Qiang You,  A. Zech,  
 Igor Ying Zhang,  Xing Zhang,  Yan Zhao,  Ying Zhu,  B. R. Brooks,  
 G. K. L. Chan,  C. J. Cramer,  M. S. Gordon,  W. J. Hehre,  A. Klamt,  
 M. W. Schmidt,  C. D. Sherrill,  D. G. Truhlar,  A. Aspuru-Guzik,  R. Baer,  
 A. T. Bell,  N. A. Besley,  Jeng-Da Chai,  A. E. DePrince, III,  
 R. A. DiStasio Jr.,  A. Dreuw,  B. D. Dunietz,  T. R. Furlani,  
 Chao-Ping Hsu,  Yousung Jung,  Jing Kong,  D. S. Lambrecht,  WanZhen Liang,  
 C. Ochsenfeld,  V. A. Rassolov,  L. V. Slipchenko,  J. E. Subotnik,  
 T. Van Voorhis,  J. M. Herbert,  A. I. Krylov,  P. M. W. Gill,  M. Head-Gordon

 Contributors to earlier versions of Q-Chem not listed above: 
 R. D. Adamson,  B. Austin,  J. Baker,  G. J. O. Beran,  K. Brandhorst,  
 S. T. Brown,  E. F. C. Byrd,  A. K. Chakraborty,  C.-L. Cheng,  
 Siu Hung Chien,  D. M. Chipman,  D. L. Crittenden,  H. Dachsel,  
 R. J. Doerksen,  A. D. Dutoi,  L. Fusti-Molnar,  W. A. Goddard III,  
 A. Golubeva-Zadorozhnaya,  S. R. Gwaltney,  G. Hawkins,  A. Heyden,  
 S. Hirata,  G. Kedziora,  F. J. Keil,  C. Kelley,  Jihan Kim,  R. A. King,  
 R. Z. Khaliullin,  P. P. Korambath,  W. Kurlancheek,  A. M. Lee,  M. S. Lee,  
 S. V. Levchenko,  Ching Yeh Lin,  D. Liotard,  R. C. Lochan,  I. Lotan,  
 P. E. Maslen,  N. Nair,  D. P. O'Neill,  D. Neuhauser,  E. Neuscamman,  
 C. M. Oana,  R. Olson,  B. Peters,  R. Peverati,  P. A. Pieniazek,  
 Y. M. Rhee,  J. Ritchie,  M. A. Rohrdanz,  E. Rosta,  N. J. Russ,  
 H. F. Schaefer III,  N. E. Schultz,  N. Shenvi,  A. C. Simmonett,  A. Sodt,  
 D. Stuck,  K. S. Thanthiriwatte,  V. Vanovschi,  Tao Wang,  A. Warshel,  
 C. F. Williams,  Q. Wu,  X. Xu,  W. Zhang

 Please cite Q-Chem as follows:
 Y. Shao et al., Mol. Phys. 113, 184-215 (2015)
 DOI: 10.1080/00268976.2014.952696

 Q-Chem 5.1.1 for Intel X86 EM64T Linux

 Parts of Q-Chem use Armadillo 8.300.2 (Tropical Shenanigans).
 http://arma.sourceforge.net/

 Q-Chem begins on Thu Mar 14 02:46:20 2019  

Host: 
0

     Scratch files written to /staging/scratch/2868759/qchem15385//
 Aug318 |scratch|qcdevops|jenkins|workspace|build_RNUM 6013   
Processing $rem in /usr/usc/qchem/5.1.1/config/preferences.
 MEM_TOTAL  2000 
Input Ideriv = 2
Curr. Ideriv = -1
Max.  Ideriv = 2

Checking the input file for inconsistencies... 	...done.

--------------------------------------------------------------
User input:
--------------------------------------------------------------

$comment
potential surface scanner
$end

$rem
JOBTYPE  PES_SCAN
UNRESTRICTED TRUE
SYM_IGNORE  TRUE
GEOM_OPT_MAX_CYCLES 400
SCF_MAX_CYCLES 400
METHOD   B3LYP
BASIS   6-31G**
PDB_PRINT 2
SCF_CONVERGENCE 6
THRESH 14
SCF_PRINT 1
$end
$molecule
0 1
Br -3.253610 0.749250 0.037478
Br 2.909060 0.554367 0.024890
C 0.031619 0.200146 0.015886
C -1.124530 -0.742334 -0.009320
C 1.330727 -0.629623 -0.003201
H 0.005652 0.814988 0.917736
H 0.007315 0.860517 -0.853234
H -1.379659 -1.240421 -0.938864
H -1.380180 -1.287740 0.893103
H 1.427333 -1.229471 -0.908058
H 1.426178 -1.270977 0.872985
$end
$scan
stre 1 4 2.700000 2.701000 0.100000
$end
--------------------------------------------------------------
 ----------------------------------------------------------------
             Standard Nuclear Orientation (Angstroms)
    I     Atom           X                Y                Z
 ----------------------------------------------------------------
    1      Br     -3.2536100000     0.7492500000     0.0374780000
    2      Br      2.9090600000     0.5543670000     0.0248900000
    3      C       0.0316190000     0.2001460000     0.0158860000
    4      C      -1.1245300000    -0.7423340000    -0.0093200000
    5      C       1.3307270000    -0.6296230000    -0.0032010000
    6      H       0.0056520000     0.8149880000     0.9177360000
    7      H       0.0073150000     0.8605170000    -0.8532340000
    8      H      -1.3796590000    -1.2404210000    -0.9388640000
    9      H      -1.3801800000    -1.2877400000     0.8931030000
   10      H       1.4273330000    -1.2294710000    -0.9080580000
   11      H       1.4261780000    -1.2709770000     0.8729850000
 ----------------------------------------------------------------
 Nuclear Repulsion Energy =   460.5920004061 hartrees
 There are       47 alpha and       47 beta electrons
 Requested basis set is 6-31G(d,p)
 There are 46 shells and 145 basis functions

 Total QAlloc Memory Limit   2000 MB
 Mega-Array Size       188 MB
 MEM_STATIC part       192 MB
A total of 1 constraints
  
            1
    1   1.0100000
    2   1.0100000
    3   4.0100000
    4   2.7000000
    5   2.7010000
    6   0.1000000
    7   0.0000000
    8   0.0000000
    9   0.0000000
   10   0.0000000

                       Distance Matrix (Angstroms)
             Br(  1)   Br(  2)   C (  3)   C (  4)   C (  5)   H (  6)
   Br(  2)  6.165763
   C (  3)  3.330872  2.899176
   C (  4)  2.599999  4.237033  1.491839
   C (  5)  4.787389  1.973260  1.541610  2.457850
   H (  6)  3.376679  3.048750  1.091805  2.135883  2.165837
   H (  7)  3.382215  3.047122  1.091810  2.135976  2.166678  1.771556
   H (  8)  2.902366  4.747968  2.231252  1.085004  2.931677  3.096895
   H (  9)  2.896750  4.748129  2.230805  1.084985  2.930102  2.518452
   H ( 10)  5.169197  2.499597  2.201248  2.749007  1.089916  3.087801
   H ( 11)  5.165250  2.500017  2.200822  2.750279  1.090022  2.524113
             H (  7)   H (  8)   H (  9)   H ( 10)
   H (  8)  2.518922
   H (  9)  3.096747  1.832578
   H ( 10)  2.527352  2.807182  3.336121
   H ( 11)  3.088085  3.340128  2.806480  1.781527
 
 A cutoff of  1.0D-14 yielded    947 shell pairs
 There are      9114 function pairs
 
 -------------------------------------------------------
 OpenMP Integral Computing Module                       
 Release: version 1.0, May 2013, Q-Chem Inc. Pittsburgh 
 -------------------------------------------------------
 Integral Job Info:
 Integral job number is                      11
 Integral operator is                         1
 short-range coefficients                     0
 long-range coefficients              100000000
 Omega coefficients                           0
 if combine SR and LR in K                    0
 Integral screening is                        0
 Integral computing path is                   2
 max size of driver memory is            800000
 size of driver memory is                593474
 size of scratch memory is             15267112
 max col of scratch BK array               1296
 max len of scratch array in speh3          155
 max len of scratch index in speh4           18
 max int batch size is                      520
 min int batch size is                       52
 fixed nKL is                                52
 max L of basis functions is                  2
 order of int derivative is                   0
 number of shells is                         46
 number of basis is                         145
 number of cartesian basis is               145
 number of contracted shell pairs           947
 number of primitive shell pairs           4070
 maxK2 (contraction) of shell pair           36
 max number of K2 of shell pair               1
 max number of CS2 of shell pair             68
 max number of PS2 of shell pair            408
 mem total for path MDJ                  527196
 -------------------------------------------------------
 Smallest overlap matrix eigenvalue = 7.23E-04

 Scale SEOQF with 1.000000e-01/1.000000e+00/1.000000e+00

 Standard Electronic Orientation quadrupole field applied
 Nucleus-field energy     =     0.0000000509 hartrees
 Guess from superposition of atomic densities
 Warning:  Energy on first SCF cycle will be non-variational
 SAD guess density has 93.945746 electrons

 -----------------------------------------------------------------------
  General SCF calculation program by
  Eric Jon Sundstrom, Paul Horn, Yuezhi Mao, Dmitri Zuev, Alec White,
  David Stuck, Shaama M.S., Shane Yost, Joonho Lee, David Small,
  Daniel Levine, Susi Lehtola, Hugh Burton, Evgeny Epifanovsky
 -----------------------------------------------------------------------
 Exchange:     0.2000 Hartree-Fock + 0.0800 Slater + 0.7200 B88
 Correlation:  0.1900 VWN1RPA + 0.8100 LYP
 Using SG-1 standard quadrature grid
 using 12 threads for integral computing
 -------------------------------------------------------
 OpenMP Integral computing Module                
 Release: version 1.0, May 2013, Q-Chem Inc. Pittsburgh 
 -------------------------------------------------------
 -------------------------------------------------------
 OpenMP BLAS3 based DFT computing Module                
 Release: version 1.0, May 2013, Q-Chem Inc. Pittsburgh 
 -------------------------------------------------------
 A unrestricted SCF calculation will be
 performed using DIIS
 SCF converges when DIIS error is below 1.0e-06
 Alpha HF Exchange    Energy = -19.61459107862551
 Beta HF Exchange     Energy = -19.61459107862551
 DFT Correlation      Energy =  -5.20143136017421
 DFT Exchange         Energy = -155.87803504279105
 One-Electron (alpha) Energy = -4117.05630491760621
 One-Electron (beta)  Energy = -4117.05630491760621
 Total Coulomb        Energy = 2701.25006905946429
 ---------------------------------------
  Cycle       Energy         DIIS error
 ---------------------------------------
    1   -5272.5791888789      1.83e-01  
 Alpha HF Exchange    Energy = -19.73049997511953
 Beta HF Exchange     Energy = -19.73049997511951
 DFT Correlation      Energy =  -5.24988363808024
 DFT Exchange         Energy = -157.03233147338688
 One-Electron (alpha) Energy = -4127.71706345243001
 One-Electron (beta)  Energy = -4127.71706345242819
 Total Coulomb        Energy = 2731.06745177181165
    2   -5265.5178897377      1.04e-02  
 Alpha HF Exchange    Energy = -19.59048800130435
 Beta HF Exchange     Energy = -19.59048800130439
 DFT Correlation      Energy =  -5.21979750746494
 DFT Exchange         Energy = -155.94946949357774
 One-Electron (alpha) Energy = -4109.45385829434690
 One-Electron (beta)  Energy = -4109.45385829434781
 Total Coulomb        Energy = 2693.41318200362412
    3   -5265.2527771317      6.09e-03  
 Alpha HF Exchange    Energy = -19.70113121181527
 Beta HF Exchange     Energy = -19.70113121181527
 DFT Correlation      Energy =  -5.23432651537992
 DFT Exchange         Energy = -156.75500943480799
 One-Electron (alpha) Energy = -4125.43809371394309
 One-Electron (beta)  Energy = -4125.43809371394309
 Total Coulomb        Energy = 2726.36712037169082
    4   -5265.3086649730      5.32e-03  
 Alpha HF Exchange    Energy = -19.66754420881918
 Beta HF Exchange     Energy = -19.66754420881917
 DFT Correlation      Energy =  -5.23657237985347
 DFT Exchange         Energy = -156.55379418435189
 One-Electron (alpha) Energy = -4120.50608489538990
 One-Electron (beta)  Energy = -4120.50608489539081
 Total Coulomb        Energy = 2715.87960894456683
    5   -5265.6660153710      8.69e-04  
 Alpha HF Exchange    Energy = -19.65328005115495
 Beta HF Exchange     Energy = -19.65328005115495
 DFT Correlation      Energy =  -5.23108401394779
 DFT Exchange         Energy = -156.43197035542840
 One-Electron (alpha) Energy = -4119.27495588730471
 One-Electron (beta)  Energy = -4119.27495588730471
 Total Coulomb        Energy = 2713.25606585981177
    6   -5265.6714599295      4.18e-04  
 Alpha HF Exchange    Energy = -19.65560377172237
 Beta HF Exchange     Energy = -19.65560377172238
 DFT Correlation      Energy =  -5.23239755588170
 DFT Exchange         Energy = -156.45462377045280
 One-Electron (alpha) Energy = -4119.30708655311446
 One-Electron (beta)  Energy = -4119.30708655311628
 Total Coulomb        Energy = 2713.34706656138769
    7   -5265.6733349576      1.42e-04  
 Alpha HF Exchange    Energy = -19.65643013359904
 Beta HF Exchange     Energy = -19.65643013359906
 DFT Correlation      Energy =  -5.23246273682998
 DFT Exchange         Energy = -156.46035608688302
 One-Electron (alpha) Energy = -4119.44483587184641
 One-Electron (beta)  Energy = -4119.44483587184732
 Total Coulomb        Energy = 2713.62978549885838
    8   -5265.6735648787      3.67e-05  
 Alpha HF Exchange    Energy = -19.65651657425636
 Beta HF Exchange     Energy = -19.65651657425637
 DFT Correlation      Energy =  -5.23248701169319
 DFT Exchange         Energy = -156.46080416877518
 One-Electron (alpha) Energy = -4119.46576609581825
 One-Electron (beta)  Energy = -4119.46576609582007
 Total Coulomb        Energy = 2713.67227226402565
    9   -5265.6735837996      5.41e-06  
 Alpha HF Exchange    Energy = -19.65652478884169
 Beta HF Exchange     Energy = -19.65652478884170
 DFT Correlation      Energy =  -5.23248373059737
 DFT Exchange         Energy = -156.46083311194934
 One-Electron (alpha) Energy = -4119.46758018104902
 One-Electron (beta)  Energy = -4119.46758018104993
 Total Coulomb        Energy = 2713.67594222942171
   10   -5265.6735840959      2.20e-06  
 Alpha HF Exchange    Energy = -19.65653022412873
 Beta HF Exchange     Energy = -19.65653022412877
 DFT Correlation      Energy =  -5.23248408641367
 DFT Exchange         Energy = -156.46087428803068
 One-Electron (alpha) Energy = -4119.46809762618886
 One-Electron (beta)  Energy = -4119.46809762619250
 Total Coulomb        Energy = 2713.67702947388352
   11   -5265.6735841442      3.76e-07  Convergence criterion met
 ---------------------------------------
 SCF time:   CPU 43.30s  wall 3.00s 
<S^2> =          0.000000000
 Alpha HF Exchange    Energy = -19.65653022412873
 Beta HF Exchange     Energy = -19.65653022412877
 DFT Correlation      Energy =  -5.23248408641367
 DFT Exchange         Energy = -156.46087428803068
 One-Electron (alpha) Energy = -4119.46809762618886
 One-Electron (beta)  Energy = -4119.46809762619250
 Total Coulomb        Energy = 2713.67702947388352
 Nuclear repulsion Energy = 460.59200045703204
 SCF   energy in the final basis set =    -5265.6735841442
 Total energy in the final basis set =    -5265.6735841442
 
 --------------------------------------------------------------
 
                    Orbital Energies (a.u.)
 --------------------------------------------------------------
 
 Alpha MOs
 -- Occupied --
*******-482.833 -62.529 -62.491 -56.351 -56.347 -56.347 -56.312
-56.308 -56.308 -10.297 -10.277 -10.239  -8.716  -8.676  -6.547
 -6.533  -6.533  -6.505  -6.494  -6.494  -2.640  -2.636  -2.636
 -2.626  -2.626  -2.599  -2.596  -2.596  -2.586  -2.586  -0.860
 -0.796  -0.724  -0.690  -0.635  -0.529  -0.469  -0.466  -0.446
 -0.393  -0.390  -0.309  -0.296  -0.294  -0.265  -0.264
 -- Virtual --
 -0.128  -0.016   0.066   0.095   0.097   0.122   0.134   0.168
  0.174   0.209   0.227   0.238   0.322   0.330   0.336   0.354
  0.356   0.371   0.451   0.458   0.476   0.501   0.533   0.550
  0.559   0.580   0.583   0.613   0.633   0.637   0.657   0.734
  0.739   0.768   0.784   0.814   0.819   0.835   0.859   0.887
  0.889   0.913   1.072   1.112   1.250   1.275   1.366   1.488
  1.529   1.616   1.630   1.711   1.770   1.787   1.828   1.920
  1.929   2.022   2.028   2.080   2.154   2.174   2.202   2.291
  2.297   2.428   2.435   2.466   2.579   2.589   2.686   2.736
  2.755   2.798   2.835   3.172   3.218   3.328   3.329   3.436
  3.486   4.183   4.346   4.547   4.708   4.723   4.743   4.746
  4.751   4.757   4.790   4.793   4.879   4.964   6.280   6.297
 90.263  90.338
 
 Beta MOs
 -- Occupied --
*******-482.833 -62.529 -62.491 -56.351 -56.347 -56.347 -56.312
-56.308 -56.308 -10.297 -10.277 -10.239  -8.716  -8.676  -6.547
 -6.533  -6.533  -6.505  -6.494  -6.494  -2.640  -2.636  -2.636
 -2.626  -2.626  -2.599  -2.596  -2.596  -2.586  -2.586  -0.860
 -0.796  -0.724  -0.690  -0.635  -0.529  -0.469  -0.466  -0.446
 -0.393  -0.390  -0.309  -0.296  -0.294  -0.265  -0.264
 -- Virtual --
 -0.128  -0.016   0.066   0.095   0.097   0.122   0.134   0.168
  0.174   0.209   0.227   0.238   0.322   0.330   0.336   0.354
  0.356   0.371   0.451   0.458   0.476   0.501   0.533   0.550
  0.559   0.580   0.583   0.613   0.633   0.637   0.657   0.734
  0.739   0.768   0.784   0.814   0.819   0.835   0.859   0.887
  0.889   0.913   1.072   1.112   1.250   1.275   1.366   1.488
  1.529   1.616   1.630   1.711   1.770   1.787   1.828   1.920
  1.929   2.022   2.028   2.080   2.154   2.174   2.202   2.291
  2.297   2.428   2.435   2.466   2.579   2.589   2.686   2.736
  2.755   2.798   2.835   3.172   3.218   3.328   3.329   3.436
  3.486   4.183   4.346   4.547   4.708   4.723   4.743   4.746
  4.751   4.757   4.790   4.793   4.879   4.964   6.280   6.297
 90.263  90.338
 --------------------------------------------------------------
 
          Ground-State Mulliken Net Atomic Charges

     Atom                 Charge (a.u.)    Spin (a.u.)
  --------------------------------------------------------
      1 Br                   -0.306252      -0.000000
      2 Br                   -0.076672       0.000000
      3 C                    -0.196553      -0.000000
      4 C                    -0.171704       0.000000
      5 C                    -0.273374       0.000000
      6 H                     0.167119       0.000000
      7 H                     0.166984       0.000000
      8 H                     0.181909      -0.000000
      9 H                     0.182135      -0.000000
     10 H                     0.163166      -0.000000
     11 H                     0.163242       0.000000
  --------------------------------------------------------
  Sum of atomic charges =     0.000000
  Sum of spin   charges =     0.000000

 -----------------------------------------------------------------
                    Cartesian Multipole Moments
 -----------------------------------------------------------------
    Charge (ESU x 10^10)
                 0.0000
    Dipole Moment (Debye)
         X       2.3545      Y      -3.0845      Z      -0.0876
       Tot       3.8815
    Quadrupole Moments (Debye-Ang)
        XX     -74.5474     XY       2.6475     YY     -54.8470
        XZ       0.1226     YZ      -0.0097     ZZ     -55.8820
    Octopole Moments (Debye-Ang^2)
       XXX      51.8866    XXY     -21.0770    XYY       8.4782
       YYY     -51.7075    XXZ      -1.5545    XYZ       0.0443
       YYZ      -1.0835    XZZ       7.2679    YZZ     -19.2484
       ZZZ      -3.7437
    Hexadecapole Moments (Debye-Ang^3)
      XXXX   -2455.8165   XXXY      70.2695   XXYY    -411.4892
      XYYY      52.8828   YYYY    -221.8370   XXXZ       3.6821
      XXYZ      -0.2069   XYYZ       0.9396   YYYZ      -2.8361
      XXZZ    -414.4082   XYZZ      17.7389   YYZZ     -48.0364
      XZZZ       2.9901   YZZZ      -2.4832   ZZZZ     -83.9786
 -----------------------------------------------------------------
 Calculating analytic gradient of the SCF energy
 Gradient of SCF Energy
            1           2           3           4           5           6
    1  -0.0360838   0.0000146  -0.0001055   0.0362066  -0.0000222   0.0000351
    2   0.0253727  -0.0000532   0.0000310  -0.0252360  -0.0000745   0.0000057
    3   0.0007357   0.0000231  -0.0000070  -0.0007852  -0.0000041  -0.0000083
            7           8           9          10          11
    1   0.0000141  -0.0000006  -0.0000469   0.0000057  -0.0000170
    2   0.0000150  -0.0000452   0.0000101  -0.0000148  -0.0000109
    3   0.0000062   0.0000094  -0.0000079   0.0000164   0.0000216
 Max gradient component =       3.621E-02
 RMS gradient           =       1.086E-02
 Gradient time:  CPU 15.23 s  wall 1.35 s
 Geometry Optimization Parameters
   NAtoms,    NIC,     NZ,  NCons,   NDum,   NFix, NCnnct, MaxDiis
       11      68       0       1       0       0       0       0


** CONSTRAINED OPTIMIZATION IN DELOCALIZED INTERNAL COORDINATES **
   Searching for a Minimum

   Optimization Cycle:   1

                       Coordinates (Angstroms)
     ATOM                X               Y               Z
      1  Br       -3.2536100000    0.7492500000    0.0374780000
      2  Br        2.9090600000    0.5543670000    0.0248900000
      3  C         0.0316190000    0.2001460000    0.0158860000
      4  C        -1.1245300000   -0.7423340000   -0.0093200000
      5  C         1.3307270000   -0.6296230000   -0.0032010000
      6  H         0.0056520000    0.8149880000    0.9177360000
      7  H         0.0073150000    0.8605170000   -0.8532340000
      8  H        -1.3796590000   -1.2404210000   -0.9388640000
      9  H        -1.3801800000   -1.2877400000    0.8931030000
     10  H         1.4273330000   -1.2294710000   -0.9080580000
     11  H         1.4261780000   -1.2709770000    0.8729850000
   Point Group: c1    Number of degrees of freedom:    27


   Energy is  -5265.673584144

              Constraints and their Current Values
                                        Value     Constraint
   Distance(Angs):        1   4             2.599999     2.700000

 Attempting to Generate Delocalized Internal Coordinates

   Using Lagrange Multiplier Algorithm


 28 Hessian modes will be used to form the next step
  Hessian Eigenvalues:
    -0.978018    0.045000    0.045000    0.068507    0.071818    0.079417
     0.082760    0.083411    0.087638    0.097996    0.127705    0.160000
     0.160000    0.160000    0.160000    0.161320    0.219083    0.220330
     0.222638    0.283768    0.332488    0.346042    0.346049    0.348101
     0.348224    0.353964    0.353987    1.022476

 Minimum Search - Taking P-RFO Step
 Searching for Lamda that Maximizes Along the Constraint modes Only
 Value Taken    Lamda =   0.02738734
 Searching for Lamda that Minimizes Along All other modes
 Value Taken    Lamda =  -0.00980466
 Step Taken.  Stepsize is  0.185080

                             Maximum     Tolerance    Cnvgd?
         Gradient            0.188975       0.000300      NO
         Displacement        0.185075       0.001200      NO
         Energy change     *********       0.000001      NO


 New Cartesian Coordinates Obtained by Inverse Iteration

 Displacement from previous Coordinates is:  0.174252
 ----------------------------------------------------------------
             Standard Nuclear Orientation (Angstroms)
    I     Atom           X                Y                Z
 ----------------------------------------------------------------
    1      Br     -3.3296276524     0.7916650549     0.0393374546
    2      Br      2.9142292295     0.5568495004     0.0250019804
    3      C       0.0377944964     0.1950091810     0.0155934892
    4      C      -1.1162447450    -0.7502132882    -0.0097339233
    5      C       1.3390388391    -0.6313321658    -0.0031547001
    6      H       0.0100977220     0.8098181864     0.9174154220
    7      H       0.0119789914     0.8552158214    -0.8536063189
    8      H      -1.3701499810    -1.2486432163    -0.9394055429
    9      H      -1.3704865152    -1.2962400089     0.8926903976
   10      H       1.4373121002    -1.2311120630    -0.9078831065
   11      H       1.4359625150    -1.2723150020     0.8731458479
 ----------------------------------------------------------------
 Nuclear Repulsion Energy =   455.5736164635 hartrees
 There are       47 alpha and       47 beta electrons

                       Distance Matrix (Angstroms)
             Br(  1)   Br(  2)   C (  3)   C (  4)   C (  5)   H (  6)
   Br(  2)  6.248287
   C (  3)  3.419955  2.899119
   C (  4)  2.697936  4.237256  1.491943
   C (  5)  4.880899  1.973270  1.541567  2.458169
   H (  6)  3.453276  3.048668  1.091806  2.135873  2.165744
   H (  7)  3.459440  3.046971  1.091809  2.135980  2.166606  1.771604
   H (  8)  2.993384  4.748241  2.231247  1.084984  2.932123  3.096794
   H (  9)  2.987607  4.748222  2.230780  1.084967  2.930216  2.518354
   H ( 10)  5.264273  2.499673  2.201200  2.749289  1.089921  3.087726
   H ( 11)  5.259857  2.500093  2.200752  2.750605  1.090026  2.523951
             H (  7)   H (  8)   H (  9)   H ( 10)
   H (  8)  2.518703
   H (  9)  3.096696  1.832714
   H ( 10)  2.527308  2.807694  3.336171
   H ( 11)  3.088007  3.340684  2.806619  1.781506
 
 Applying Cartesian multipole field
    Component          Value
    ---------          -----
     (2,0,0)        1.00000E-11
     (0,2,0)        2.00000E-10
     (0,0,2)       -3.00000E-10
 Nucleus-field energy     =     0.0000000534 hartrees
 Requested basis set is 6-31G(d,p)
 There are 46 shells and 145 basis functions
 A cutoff of  1.0D-14 yielded    946 shell pairs
 There are      9078 function pairs
 Smallest overlap matrix eigenvalue = 7.23E-04
 Guess from superposition of atomic densities
 Warning:  Energy on first SCF cycle will be non-variational
 SAD guess density has 93.945746 electrons

 -----------------------------------------------------------------------
  General SCF calculation program by
  Eric Jon Sundstrom, Paul Horn, Yuezhi Mao, Dmitri Zuev, Alec White,
  David Stuck, Shaama M.S., Shane Yost, Joonho Lee, David Small,
  Daniel Levine, Susi Lehtola, Hugh Burton, Evgeny Epifanovsky
 -----------------------------------------------------------------------
 Exchange:     0.2000 Hartree-Fock + 0.0800 Slater + 0.7200 B88
 Correlation:  0.1900 VWN1RPA + 0.8100 LYP
 Using SG-1 standard quadrature grid
 using 12 threads for integral computing
 -------------------------------------------------------
 OpenMP Integral computing Module                
 Release: version 1.0, May 2013, Q-Chem Inc. Pittsburgh 
 -------------------------------------------------------
 -------------------------------------------------------
 OpenMP BLAS3 based DFT computing Module                
 Release: version 1.0, May 2013, Q-Chem Inc. Pittsburgh 
 -------------------------------------------------------
 A unrestricted SCF calculation will be
 performed using DIIS
 SCF converges when DIIS error is below 1.0e-06
 Alpha HF Exchange    Energy = -19.61267296077335
 Beta HF Exchange     Energy = -19.61267296077335
 DFT Correlation      Energy =  -5.20018043887728
 DFT Exchange         Energy = -155.87445123710486
 One-Electron (alpha) Energy = -4112.04165916715738
 One-Electron (beta)  Energy = -4112.04165916715738
 Total Coulomb        Energy = 2696.25698748579134
 ---------------------------------------
  Cycle       Energy         DIIS error
 ---------------------------------------
    1   -5272.5526919291      1.83e-01  
 Alpha HF Exchange    Energy = -19.73082707334352
 Beta HF Exchange     Energy = -19.73082707334353
 DFT Correlation      Energy =  -5.24869146183983
 DFT Exchange         Energy = -157.03245454004329
 One-Electron (alpha) Energy = -4122.87486008566793
 One-Electron (beta)  Energy = -4122.87486008566884
 Total Coulomb        Energy = 2726.42213061931852
    2   -5265.4967731837      1.04e-02  
 Alpha HF Exchange    Energy = -19.59099688560524
 Beta HF Exchange     Energy = -19.59099688560524
 DFT Correlation      Energy =  -5.21910141341939
 DFT Exchange         Energy = -155.94953385431688
 One-Electron (alpha) Energy = -4103.78378326231541
 One-Electron (beta)  Energy = -4103.78378326231541
 Total Coulomb        Energy = 2687.23816784950759
    3   -5265.1064111971      6.70e-03  
 Alpha HF Exchange    Energy = -19.69921471702022
 Beta HF Exchange     Energy = -19.69921471702020
 DFT Correlation      Energy =  -5.23209282799789
 DFT Exchange         Energy = -156.73609738304833
 One-Electron (alpha) Energy = -4120.44218588050535
 One-Electron (beta)  Energy = -4120.44218588050444
 Total Coulomb        Energy = 2721.43954585260099
    4   -5265.2378290366      5.64e-03  
 Alpha HF Exchange    Energy = -19.66747037306477
 Beta HF Exchange     Energy = -19.66747037306476
 DFT Correlation      Energy =  -5.23524950725426
 DFT Exchange         Energy = -156.55275847527895
 One-Electron (alpha) Energy = -4115.73463688192078
 One-Electron (beta)  Energy = -4115.73463688192078
 Total Coulomb        Energy = 2711.36009439883446
    5   -5265.6585115767      8.10e-04  
 Alpha HF Exchange    Energy = -19.65146210913980
 Beta HF Exchange     Energy = -19.65146210913978
 DFT Correlation      Energy =  -5.22961296900178
 DFT Exchange         Energy = -156.42147222113772
 One-Electron (alpha) Energy = -4114.15485645566332
 One-Electron (beta)  Energy = -4114.15485645566150
 Total Coulomb        Energy = 2708.02697807575078
    6   -5265.6631277271      4.50e-04  
 Alpha HF Exchange    Energy = -19.65424880586076
 Beta HF Exchange     Energy = -19.65424880586074
 DFT Correlation      Energy =  -5.23117796266253
 DFT Exchange         Energy = -156.44764704664581
 One-Electron (alpha) Energy = -4114.25614686348672
 One-Electron (beta)  Energy = -4114.25614686348490
 Total Coulomb        Energy = 2708.26091663459283
    7   -5265.6650831965      1.74e-04  
 Alpha HF Exchange    Energy = -19.65521925557189
 Beta HF Exchange     Energy = -19.65521925557188
 DFT Correlation      Energy =  -5.23124668533544
 DFT Exchange         Energy = -156.45429856464020
 One-Electron (alpha) Energy = -4114.41730987617393
 One-Electron (beta)  Energy = -4114.41730987617211
 Total Coulomb        Energy = 2708.59156946003804
    8   -5265.6654175365      3.90e-05  
 Alpha HF Exchange    Energy = -19.65529344201991
 Beta HF Exchange     Energy = -19.65529344201987
 DFT Correlation      Energy =  -5.23125276921765
 DFT Exchange         Energy = -156.45456056793316
 One-Electron (alpha) Energy = -4114.43899946757210
 One-Electron (beta)  Energy = -4114.43899946756846
 Total Coulomb        Energy = 2708.63534363251983
    9   -5265.6654390069      7.03e-06  
 Alpha HF Exchange    Energy = -19.65531897914551
 Beta HF Exchange     Energy = -19.65531897914552
 DFT Correlation      Energy =  -5.23125278800961
 DFT Exchange         Energy = -156.45473396180284
 One-Electron (alpha) Energy = -4114.44194237681677
 One-Electron (beta)  Energy = -4114.44194237681859
 Total Coulomb        Energy = 2708.64145347452495
   10   -5265.6654394703      1.98e-06  
 Alpha HF Exchange    Energy = -19.65532533997871
 Beta HF Exchange     Energy = -19.65532533997872
 DFT Correlation      Energy =  -5.23125288407910
 DFT Exchange         Energy = -156.45477563067709
 One-Electron (alpha) Energy = -4114.44277824040455
 One-Electron (beta)  Energy = -4114.44277824040637
 Total Coulomb        Energy = 2708.64317964278052
   11   -5265.6654395158      5.57e-07  Convergence criterion met
 ---------------------------------------
 SCF time:   CPU 43.23s  wall 4.00s 
<S^2> =          0.000000000
 Alpha HF Exchange    Energy = -19.65532533997871
 Beta HF Exchange     Energy = -19.65532533997872
 DFT Correlation      Energy =  -5.23125288407910
 DFT Exchange         Energy = -156.45477563067709
 One-Electron (alpha) Energy = -4114.44277824040455
 One-Electron (beta)  Energy = -4114.44277824040637
 Total Coulomb        Energy = 2708.64317964278052
 Nuclear repulsion Energy = 455.57361651692281
 SCF   energy in the final basis set =    -5265.6654395158
 Total energy in the final basis set =    -5265.6654395158
 
 --------------------------------------------------------------
 
                    Orbital Energies (a.u.)
 --------------------------------------------------------------
 
 Alpha MOs
 -- Occupied --
*******-482.830 -62.531 -62.488 -56.352 -56.349 -56.348 -56.309
-56.305 -56.305 -10.301 -10.280 -10.241  -8.718  -8.673  -6.549
 -6.535  -6.535  -6.502  -6.491  -6.491  -2.642  -2.638  -2.638
 -2.628  -2.628  -2.596  -2.593  -2.593  -2.583  -2.583  -0.862
 -0.798  -0.720  -0.692  -0.637  -0.531  -0.472  -0.469  -0.448
 -0.395  -0.392  -0.306  -0.298  -0.292  -0.262  -0.261
 -- Virtual --
 -0.138  -0.018   0.064   0.094   0.095   0.120   0.132   0.166
  0.173   0.207   0.226   0.237   0.320   0.328   0.335   0.354
  0.356   0.375   0.453   0.457   0.478   0.503   0.532   0.543
  0.555   0.581   0.581   0.614   0.635   0.641   0.656   0.722
  0.730   0.763   0.781   0.810   0.817   0.832   0.857   0.883
  0.885   0.907   1.057   1.105   1.235   1.272   1.362   1.480
  1.526   1.614   1.628   1.709   1.770   1.783   1.822   1.917
  1.924   2.019   2.026   2.076   2.150   2.172   2.200   2.288
  2.293   2.426   2.430   2.458   2.574   2.586   2.684   2.734
  2.752   2.795   2.832   3.169   3.215   3.326   3.326   3.433
  3.484   4.177   4.339   4.541   4.706   4.721   4.746   4.748
  4.749   4.754   4.788   4.791   4.862   4.962   6.278   6.298
 90.258  90.336
 
 Beta MOs
 -- Occupied --
*******-482.830 -62.531 -62.488 -56.352 -56.349 -56.348 -56.309
-56.305 -56.305 -10.301 -10.280 -10.241  -8.718  -8.673  -6.549
 -6.535  -6.535  -6.502  -6.491  -6.491  -2.642  -2.638  -2.638
 -2.628  -2.628  -2.596  -2.593  -2.593  -2.583  -2.583  -0.862
 -0.798  -0.720  -0.692  -0.637  -0.531  -0.472  -0.469  -0.448
 -0.395  -0.392  -0.306  -0.298  -0.292  -0.262  -0.261
 -- Virtual --
 -0.138  -0.018   0.064   0.094   0.095   0.120   0.132   0.166
  0.173   0.207   0.226   0.237   0.320   0.328   0.335   0.354
  0.356   0.375   0.453   0.457   0.478   0.503   0.532   0.543
  0.555   0.581   0.581   0.614   0.635   0.641   0.656   0.722
  0.730   0.763   0.781   0.810   0.817   0.832   0.857   0.883
  0.885   0.907   1.057   1.105   1.235   1.272   1.362   1.480
  1.526   1.614   1.628   1.709   1.770   1.783   1.822   1.917
  1.924   2.019   2.026   2.076   2.150   2.172   2.200   2.288
  2.293   2.426   2.430   2.458   2.574   2.586   2.684   2.734
  2.752   2.795   2.832   3.169   3.215   3.326   3.326   3.433
  3.484   4.177   4.339   4.541   4.706   4.721   4.746   4.748
  4.749   4.754   4.788   4.791   4.862   4.962   6.278   6.298
 90.258  90.336
 --------------------------------------------------------------
 
          Ground-State Mulliken Net Atomic Charges

     Atom                 Charge (a.u.)    Spin (a.u.)
  --------------------------------------------------------
      1 Br                   -0.328086      -0.000000
      2 Br                   -0.073045       0.000000
      3 C                    -0.201441       0.000000
      4 C                    -0.154549      -0.000000
      5 C                    -0.274084      -0.000000
      6 H                     0.169315       0.000000
      7 H                     0.169138      -0.000000
      8 H                     0.182057       0.000000
      9 H                     0.182273      -0.000000
     10 H                     0.164170       0.000000
     11 H                     0.164251      -0.000000
  --------------------------------------------------------
  Sum of atomic charges =    -0.000000
  Sum of spin   charges =    -0.000000

 -----------------------------------------------------------------
                    Cartesian Multipole Moments
 -----------------------------------------------------------------
    Charge (ESU x 10^10)
                -0.0000
    Dipole Moment (Debye)
         X       2.7178      Y      -3.2300      Z      -0.0932
       Tot       4.2223
    Quadrupole Moments (Debye-Ang)
        XX     -75.7683     XY       3.0991     YY     -54.8896
        XZ       0.1445     YZ      -0.0132     ZZ     -55.8972
    Octopole Moments (Debye-Ang^2)
       XXX      62.0318    XXY     -23.2418    XYY      10.3196
       YYY     -54.3856    XXZ      -1.6567    XYZ       0.0600
       YYZ      -1.1240    XZZ       8.7877    YZZ     -20.1036
       ZZZ      -3.8552
    Hexadecapole Moments (Debye-Ang^3)
      XXXX   -2537.7560   XXXY      86.2944   XXYY    -424.3534
      XYYY      64.7778   YYYY    -230.1143   XXXZ       4.4225
      XXYZ      -0.3010   XYYZ       1.1214   YYYZ      -3.0291
      XXZZ    -425.4133   XYZZ      21.6218   YYZZ     -49.3987
      XZZZ       3.5148   YZZZ      -2.6728   ZZZZ     -84.0230
 -----------------------------------------------------------------
 Calculating analytic gradient of the SCF energy
 Gradient of SCF Energy
            1           2           3           4           5           6
    1  -0.0357800   0.0002518   0.0026621   0.0306639  -0.0005114  -0.0000240
    2   0.0251289  -0.0000148  -0.0009604  -0.0228661   0.0006827   0.0000385
    3   0.0007700   0.0000270  -0.0000300  -0.0007891   0.0000100  -0.0000821
            7           8           9          10          11
    1  -0.0000453   0.0013771   0.0013765   0.0000258   0.0000036
    2   0.0000438  -0.0009905  -0.0009614  -0.0000524  -0.0000484
    3   0.0000836   0.0002603  -0.0002857  -0.0000054   0.0000415
 Max gradient component =       3.578E-02
 RMS gradient           =       1.014E-02
 Gradient time:  CPU 15.02 s  wall 1.33 s
 Geometry Optimization Parameters
   NAtoms,    NIC,     NZ,  NCons,   NDum,   NFix, NCnnct, MaxDiis
       11      68       0       1       0       0       0       0

 Cartesian Hessian Update
 Hessian Updated using BFGS Update
**WARNING** Hereditary positive definiteness endangered


** CONSTRAINED OPTIMIZATION IN DELOCALIZED INTERNAL COORDINATES **
   Searching for a Minimum

   Optimization Cycle:   2

                       Coordinates (Angstroms)
     ATOM                X               Y               Z
      1  Br       -3.3296276524    0.7916650549    0.0393374546
      2  Br        2.9142292295    0.5568495004    0.0250019804
      3  C         0.0377944964    0.1950091810    0.0155934892
      4  C        -1.1162447450   -0.7502132882   -0.0097339233
      5  C         1.3390388391   -0.6313321658   -0.0031547001
      6  H         0.0100977220    0.8098181864    0.9174154220
      7  H         0.0119789914    0.8552158214   -0.8536063189
      8  H        -1.3701499810   -1.2486432163   -0.9394055429
      9  H        -1.3704865152   -1.2962400089    0.8926903976
     10  H         1.4373121002   -1.2311120630   -0.9078831065
     11  H         1.4359625150   -1.2723150020    0.8731458479
   Point Group: c1    Number of degrees of freedom:    27


   Energy is  -5265.665439516

              Constraints and their Current Values
                                        Value     Constraint
   Distance(Angs):        1   4             2.697936     2.700000
 Hessian Updated using BFGS Update
**WARNING** Hereditary positive definiteness endangered

   Using Lagrange Multiplier Algorithm


 26 Hessian modes will be used to form the next step
  Hessian Eigenvalues:
    -1.001225   -0.029360    0.045000    0.045012    0.071817    0.079292
     0.082757    0.083410    0.087637    0.097953    0.127701    0.151612
     0.160000    0.161253    0.207299    0.220321    0.222430    0.278602
     0.307596    0.346035    0.346046    0.348096    0.348221    0.353910
     0.353981    0.999087
**WARNING** Hessian does not have the Desired Local Structure

 Minimum Search - Taking P-RFO Step
 Searching for Lamda that Maximizes Along the Constraint modes Only
 Value Taken    Lamda =   0.00000266
 Searching for Lamda that Minimizes Along All other modes
 Value Taken    Lamda =  -0.02965222
 Calculated Step too Large.  Step scaled by  0.029792
 Step Taken.  Stepsize is  0.300000

                             Maximum     Tolerance    Cnvgd?
         Gradient            0.006144       0.000300      NO
         Displacement        0.245255       0.001200      NO
         Energy change      0.008145       0.000001      NO


 New Cartesian Coordinates Obtained by Inverse Iteration

 Displacement from previous Coordinates is:  0.182318
 ----------------------------------------------------------------
             Standard Nuclear Orientation (Angstroms)
    I     Atom           X                Y                Z
 ----------------------------------------------------------------
    1      Br     -3.2783858806     0.7682496620     0.0331317280
    2      Br      2.8966634519     0.5579018637     0.0220288630
    3      C       0.0290554708     0.2008945764     0.0181705144
    4      C      -1.0620271301    -0.7695579726    -0.0078735543
    5      C       1.3364312776    -0.6378645112    -0.0034948412
    6      H      -0.0060593984     0.8148911293     0.9211779652
    7      H      -0.0041272182     0.8600874164    -0.8524167631
    8      H      -1.3853524432    -1.2271198697    -0.9389621563
    9      H      -1.3909930219    -1.2746093069     0.8957709322
   10      H       1.4308134498    -1.2349692508    -0.9097538749
   11      H       1.4338864422    -1.2792017365     0.8716221869
 ----------------------------------------------------------------
 Nuclear Repulsion Energy =   459.3751174827 hartrees
 There are       47 alpha and       47 beta electrons

                       Distance Matrix (Angstroms)
             Br(  1)   Br(  2)   C (  3)   C (  4)   C (  5)   H (  6)
   Br(  2)  6.178641
   C (  3)  3.355784  2.889748
   C (  4)  2.697921  4.175437  1.460451
   C (  5)  4.824421  1.965918  1.553453  2.402075
   H (  6)  3.391006  3.049641  1.092542  2.118651  2.183529
   H (  7)  3.393140  3.044759  1.092501  2.118525  2.182115  1.774172
   H (  8)  2.917198  4.737665  2.226180  1.086659  2.937759  3.087455
   H (  9)  2.911987  4.743998  2.227966  1.086218  2.941592  2.506930
   H ( 10)  5.203698  2.496262  2.210808  2.691514  1.089379  3.101426
   H ( 11)  5.205827  2.497294  2.211926  2.694965  1.089330  2.541874
             H (  7)   H (  8)   H (  9)   H ( 10)
   H (  8)  2.504338
   H (  9)  3.088120  1.835356
   H ( 10)  2.540001  2.816328  3.350236
   H ( 11)  3.101089  3.350975  2.824986  1.781928
 
 Applying Cartesian multipole field
    Component          Value
    ---------          -----
     (2,0,0)        1.00000E-11
     (0,2,0)        2.00000E-10
     (0,0,2)       -3.00000E-10
 Nucleus-field energy     =     0.0000000521 hartrees
 Requested basis set is 6-31G(d,p)
 There are 46 shells and 145 basis functions
 A cutoff of  1.0D-14 yielded    947 shell pairs
 There are      9114 function pairs
 Smallest overlap matrix eigenvalue = 7.23E-04
 Guess from superposition of atomic densities
 Warning:  Energy on first SCF cycle will be non-variational
 SAD guess density has 93.945746 electrons

 -----------------------------------------------------------------------
  General SCF calculation program by
  Eric Jon Sundstrom, Paul Horn, Yuezhi Mao, Dmitri Zuev, Alec White,
  David Stuck, Shaama M.S., Shane Yost, Joonho Lee, David Small,
  Daniel Levine, Susi Lehtola, Hugh Burton, Evgeny Epifanovsky
 -----------------------------------------------------------------------
 Exchange:     0.2000 Hartree-Fock + 0.0800 Slater + 0.7200 B88
 Correlation:  0.1900 VWN1RPA + 0.8100 LYP
 Using SG-1 standard quadrature grid
 using 12 threads for integral computing
 -------------------------------------------------------
 OpenMP Integral computing Module                
 Release: version 1.0, May 2013, Q-Chem Inc. Pittsburgh 
 -------------------------------------------------------
 -------------------------------------------------------
 OpenMP BLAS3 based DFT computing Module                
 Release: version 1.0, May 2013, Q-Chem Inc. Pittsburgh 
 -------------------------------------------------------
 A unrestricted SCF calculation will be
 performed using DIIS
 SCF converges when DIIS error is below 1.0e-06
 Alpha HF Exchange    Energy = -19.61606713652095
 Beta HF Exchange     Energy = -19.61606713652095
 DFT Correlation      Energy =  -5.20132355244187
 DFT Exchange         Energy = -155.88104147929525
 One-Electron (alpha) Energy = -4115.82976639528624
 One-Electron (beta)  Energy = -4115.82976639528624
 Total Coulomb        Energy = 2700.00624180695513
 ---------------------------------------
  Cycle       Energy         DIIS error
 ---------------------------------------
    1   -5272.5926727537      1.83e-01  
 Alpha HF Exchange    Energy = -19.73272000872599
 Beta HF Exchange     Energy = -19.73272000872597
 DFT Correlation      Energy =  -5.24991223752867
 DFT Exchange         Energy = -157.04530230695909
 One-Electron (alpha) Energy = -4126.76847113100303
 One-Electron (beta)  Energy = -4126.76847113099939
 Total Coulomb        Energy = 2730.42905297650850
    2   -5265.4934263127      1.04e-02  
 Alpha HF Exchange    Energy = -19.59170220273373
 Beta HF Exchange     Energy = -19.59170220273370
 DFT Correlation      Energy =  -5.22035685935721
 DFT Exchange         Energy = -155.95548208906206
 One-Electron (alpha) Energy = -4107.44496813128626
 One-Electron (beta)  Energy = -4107.44496813128353
 Total Coulomb        Energy = 2690.79979596561361
    3   -5265.0742661161      6.83e-03  
 Alpha HF Exchange    Energy = -19.69955602754615
 Beta HF Exchange     Energy = -19.69955602754614
 DFT Correlation      Energy =  -5.23273223075347
 DFT Exchange         Energy = -156.73716240112179
 One-Electron (alpha) Energy = -4124.19122485137814
 One-Electron (beta)  Energy = -4124.19122485137814
 Total Coulomb        Energy = 2725.14558677616651
    4   -5265.2307520788      5.71e-03  
 Alpha HF Exchange    Energy = -19.66977902627772
 Beta HF Exchange     Energy = -19.66977902627773
 DFT Correlation      Energy =  -5.23656548738199
 DFT Exchange         Energy = -156.56845727285543
 One-Electron (alpha) Energy = -4119.71605253466805
 One-Electron (beta)  Energy = -4119.71605253466896
 Total Coulomb        Energy = 2715.54582016284348
    5   -5265.6557481846      8.63e-04  
 Alpha HF Exchange    Energy = -19.65280586895170
 Beta HF Exchange     Energy = -19.65280586895169
 DFT Correlation      Energy =  -5.23075813801680
 DFT Exchange         Energy = -156.43168533434073
 One-Electron (alpha) Energy = -4117.97971059683277
 One-Electron (beta)  Energy = -4117.97971059683096
 Total Coulomb        Energy = 2711.89066105775282
    6   -5265.6616978115      4.78e-04  
 Alpha HF Exchange    Energy = -19.65542243716354
 Beta HF Exchange     Energy = -19.65542243716358
 DFT Correlation      Energy =  -5.23231084582990
 DFT Exchange         Energy = -156.45616967445707
 One-Electron (alpha) Energy = -4118.08098745792449
 One-Electron (beta)  Energy = -4118.08098745792722
 Total Coulomb        Energy = 2712.12226286365967
    7   -5265.6639199121      1.82e-04  
 Alpha HF Exchange    Energy = -19.65648802273219
 Beta HF Exchange     Energy = -19.65648802273221
 DFT Correlation      Energy =  -5.23241546496777
 DFT Exchange         Energy = -156.46363273932812
 One-Electron (alpha) Energy = -4118.24693849118285
 One-Electron (beta)  Energy = -4118.24693849118557
 Total Coulomb        Energy = 2712.46352264174675
    8   -5265.6642610557      3.96e-05  
 Alpha HF Exchange    Energy = -19.65656707640101
 Beta HF Exchange     Energy = -19.65656707640099
 DFT Correlation      Energy =  -5.23241449963685
 DFT Exchange         Energy = -156.46389578239121
 One-Electron (alpha) Energy = -4118.26944970133627
 One-Electron (beta)  Energy = -4118.26944970133627
 Total Coulomb        Energy = 2712.50894341748608
    9   -5265.6642828853      7.49e-06  
 Alpha HF Exchange    Energy = -19.65659753540917
 Beta HF Exchange     Energy = -19.65659753540918
 DFT Correlation      Energy =  -5.23241721866526
 DFT Exchange         Energy = -156.46411410053310
 One-Electron (alpha) Energy = -4118.27271634387853
 One-Electron (beta)  Energy = -4118.27271634387853
 Total Coulomb        Energy = 2712.51575815017713
   10   -5265.6642833929      1.78e-06  
 Alpha HF Exchange    Energy = -19.65660382688254
 Beta HF Exchange     Energy = -19.65660382688252
 DFT Correlation      Energy =  -5.23241703167029
 DFT Exchange         Energy = -156.46415395491107
 One-Electron (alpha) Energy = -4118.27346911203676
 One-Electron (beta)  Energy = -4118.27346911203585
 Total Coulomb        Energy = 2712.51731590054897
   11   -5265.6642834292      6.63e-07  Convergence criterion met
 ---------------------------------------
 SCF time:   CPU 41.86s  wall 3.00s 
<S^2> =         -0.000000000
 Alpha HF Exchange    Energy = -19.65660382688254
 Beta HF Exchange     Energy = -19.65660382688252
 DFT Correlation      Energy =  -5.23241703167029
 DFT Exchange         Energy = -156.46415395491107
 One-Electron (alpha) Energy = -4118.27346911203676
 One-Electron (beta)  Energy = -4118.27346911203585
 Total Coulomb        Energy = 2712.51731590054897
 Nuclear repulsion Energy = 459.37511753471711
 SCF   energy in the final basis set =    -5265.6642834292
 Total energy in the final basis set =    -5265.6642834292
 
 --------------------------------------------------------------
 
                    Orbital Energies (a.u.)
 --------------------------------------------------------------
 
 Alpha MOs
 -- Occupied --
*******-482.826 -62.532 -62.483 -56.353 -56.349 -56.349 -56.304
-56.301 -56.301 -10.300 -10.282 -10.242  -8.719  -8.669  -6.550
 -6.536  -6.536  -6.497  -6.486  -6.486  -2.643  -2.639  -2.639
 -2.628  -2.628  -2.591  -2.588  -2.588  -2.579  -2.579  -0.867
 -0.802  -0.717  -0.691  -0.639  -0.535  -0.479  -0.470  -0.451
 -0.397  -0.396  -0.304  -0.298  -0.289  -0.259  -0.258
 -- Virtual --
 -0.137  -0.015   0.063   0.091   0.092   0.119   0.128   0.158
  0.180   0.216   0.227   0.238   0.320   0.327   0.335   0.358
  0.359   0.379   0.447   0.453   0.477   0.505   0.531   0.547
  0.564   0.580   0.585   0.621   0.635   0.643   0.655   0.730
  0.736   0.764   0.778   0.802   0.811   0.831   0.856   0.883
  0.893   0.909   1.059   1.138   1.237   1.264   1.382   1.478
  1.480   1.605   1.648   1.707   1.771   1.786   1.838   1.906
  1.951   2.019   2.026   2.074   2.144   2.167   2.199   2.303
  2.310   2.434   2.444   2.452   2.570   2.574   2.672   2.721
  2.750   2.816   2.844   3.166   3.213   3.328   3.345   3.417
  3.499   4.187   4.339   4.544   4.705   4.721   4.750   4.752
  4.753   4.760   4.789   4.790   4.871   4.964   6.278   6.304
 90.269  90.336
 
 Beta MOs
 -- Occupied --
*******-482.826 -62.532 -62.483 -56.353 -56.349 -56.349 -56.304
-56.301 -56.301 -10.300 -10.282 -10.242  -8.719  -8.669  -6.550
 -6.536  -6.536  -6.497  -6.486  -6.486  -2.643  -2.639  -2.639
 -2.628  -2.628  -2.591  -2.588  -2.588  -2.579  -2.579  -0.867
 -0.802  -0.717  -0.691  -0.639  -0.535  -0.479  -0.470  -0.451
 -0.397  -0.396  -0.304  -0.298  -0.289  -0.259  -0.258
 -- Virtual --
 -0.137  -0.015   0.063   0.091   0.092   0.119   0.128   0.158
  0.180   0.216   0.227   0.238   0.320   0.327   0.335   0.358
  0.359   0.379   0.447   0.453   0.477   0.505   0.531   0.547
  0.564   0.580   0.585   0.621   0.635   0.643   0.655   0.730
  0.736   0.764   0.778   0.802   0.811   0.831   0.856   0.883
  0.893   0.909   1.059   1.138   1.237   1.264   1.382   1.478
  1.480   1.605   1.648   1.707   1.771   1.786   1.838   1.906
  1.951   2.019   2.026   2.074   2.144   2.167   2.199   2.303
  2.310   2.434   2.444   2.452   2.570   2.574   2.672   2.721
  2.750   2.816   2.844   3.166   3.213   3.328   3.345   3.417
  3.499   4.187   4.339   4.544   4.705   4.721   4.750   4.752
  4.753   4.760   4.789   4.790   4.871   4.964   6.278   6.304
 90.269  90.336
 --------------------------------------------------------------
 
          Ground-State Mulliken Net Atomic Charges

     Atom                 Charge (a.u.)    Spin (a.u.)
  --------------------------------------------------------
      1 Br                   -0.350139      -0.000000
      2 Br                   -0.071217       0.000000
      3 C                    -0.196465      -0.000000
      4 C                    -0.160447       0.000000
      5 C                    -0.280033      -0.000000
      6 H                     0.172587       0.000000
      7 H                     0.172708       0.000000
      8 H                     0.189638      -0.000000
      9 H                     0.190056      -0.000000
     10 H                     0.166587       0.000000
     11 H                     0.166725      -0.000000
  --------------------------------------------------------
  Sum of atomic charges =     0.000000
  Sum of spin   charges =    -0.000000

 -----------------------------------------------------------------
                    Cartesian Multipole Moments
 -----------------------------------------------------------------
    Charge (ESU x 10^10)
                -0.0000
    Dipole Moment (Debye)
         X       2.9062      Y      -3.2807      Z      -0.0823
       Tot       4.3836
    Quadrupole Moments (Debye-Ang)
        XX     -76.2350     XY       3.2927     YY     -54.8516
        XZ       0.1266     YZ      -0.0175     ZZ     -55.8198
    Octopole Moments (Debye-Ang^2)
       XXX      61.9077    XXY     -23.6222    XYY       9.9435
       YYY     -52.8832    XXZ      -1.4705    XYZ       0.0738
       YYZ      -0.9657    XZZ       8.0167    YZZ     -19.6453
       ZZZ      -3.3876
    Hexadecapole Moments (Debye-Ang^3)
      XXXX   -2495.4323   XXXY      84.2589   XXYY    -415.8893
      XYYY      59.8508   YYYY    -227.3295   XXXZ       3.7192
      XXYZ      -0.3294   XYYZ       0.9018   YYYZ      -2.6522
      XXZZ    -416.5666   XYZZ      19.8987   YYZZ     -48.8685
      XZZZ       2.7844   YZZZ      -2.2480   ZZZZ     -83.8345
 -----------------------------------------------------------------
 Calculating analytic gradient of the SCF energy
 Gradient of SCF Energy
            1           2           3           4           5           6
    1  -0.0320273  -0.0025147  -0.0128764   0.0565213   0.0000195  -0.0009627
    2   0.0227808  -0.0007861  -0.0016780  -0.0198406  -0.0048150   0.0011122
    3   0.0005588  -0.0000269  -0.0002095  -0.0000193   0.0000003   0.0001488
            7           8           9          10          11
    1  -0.0008042  -0.0040130  -0.0041253   0.0003767   0.0004061
    2   0.0010612   0.0010930   0.0010666   0.0000086  -0.0000027
    3  -0.0001060  -0.0007664   0.0005081   0.0002291  -0.0003169
 Max gradient component =       5.652E-02
 RMS gradient           =       1.276E-02
 Gradient time:  CPU 15.11 s  wall 1.35 s
 Geometry Optimization Parameters
   NAtoms,    NIC,     NZ,  NCons,   NDum,   NFix, NCnnct, MaxDiis
       11      68       0       1       0       0       0       0

 Cartesian Hessian Update
 Hessian Updated using BFGS Update


** CONSTRAINED OPTIMIZATION IN DELOCALIZED INTERNAL COORDINATES **
   Searching for a Minimum

   Optimization Cycle:   3

                       Coordinates (Angstroms)
     ATOM                X               Y               Z
      1  Br       -3.2783858806    0.7682496620    0.0331317280
      2  Br        2.8966634519    0.5579018637    0.0220288630
      3  C         0.0290554708    0.2008945764    0.0181705144
      4  C        -1.0620271301   -0.7695579726   -0.0078735543
      5  C         1.3364312776   -0.6378645112   -0.0034948412
      6  H        -0.0060593984    0.8148911293    0.9211779652
      7  H        -0.0041272182    0.8600874164   -0.8524167631
      8  H        -1.3853524432   -1.2271198697   -0.9389621563
      9  H        -1.3909930219   -1.2746093069    0.8957709322
     10  H         1.4308134498   -1.2349692508   -0.9097538749
     11  H         1.4338864422   -1.2792017365    0.8716221869
   Point Group: c1    Number of degrees of freedom:    27


   Energy is  -5265.664283429

              Constraints and their Current Values
                                        Value     Constraint
   Distance(Angs):        1   4             2.697921     2.700000
 Hessian Updated using BFGS Update

   Using Lagrange Multiplier Algorithm


 27 Hessian modes will be used to form the next step
  Hessian Eigenvalues:
    -0.994785    0.031568    0.045000    0.045043    0.071817    0.079297
     0.082872    0.083411    0.087638    0.098349    0.127707    0.156144
     0.160000    0.160217    0.162294    0.219264    0.222026    0.231488
     0.280968    0.345720    0.346045    0.348096    0.348220    0.352793
     0.353976    0.372011    1.006338

 Minimum Search - Taking P-RFO Step
 Searching for Lamda that Maximizes Along the Constraint modes Only
 Value Taken    Lamda =   0.01241281
 Searching for Lamda that Minimizes Along All other modes
 Value Taken    Lamda =  -0.01320258
 Step Taken.  Stepsize is  0.158990

                             Maximum     Tolerance    Cnvgd?
         Gradient            0.154145       0.000300      NO
         Displacement        0.155142       0.001200      NO
         Energy change      0.001156       0.000001      NO


 New Cartesian Coordinates Obtained by Inverse Iteration

 Displacement from previous Coordinates is:  0.121644
 ----------------------------------------------------------------
             Standard Nuclear Orientation (Angstroms)
    I     Atom           X                Y                Z
 ----------------------------------------------------------------
    1      Br     -3.3112287573     0.7836764919     0.0364765351
    2      Br      2.9126124140     0.5628107521     0.0238175350
    3      C       0.0358285194     0.1939732872     0.0166887065
    4      C      -1.0987188782    -0.7631949996    -0.0091479738
    5      C       1.3436130622    -0.6316201858    -0.0032981987
    6      H       0.0070926809     0.8069460940     0.9196679600
    7      H       0.0087474078     0.8524867716    -0.8536879736
    8      H      -1.3888176338    -1.2384103360    -0.9405034174
    9      H      -1.3913477762    -1.2857347449     0.8955413047
   10      H       1.4408184559    -1.2298439889    -0.9089521248
   11      H       1.4413055052    -1.2723871414     0.8727986469
 ----------------------------------------------------------------
 Nuclear Repulsion Energy =   456.5042460101 hartrees
 There are       47 alpha and       47 beta electrons

                       Distance Matrix (Angstroms)
             Br(  1)   Br(  2)   C (  3)   C (  4)   C (  5)   H (  6)
   Br(  2)  6.227772
   C (  3)  3.398666  2.900341
   C (  4)  2.700017  4.224945  1.484600
   C (  5)  4.865408  1.972095  1.546708  2.445881
   H (  6)  3.433923  3.050278  1.091757  2.133275  2.169706
   H (  7)  3.437931  3.047353  1.091755  2.133110  2.169701  1.773941
   H (  8)  2.956178  4.761997  2.235521  1.085085  2.951733  3.097142
   H (  9)  2.950661  4.764567  2.235788  1.084962  2.952252  2.517048
   H ( 10)  5.246909  2.499970  2.204101  2.734348  1.089738  3.089973
   H ( 11)  5.245323  2.500693  2.204201  2.736573  1.089804  2.526418
             H (  7)   H (  8)   H (  9)   H ( 10)
   H (  8)  2.516461
   H (  9)  3.097105  1.836656
   H ( 10)  2.527842  2.829825  3.358643
   H ( 11)  3.089995  3.361371  2.832776  1.782259
 
 Applying Cartesian multipole field
    Component          Value
    ---------          -----
     (2,0,0)        1.00000E-11
     (0,2,0)        2.00000E-10
     (0,0,2)       -3.00000E-10
 Nucleus-field energy     =     0.0000000531 hartrees
 Requested basis set is 6-31G(d,p)
 There are 46 shells and 145 basis functions
 A cutoff of  1.0D-14 yielded    947 shell pairs
 There are      9114 function pairs
 Smallest overlap matrix eigenvalue = 7.23E-04
 Guess from superposition of atomic densities
 Warning:  Energy on first SCF cycle will be non-variational
 SAD guess density has 93.945746 electrons

 -----------------------------------------------------------------------
  General SCF calculation program by
  Eric Jon Sundstrom, Paul Horn, Yuezhi Mao, Dmitri Zuev, Alec White,
  David Stuck, Shaama M.S., Shane Yost, Joonho Lee, David Small,
  Daniel Levine, Susi Lehtola, Hugh Burton, Evgeny Epifanovsky
 -----------------------------------------------------------------------
 Exchange:     0.2000 Hartree-Fock + 0.0800 Slater + 0.7200 B88
 Correlation:  0.1900 VWN1RPA + 0.8100 LYP
 Using SG-1 standard quadrature grid
 using 12 threads for integral computing
 -------------------------------------------------------
 OpenMP Integral computing Module                
 Release: version 1.0, May 2013, Q-Chem Inc. Pittsburgh 
 -------------------------------------------------------
 -------------------------------------------------------
 OpenMP BLAS3 based DFT computing Module                
 Release: version 1.0, May 2013, Q-Chem Inc. Pittsburgh 
 -------------------------------------------------------
 A unrestricted SCF calculation will be
 performed using DIIS
 SCF converges when DIIS error is below 1.0e-06
 Alpha HF Exchange    Energy = -19.61313586186442
 Beta HF Exchange     Energy = -19.61313586186442
 DFT Correlation      Energy =  -5.20038325442297
 DFT Exchange         Energy = -155.87541836193725
 One-Electron (alpha) Energy = -4112.96980455009725
 One-Electron (beta)  Energy = -4112.96980455009725
 Total Coulomb        Energy = 2697.17823013594079
 ---------------------------------------
  Cycle       Energy         DIIS error
 ---------------------------------------
    1   -5272.5592062411      1.83e-01  
 Alpha HF Exchange    Energy = -19.73137825698639
 Beta HF Exchange     Energy = -19.73137825698640
 DFT Correlation      Energy =  -5.24891460101284
 DFT Exchange         Energy = -157.03574578136062
 One-Electron (alpha) Energy = -4123.85931427377818
 One-Electron (beta)  Energy = -4123.85931427378000
 Total Coulomb        Energy = 2727.46689369665910
    2   -5265.4949056840      1.04e-02  
 Alpha HF Exchange    Energy = -19.59110169254209
 Beta HF Exchange     Energy = -19.59110169254211
 DFT Correlation      Energy =  -5.21940296072057
 DFT Exchange         Energy = -155.95033294828386
 One-Electron (alpha) Energy = -4104.60816694731875
 One-Electron (beta)  Energy = -4104.60816694732239
 Total Coulomb        Energy = 2687.98066433739996
    3   -5265.0833627881      6.80e-03  
 Alpha HF Exchange    Energy = -19.69900451294355
 Beta HF Exchange     Energy = -19.69900451294355
 DFT Correlation      Energy =  -5.23206561864203
 DFT Exchange         Energy = -156.73366562601353
 One-Electron (alpha) Energy = -4121.36679478343649
 One-Electron (beta)  Energy = -4121.36679478343649
 Total Coulomb        Energy = 2722.36105179702781
    4   -5265.2320319772      5.68e-03  
 Alpha HF Exchange    Energy = -19.66811473923732
 Beta HF Exchange     Energy = -19.66811473923732
 DFT Correlation      Energy =  -5.23550460025932
 DFT Exchange         Energy = -156.55680273520753
 One-Electron (alpha) Energy = -4116.74936501475986
 One-Electron (beta)  Energy = -4116.74936501475986
 Total Coulomb        Energy = 2712.46519218220828
    5   -5265.6578285980      8.25e-04  
 Alpha HF Exchange    Energy = -19.65168575650036
 Beta HF Exchange     Energy = -19.65168575650036
 DFT Correlation      Energy =  -5.22981829158411
 DFT Exchange         Energy = -156.42330774552013
 One-Electron (alpha) Energy = -4115.09428028311959
 One-Electron (beta)  Energy = -4115.09428028312141
 Total Coulomb        Energy = 2708.97791688535199
    6   -5265.6628951678      4.62e-04  
 Alpha HF Exchange    Energy = -19.65442670007387
 Beta HF Exchange     Energy = -19.65442670007386
 DFT Correlation      Energy =  -5.23138907173110
 DFT Exchange         Energy = -156.44895486032920
 One-Electron (alpha) Energy = -4115.19953232071293
 One-Electron (beta)  Energy = -4115.19953232071293
 Total Coulomb        Energy = 2709.21906069836723
    7   -5265.6649552121      1.79e-04  
 Alpha HF Exchange    Energy = -19.65544723847115
 Beta HF Exchange     Energy = -19.65544723847114
 DFT Correlation      Energy =  -5.23147254794707
 DFT Exchange         Energy = -156.45601373742531
 One-Electron (alpha) Energy = -4115.36432835614232
 One-Electron (beta)  Energy = -4115.36432835614050
 Total Coulomb        Energy = 2709.55749425442400
    8   -5265.6652971570      3.92e-05  
 Alpha HF Exchange    Energy = -19.65552175515347
 Beta HF Exchange     Energy = -19.65552175515350
 DFT Correlation      Energy =  -5.23147484273153
 DFT Exchange         Energy = -156.45625981640768
 One-Electron (alpha) Energy = -4115.38631006444848
 One-Electron (beta)  Energy = -4115.38631006445303
 Total Coulomb        Energy = 2709.60183346842086
    9   -5265.6653187667      7.24e-06  
 Alpha HF Exchange    Energy = -19.65555003838223
 Beta HF Exchange     Energy = -19.65555003838224
 DFT Correlation      Energy =  -5.23147624684852
 DFT Exchange         Energy = -156.45645860129409
 One-Electron (alpha) Energy = -4115.38938705238797
 One-Electron (beta)  Energy = -4115.38938705238888
 Total Coulomb        Energy = 2709.60824372076877
   10   -5265.6653192457      1.90e-06  
 Alpha HF Exchange    Energy = -19.65555662384699
 Beta HF Exchange     Energy = -19.65555662384698
 DFT Correlation      Energy =  -5.23147627187925
 DFT Exchange         Energy = -156.45650137624335
 One-Electron (alpha) Energy = -4115.39022267903511
 One-Electron (beta)  Energy = -4115.39022267903147
 Total Coulomb        Energy = 2709.60997090287128
   11   -5265.6653192878      6.07e-07  Convergence criterion met
 ---------------------------------------
 SCF time:   CPU 42.72s  wall 4.00s 
<S^2> =          0.000000000
 Alpha HF Exchange    Energy = -19.65555662384699
 Beta HF Exchange     Energy = -19.65555662384698
 DFT Correlation      Energy =  -5.23147627187925
 DFT Exchange         Energy = -156.45650137624335
 One-Electron (alpha) Energy = -4115.39022267903511
 One-Electron (beta)  Energy = -4115.39022267903147
 Total Coulomb        Energy = 2709.60997090287128
 Nuclear repulsion Energy = 456.50424606320735
 SCF   energy in the final basis set =    -5265.6653192878
 Total energy in the final basis set =    -5265.6653192878
 
 --------------------------------------------------------------
 
                    Orbital Energies (a.u.)
 --------------------------------------------------------------
 
 Alpha MOs
 -- Occupied --
*******-482.828 -62.531 -62.486 -56.353 -56.349 -56.349 -56.307
-56.303 -56.303 -10.301 -10.280 -10.242  -8.718  -8.671  -6.549
 -6.536  -6.535  -6.500  -6.489  -6.489  -2.642  -2.639  -2.638
 -2.628  -2.628  -2.594  -2.591  -2.591  -2.582  -2.582  -0.863
 -0.799  -0.719  -0.692  -0.638  -0.532  -0.474  -0.469  -0.448
 -0.397  -0.393  -0.305  -0.298  -0.291  -0.260  -0.260
 -- Virtual --
 -0.138  -0.018   0.064   0.093   0.094   0.120   0.130   0.163
  0.176   0.209   0.226   0.237   0.320   0.328   0.335   0.356
  0.357   0.377   0.452   0.455   0.478   0.503   0.531   0.544
  0.556   0.579   0.584   0.616   0.635   0.642   0.654   0.725
  0.732   0.763   0.780   0.805   0.816   0.831   0.855   0.884
  0.887   0.908   1.057   1.120   1.233   1.270   1.370   1.479
  1.504   1.612   1.635   1.708   1.771   1.783   1.825   1.914
  1.931   2.014   2.026   2.076   2.147   2.170   2.200   2.296
  2.303   2.432   2.439   2.446   2.572   2.580   2.676   2.728
  2.750   2.807   2.831   3.168   3.216   3.329   3.334   3.424
  3.490   4.179   4.338   4.542   4.706   4.721   4.747   4.749
  4.751   4.756   4.788   4.791   4.865   4.962   6.278   6.301
 90.263  90.335
 
 Beta MOs
 -- Occupied --
*******-482.828 -62.531 -62.486 -56.353 -56.349 -56.349 -56.307
-56.303 -56.303 -10.301 -10.280 -10.242  -8.718  -8.671  -6.549
 -6.536  -6.535  -6.500  -6.489  -6.489  -2.642  -2.639  -2.638
 -2.628  -2.628  -2.594  -2.591  -2.591  -2.582  -2.582  -0.863
 -0.799  -0.719  -0.692  -0.638  -0.532  -0.474  -0.469  -0.448
 -0.397  -0.393  -0.305  -0.298  -0.291  -0.260  -0.260
 -- Virtual --
 -0.138  -0.018   0.064   0.093   0.094   0.120   0.130   0.163
  0.176   0.209   0.226   0.237   0.320   0.328   0.335   0.356
  0.357   0.377   0.452   0.455   0.478   0.503   0.531   0.544
  0.556   0.579   0.584   0.616   0.635   0.642   0.654   0.725
  0.732   0.763   0.780   0.805   0.816   0.831   0.855   0.884
  0.887   0.908   1.057   1.120   1.233   1.270   1.370   1.479
  1.504   1.612   1.635   1.708   1.771   1.783   1.825   1.914
  1.931   2.014   2.026   2.076   2.147   2.170   2.200   2.296
  2.303   2.432   2.439   2.446   2.572   2.580   2.676   2.728
  2.750   2.807   2.831   3.168   3.216   3.329   3.334   3.424
  3.490   4.179   4.338   4.542   4.706   4.721   4.747   4.749
  4.751   4.756   4.788   4.791   4.865   4.962   6.278   6.301
 90.263  90.335
 --------------------------------------------------------------
 
          Ground-State Mulliken Net Atomic Charges

     Atom                 Charge (a.u.)    Spin (a.u.)
  --------------------------------------------------------
      1 Br                   -0.337896      -0.000000
      2 Br                   -0.072680       0.000000
      3 C                    -0.199912      -0.000000
      4 C                    -0.157155       0.000000
      5 C                    -0.275750      -0.000000
      6 H                     0.170622       0.000000
      7 H                     0.170577       0.000000
      8 H                     0.186089       0.000000
      9 H                     0.186377      -0.000000
     10 H                     0.164816       0.000000
     11 H                     0.164913      -0.000000
  --------------------------------------------------------
  Sum of atomic charges =    -0.000000
  Sum of spin   charges =    -0.000000

 -----------------------------------------------------------------
                    Cartesian Multipole Moments
 -----------------------------------------------------------------
    Charge (ESU x 10^10)
                -0.0000
    Dipole Moment (Debye)
         X       2.7847      Y      -3.2689      Z      -0.0887
       Tot       4.2951
    Quadrupole Moments (Debye-Ang)
        XX     -75.9914     XY       3.2329     YY     -54.9037
        XZ       0.1377     YZ      -0.0156     ZZ     -55.8542
    Octopole Moments (Debye-Ang^2)
       XXX      61.9308    XXY     -23.6774    XYY      10.0799
       YYY     -54.0838    XXZ      -1.5779    XYZ       0.0666
       YYZ      -1.0538    XZZ       8.3761    YZZ     -20.0399
       ZZZ      -3.6462
    Hexadecapole Moments (Debye-Ang^3)
      XXXX   -2528.4415   XXXY      85.0650   XXYY    -422.1015
      XYYY      62.0531   YYYY    -229.9442   XXXZ       4.0703
      XXYZ      -0.3158   XYYZ       1.0085   YYYZ      -2.8702
      XXZZ    -422.8780   XYZZ      20.7005   YYZZ     -49.3489
      XZZZ       3.1429   YZZZ      -2.4959   ZZZZ     -83.9357
 -----------------------------------------------------------------
 Calculating analytic gradient of the SCF energy
 Gradient of SCF Energy
            1           2           3           4           5           6
    1  -0.0341771  -0.0000626  -0.0025224   0.0387369   0.0002559   0.0001270
    2   0.0240841  -0.0000083   0.0010544  -0.0249784  -0.0010834   0.0001868
    3   0.0006665   0.0000114   0.0000069  -0.0006508   0.0000023  -0.0000043
            7           8           9          10          11
    1   0.0001583  -0.0011865  -0.0012247  -0.0000481  -0.0000566
    2   0.0001624   0.0002846   0.0002851   0.0000128  -0.0000001
    3   0.0000020  -0.0001457   0.0001106   0.0000043  -0.0000031
 Max gradient component =       3.874E-02
 RMS gradient           =       1.085E-02
 Gradient time:  CPU 14.94 s  wall 1.33 s
 Geometry Optimization Parameters
   NAtoms,    NIC,     NZ,  NCons,   NDum,   NFix, NCnnct, MaxDiis
       11      68       0       1       0       0       0       0

 Cartesian Hessian Update
 Hessian Updated using BFGS Update


** CONSTRAINED OPTIMIZATION IN DELOCALIZED INTERNAL COORDINATES **
   Searching for a Minimum

   Optimization Cycle:   4

                       Coordinates (Angstroms)
     ATOM                X               Y               Z
      1  Br       -3.3112287573    0.7836764919    0.0364765351
      2  Br        2.9126124140    0.5628107521    0.0238175350
      3  C         0.0358285194    0.1939732872    0.0166887065
      4  C        -1.0987188782   -0.7631949996   -0.0091479738
      5  C         1.3436130622   -0.6316201858   -0.0032981987
      6  H         0.0070926809    0.8069460940    0.9196679600
      7  H         0.0087474078    0.8524867716   -0.8536879736
      8  H        -1.3888176338   -1.2384103360   -0.9405034174
      9  H        -1.3913477762   -1.2857347449    0.8955413047
     10  H         1.4408184559   -1.2298439889   -0.9089521248
     11  H         1.4413055052   -1.2723871414    0.8727986469
   Point Group: c1    Number of degrees of freedom:    27


   Energy is  -5265.665319288

              Constraints and their Current Values
                                        Value     Constraint
   Distance(Angs):        1   4             2.700017     2.700000
 Hessian Updated using BFGS Update

   Using Lagrange Multiplier Algorithm


 28 Hessian modes will be used to form the next step
  Hessian Eigenvalues:
    -0.995309    0.033050    0.045000    0.045043    0.071817    0.079298
     0.082902    0.083410    0.087637    0.098782    0.127705    0.153818
     0.160000    0.160000    0.160168    0.162746    0.218730    0.220536
     0.225667    0.280193    0.345750    0.346046    0.348095    0.348220
     0.353438    0.353977    0.360245    1.005433

 Minimum Search - Taking P-RFO Step
 Searching for Lamda that Maximizes Along the Constraint modes Only
 Value Taken    Lamda =   0.00000118
 Searching for Lamda that Minimizes Along All other modes
 Value Taken    Lamda =  -0.00012668
 Step Taken.  Stepsize is  0.055948

                             Maximum     Tolerance    Cnvgd?
         Gradient            0.001611       0.000300      NO
         Displacement        0.043778       0.001200      NO
         Energy change     -0.001036       0.000001      NO


 New Cartesian Coordinates Obtained by Inverse Iteration

 Displacement from previous Coordinates is:  0.033045
 ----------------------------------------------------------------
             Standard Nuclear Orientation (Angstroms)
    I     Atom           X                Y                Z
 ----------------------------------------------------------------
    1      Br     -3.3204776843     0.7880364652     0.0378951000
    2      Br      2.9126244240     0.5627394069     0.0243492300
    3      C       0.0374670735     0.1918090649     0.0161168677
    4      C      -1.1075814601    -0.7581974367    -0.0095550203
    5      C       1.3435414876    -0.6313108226    -0.0032212649
    6      H       0.0083501233     0.8046436751     0.9190544106
    7      H       0.0100114245     0.8502579351    -0.8541880245
    8      H      -1.3837337907    -1.2398224396    -0.9412659699
    9      H      -1.3852298771    -1.2872653305     0.8955217212
   10      H       1.4426807256    -1.2302400187    -0.9083003206
   11      H       1.4422525537    -1.2719484991     0.8729942706
 ----------------------------------------------------------------
 Nuclear Repulsion Energy =   456.0540868148 hartrees
 There are       47 alpha and       47 beta electrons

                       Distance Matrix (Angstroms)
             Br(  1)   Br(  2)   C (  3)   C (  4)   C (  5)   H (  6)
   Br(  2)  6.237187
   C (  3)  3.410536  2.898998
   C (  4)  2.700000  4.231794  1.488055
   C (  5)  4.875378  1.971937  1.543934  2.454413
   H (  6)  3.443517  3.048577  1.091655  2.133094  2.166863
   H (  7)  3.448455  3.046253  1.091668  2.132967  2.167370  1.773830
   H (  8)  2.970176  4.758186  2.232927  1.084577  2.947583  3.094920
   H (  9)  2.964386  4.759518  2.232729  1.084512  2.946898  2.513703
   H ( 10)  5.258936  2.499069  2.202589  2.744887  1.089822  3.088249
   H ( 11)  5.255904  2.499654  2.202328  2.746723  1.089915  2.523972
             H (  7)   H (  8)   H (  9)   H ( 10)
   H (  8)  2.513671
   H (  9)  3.094703  1.837401
   H ( 10)  2.526646  2.826623  3.354714
   H ( 11)  3.088403  3.358388  2.827614  1.781783
 
 Applying Cartesian multipole field
    Component          Value
    ---------          -----
     (2,0,0)        1.00000E-11
     (0,2,0)        2.00000E-10
     (0,0,2)       -3.00000E-10
 Nucleus-field energy     =     0.0000000533 hartrees
 Requested basis set is 6-31G(d,p)
 There are 46 shells and 145 basis functions
 A cutoff of  1.0D-14 yielded    947 shell pairs
 There are      9114 function pairs
 Smallest overlap matrix eigenvalue = 7.23E-04
 Guess from superposition of atomic densities
 Warning:  Energy on first SCF cycle will be non-variational
 SAD guess density has 93.945746 electrons

 -----------------------------------------------------------------------
  General SCF calculation program by
  Eric Jon Sundstrom, Paul Horn, Yuezhi Mao, Dmitri Zuev, Alec White,
  David Stuck, Shaama M.S., Shane Yost, Joonho Lee, David Small,
  Daniel Levine, Susi Lehtola, Hugh Burton, Evgeny Epifanovsky
 -----------------------------------------------------------------------
 Exchange:     0.2000 Hartree-Fock + 0.0800 Slater + 0.7200 B88
 Correlation:  0.1900 VWN1RPA + 0.8100 LYP
 Using SG-1 standard quadrature grid
 using 12 threads for integral computing
 -------------------------------------------------------
 OpenMP Integral computing Module                
 Release: version 1.0, May 2013, Q-Chem Inc. Pittsburgh 
 -------------------------------------------------------
 -------------------------------------------------------
 OpenMP BLAS3 based DFT computing Module                
 Release: version 1.0, May 2013, Q-Chem Inc. Pittsburgh 
 -------------------------------------------------------
 A unrestricted SCF calculation will be
 performed using DIIS
 SCF converges when DIIS error is below 1.0e-06
 Alpha HF Exchange    Energy = -19.61304591440696
 Beta HF Exchange     Energy = -19.61304591440696
 DFT Correlation      Energy =  -5.20030925078906
 DFT Exchange         Energy = -155.87525387954977
 One-Electron (alpha) Energy = -4112.51992810681531
 One-Electron (beta)  Energy = -4112.51992810681531
 Total Coulomb        Energy = 2696.73016415207940
 ---------------------------------------
  Cycle       Energy         DIIS error
 ---------------------------------------
    1   -5272.5572601526      1.83e-01  
[...]
             Standard Nuclear Orientation (Angstroms)
    I     Atom           X                Y                Z
 ----------------------------------------------------------------
    1      Br     -3.3210030766     0.7870528520     0.0381352116
    2      Br      2.9130147343     0.5621395624     0.0242962236
    3      C       0.0375471168     0.1924758623     0.0160706716
    4      C      -1.1072052640    -0.7578804906    -0.0096215107
    5      C       1.3432804189    -0.6314445652    -0.0031701187
    6      H       0.0086121835     0.8056657143     0.9188840607
    7      H       0.0104114776     0.8512360539    -0.8541183615
    8      H      -1.3832498788    -1.2400960437    -0.9412183857
    9      H      -1.3847446031    -1.2876776882     0.8952198248
   10      H       1.4418488689    -1.2306293607    -0.9081496547
   11      H       1.4413930225    -1.2721398965     0.8730730391
 ----------------------------------------------------------------
 Nuclear Repulsion Energy =   456.0231584577 hartrees
 There are       47 alpha and       47 beta electrons

                       Distance Matrix (Angstroms)
             Br(  1)   Br(  2)   C (  3)   C (  4)   C (  5)   H (  6)
   Br(  2)  6.238089
   C (  3)  3.410846  2.899143
   C (  4)  2.700000  4.231521  1.488051
   C (  5)  4.875385  1.972172  1.544071  2.453754
   H (  6)  3.444184  3.048794  1.091747  2.133506  2.167212
   H (  7)  3.449429  3.046358  1.091756  2.133424  2.167716  1.773589
   H (  8)  2.970413  4.757958  2.233233  1.084714  2.946924  3.095546
   H (  9)  2.964489  4.759314  2.233086  1.084643  2.946161  2.514774
   H ( 10)  5.258446  2.499561  2.202606  2.743815  1.089828  3.088481
   H ( 11)  5.255265  2.500135  2.202348  2.745718  1.089917  2.524329
             H (  7)   H (  8)   H (  9)   H ( 10)
   H (  8)  2.514667
   H (  9)  3.095415  1.837055
   H ( 10)  2.527073  2.825308  3.353361
   H ( 11)  3.088628  3.357274  2.826267  1.781706
 
 Applying Cartesian multipole field
    Component          Value
    ---------          -----
     (2,0,0)        1.00000E-11
     (0,2,0)        2.00000E-10
     (0,0,2)       -3.00000E-10
 Nucleus-field energy     =     0.0000000533 hartrees
 Requested basis set is 6-31G(d,p)
 There are 46 shells and 145 basis functions
 A cutoff of  1.0D-14 yielded    946 shell pairs
 There are      9078 function pairs
 Smallest overlap matrix eigenvalue = 7.23E-04
 Guess from superposition of atomic densities
 Warning:  Energy on first SCF cycle will be non-variational
 SAD guess density has 93.945746 electrons

 -----------------------------------------------------------------------
  General SCF calculation program by
  Eric Jon Sundstrom, Paul Horn, Yuezhi Mao, Dmitri Zuev, Alec White,
  David Stuck, Shaama M.S., Shane Yost, Joonho Lee, David Small,
  Daniel Levine, Susi Lehtola, Hugh Burton, Evgeny Epifanovsky
 -----------------------------------------------------------------------
 Exchange:     0.2000 Hartree-Fock + 0.0800 Slater + 0.7200 B88
 Correlation:  0.1900 VWN1RPA + 0.8100 LYP
 Using SG-1 standard quadrature grid
 using 12 threads for integral computing
 -------------------------------------------------------
 OpenMP Integral computing Module                
 Release: version 1.0, May 2013, Q-Chem Inc. Pittsburgh 
 -------------------------------------------------------
 -------------------------------------------------------
 OpenMP BLAS3 based DFT computing Module                
 Release: version 1.0, May 2013, Q-Chem Inc. Pittsburgh 
 -------------------------------------------------------
 A unrestricted SCF calculation will be
 performed using DIIS
 SCF converges when DIIS error is below 1.0e-06
 Alpha HF Exchange    Energy = -19.61298598807496
 Beta HF Exchange     Energy = -19.61298598807496
 DFT Correlation      Energy =  -5.20029514242427
 DFT Exchange         Energy = -155.87512771630446
 One-Electron (alpha) Energy = -4112.48936848128415
 One-Electron (beta)  Energy = -4112.48936848128415
 Total Coulomb        Energy = 2696.70029412863232
 ---------------------------------------
  Cycle       Energy         DIIS error
 ---------------------------------------
    1   -5272.5566791578      1.83e-01  
 Alpha HF Exchange    Energy = -19.73121305413605
 Beta HF Exchange     Energy = -19.73121305413603
 DFT Correlation      Energy =  -5.24883054684373
 DFT Exchange         Energy = -157.03479530502705
 One-Electron (alpha) Energy = -4123.35871985840095
 One-Electron (beta)  Energy = -4123.35871985840004
 Total Coulomb        Energy = 2726.94479956858413
    2   -5265.4955335974      1.04e-02  
 Alpha HF Exchange    Energy = -19.59108775369456
 Beta HF Exchange     Energy = -19.59108775369455
 DFT Correlation      Energy =  -5.21927476982385
 DFT Exchange         Energy = -155.95012245569927
 One-Electron (alpha) Energy = -4104.16169326101408
 One-Electron (beta)  Energy = -4104.16169326101317
 Total Coulomb        Energy = 2687.56034869386121
    3   -5265.0914520501      6.76e-03  
 Alpha HF Exchange    Energy = -19.69913676335300
 Beta HF Exchange     Energy = -19.69913676335298
 DFT Correlation      Energy =  -5.23208525721526
 DFT Exchange         Energy = -156.73497390585467
 One-Electron (alpha) Energy = -4120.89206352278143
 One-Electron (beta)  Energy = -4120.89206352277870
 Total Coulomb        Energy = 2721.89224549296478
    4   -5265.2340557314      5.67e-03  
 Alpha HF Exchange    Energy = -19.66787625231527
 Beta HF Exchange     Energy = -19.66787625231528
 DFT Correlation      Energy =  -5.23539437383929
 DFT Exchange         Energy = -156.55528820752616
 One-Electron (alpha) Energy = -4116.23425281553136
 One-Electron (beta)  Energy = -4116.23425281553318
 Total Coulomb        Energy = 2711.91362119959467
    5   -5265.6581610065      8.17e-04  
 Alpha HF Exchange    Energy = -19.65162137970845
 Beta HF Exchange     Energy = -19.65162137970844
 DFT Correlation      Energy =  -5.22973527003606
 DFT Exchange         Energy = -156.42275450208598
 One-Electron (alpha) Energy = -4114.60873179203099
 One-Electron (beta)  Energy = -4114.60873179202918
 Total Coulomb        Energy = 2708.48702325975364
    6   -5265.6630143449      4.56e-04  
 Alpha HF Exchange    Energy = -19.65438655012911
 Beta HF Exchange     Energy = -19.65438655012911
 DFT Correlation      Energy =  -5.23130574207911
 DFT Exchange         Energy = -156.44866227654720
 One-Electron (alpha) Energy = -4114.71309114542964
 One-Electron (beta)  Energy = -4114.71309114543055
 Total Coulomb        Energy = 2708.72674417099961
    7   -5265.6650207278      1.77e-04  
 Alpha HF Exchange    Energy = -19.65538533757018
 Beta HF Exchange     Energy = -19.65538533757021
 DFT Correlation      Energy =  -5.23138183575391
 DFT Exchange         Energy = -156.45553717159373
 One-Electron (alpha) Energy = -4114.87651760424524
 One-Electron (beta)  Energy = -4114.87651760424706
 Total Coulomb        Energy = 2709.06220534520980
    8   -5265.6653610348      3.90e-05  
 Alpha HF Exchange    Energy = -19.65545944460809
 Beta HF Exchange     Energy = -19.65545944460812
 DFT Correlation      Energy =  -5.23138564974832
 DFT Exchange         Energy = -156.45578783125464
 One-Electron (alpha) Energy = -4114.89833164719312
 One-Electron (beta)  Energy = -4114.89833164719767
 Total Coulomb        Energy = 2709.10621465725944
    9   -5265.6653824964      7.17e-06  
 Alpha HF Exchange    Energy = -19.65548672187302
 Beta HF Exchange     Energy = -19.65548672187303
 DFT Correlation      Energy =  -5.23138649473194
 DFT Exchange         Energy = -156.45597748377827
 One-Electron (alpha) Energy = -4114.90134523046800
 One-Electron (beta)  Energy = -4114.90134523046800
 Total Coulomb        Energy = 2709.11248640247140
   10   -5265.6653829697      1.93e-06  
 Alpha HF Exchange    Energy = -19.65549321629855
 Beta HF Exchange     Energy = -19.65549321629854
 DFT Correlation      Energy =  -5.23138655157000
 DFT Exchange         Energy = -156.45601968989592
 One-Electron (alpha) Energy = -4114.90218692159306
 One-Electron (beta)  Energy = -4114.90218692159215
 Total Coulomb        Energy = 2709.11422499298988
   11   -5265.6653830133      5.89e-07  Convergence criterion met
 ---------------------------------------
 SCF time:   CPU 42.98s  wall 4.00s 
<S^2> =         -0.000000000
 Alpha HF Exchange    Energy = -19.65549321629855
 Beta HF Exchange     Energy = -19.65549321629854
 DFT Correlation      Energy =  -5.23138655157000
 DFT Exchange         Energy = -156.45601968989592
 One-Electron (alpha) Energy = -4114.90218692159306
 One-Electron (beta)  Energy = -4114.90218692159215
 Total Coulomb        Energy = 2709.11422499298988
 Nuclear repulsion Energy = 456.02315851097296
 SCF   energy in the final basis set =    -5265.6653830133
 Total energy in the final basis set =    -5265.6653830133
 
 --------------------------------------------------------------
 
                    Orbital Energies (a.u.)
 --------------------------------------------------------------
 
 Alpha MOs
 -- Occupied --
*******-482.829 -62.531 -62.486 -56.353 -56.349 -56.349 -56.308
-56.304 -56.304 -10.301 -10.280 -10.242  -8.718  -8.672  -6.549
 -6.535  -6.535  -6.501  -6.490  -6.490  -2.642  -2.639  -2.638
 -2.628  -2.628  -2.594  -2.591  -2.591  -2.582  -2.582  -0.863
 -0.799  -0.719  -0.692  -0.638  -0.532  -0.473  -0.469  -0.448
 -0.396  -0.393  -0.305  -0.298  -0.292  -0.261  -0.261
 -- Virtual --
 -0.138  -0.018   0.064   0.093   0.095   0.120   0.131   0.164
  0.175   0.208   0.226   0.237   0.320   0.328   0.335   0.355
  0.356   0.376   0.452   0.456   0.478   0.504   0.531   0.543
  0.556   0.580   0.583   0.615   0.635   0.641   0.655   0.724
  0.731   0.763   0.780   0.807   0.816   0.831   0.855   0.884
  0.885   0.908   1.057   1.115   1.233   1.271   1.367   1.480
  1.514   1.613   1.632   1.709   1.771   1.783   1.824   1.916
  1.925   2.015   2.026   2.076   2.148   2.171   2.201   2.293
  2.299   2.430   2.434   2.451   2.572   2.583   2.679   2.731
  2.750   2.801   2.831   3.169   3.217   3.329   3.330   3.428
  3.487   4.178   4.339   4.542   4.706   4.721   4.747   4.749
  4.750   4.755   4.788   4.791   4.864   4.962   6.278   6.300
 90.261  90.335
 
 Beta MOs
 -- Occupied --
*******-482.829 -62.531 -62.486 -56.353 -56.349 -56.349 -56.308
-56.304 -56.304 -10.301 -10.280 -10.242  -8.718  -8.672  -6.549
 -6.535  -6.535  -6.501  -6.490  -6.490  -2.642  -2.639  -2.638
 -2.628  -2.628  -2.594  -2.591  -2.591  -2.582  -2.582  -0.863
 -0.799  -0.719  -0.692  -0.638  -0.532  -0.473  -0.469  -0.448
 -0.396  -0.393  -0.305  -0.298  -0.292  -0.261  -0.261
 -- Virtual --
 -0.138  -0.018   0.064   0.093   0.095   0.120   0.131   0.164
  0.175   0.208   0.226   0.237   0.320   0.328   0.335   0.355
  0.356   0.376   0.452   0.456   0.478   0.504   0.531   0.543
  0.556   0.580   0.583   0.615   0.635   0.641   0.655   0.724
  0.731   0.763   0.780   0.807   0.816   0.831   0.855   0.884
  0.885   0.908   1.057   1.115   1.233   1.271   1.367   1.480
  1.514   1.613   1.632   1.709   1.771   1.783   1.824   1.916
  1.925   2.015   2.026   2.076   2.148   2.171   2.201   2.293
  2.299   2.430   2.434   2.451   2.572   2.583   2.679   2.731
  2.750   2.801   2.831   3.169   3.217   3.329   3.330   3.428
  3.487   4.178   4.339   4.542   4.706   4.721   4.747   4.749
  4.750   4.755   4.788   4.791   4.864   4.962   6.278   6.300
 90.261  90.335
 --------------------------------------------------------------
 
          Ground-State Mulliken Net Atomic Charges

     Atom                 Charge (a.u.)    Spin (a.u.)
  --------------------------------------------------------
      1 Br                   -0.334137      -0.000000
      2 Br                   -0.072670       0.000000
      3 C                    -0.200972      -0.000000
      4 C                    -0.155837       0.000000
      5 C                    -0.274730       0.000000
      6 H                     0.170035      -0.000000
      7 H                     0.169918       0.000000
      8 H                     0.184558       0.000000
      9 H                     0.184821       0.000000
     10 H                     0.164460      -0.000000
     11 H                     0.164555      -0.000000
  --------------------------------------------------------
  Sum of atomic charges =    -0.000000
  Sum of spin   charges =     0.000000

 -----------------------------------------------------------------
                    Cartesian Multipole Moments
 -----------------------------------------------------------------
    Charge (ESU x 10^10)
                -0.0000
    Dipole Moment (Debye)
         X       2.7630      Y      -3.2564      Z      -0.0915
       Tot       4.2716
    Quadrupole Moments (Debye-Ang)
        XX     -75.9123     XY       3.1814     YY     -54.9143
        XZ       0.1434     YZ      -0.0152     ZZ     -55.8629
    Octopole Moments (Debye-Ang^2)
       XXX      62.2209    XXY     -23.5653    XYY      10.2561
       YYY     -54.2787    XXZ      -1.6242    XYZ       0.0642
       YYZ      -1.0906    XZZ       8.5783    YZZ     -20.1003
       ZZZ      -3.7555
    Hexadecapole Moments (Debye-Ang^3)
      XXXX   -2534.5501   XXXY      85.5037   XXYY    -423.3632
      XYYY      63.0559   YYYY    -230.1860   XXXZ       4.3134
      XXYZ      -0.3142   XYYZ       1.0832   YYYZ      -2.9576
      XXZZ    -424.2095   XYZZ      21.0407   YYZZ     -49.4018
      XZZZ       3.3928   YZZZ      -2.5942   ZZZZ     -83.9688
 -----------------------------------------------------------------
 Calculating analytic gradient of the SCF energy
 Gradient of SCF Energy
            1           2           3           4           5           6
    1  -0.0348788   0.0000259   0.0001011   0.0348237  -0.0000395   0.0000179
    2   0.0244432  -0.0000615   0.0000498  -0.0244789  -0.0000057  -0.0000220
    3   0.0007173   0.0000187   0.0000026  -0.0007561   0.0000050   0.0000122
            7           8           9          10          11
    1   0.0000132  -0.0000066  -0.0000248  -0.0000065  -0.0000255
    2  -0.0000258   0.0000685   0.0000861  -0.0000259  -0.0000278
    3  -0.0000222  -0.0000161   0.0000153   0.0000096   0.0000138
 Max gradient component =       3.488E-02
 RMS gradient           =       1.048E-02
 Gradient time:  CPU 14.95 s  wall 1.33 s
 Geometry Optimization Parameters
   NAtoms,    NIC,     NZ,  NCons,   NDum,   NFix, NCnnct, MaxDiis
       11      68       0       1       0       0       0       0

 Cartesian Hessian Update
 Hessian Updated using BFGS Update


** CONSTRAINED OPTIMIZATION IN DELOCALIZED INTERNAL COORDINATES **
   Searching for a Minimum

   Optimization Cycle:   6

                       Coordinates (Angstroms)
     ATOM                X               Y               Z
      1  Br       -3.3210030766    0.7870528520    0.0381352116
      2  Br        2.9130147343    0.5621395624    0.0242962236
      3  C         0.0375471168    0.1924758623    0.0160706716
      4  C        -1.1072052640   -0.7578804906   -0.0096215107
      5  C         1.3432804189   -0.6314445652   -0.0031701187
      6  H         0.0086121835    0.8056657143    0.9188840607
      7  H         0.0104114776    0.8512360539   -0.8541183615
      8  H        -1.3832498788   -1.2400960437   -0.9412183857
      9  H        -1.3847446031   -1.2876776882    0.8952198248
     10  H         1.4418488689   -1.2306293607   -0.9081496547
     11  H         1.4413930225   -1.2721398965    0.8730730391
   Point Group: c1    Number of degrees of freedom:    27


   Energy is  -5265.665383013

              Constraints and their Current Values
                                        Value     Constraint
   Distance(Angs):        1   4             2.700000     2.700000
 Hessian Updated using BFGS Update

 26 Hessian modes will be used to form the next step
  Hessian Eigenvalues:
     0.028584    0.043902    0.045011    0.071793    0.078466    0.082250
     0.083412    0.087362    0.094935    0.127714    0.133999    0.159987
     0.160002    0.160162    0.166678    0.200780    0.221242    0.231960
     0.278647    0.346043    0.348062    0.348182    0.348236    0.352697
     0.353973    0.375733

 Minimum Search - Taking Simple RFO Step
 Searching for Lamda that Minimizes Along All modes
 Value Taken    Lamda =   0.00000000
 Step Taken.  Stepsize is  0.002057

                             Maximum     Tolerance    Cnvgd?
         Gradient           0.000083      0.000300     YES
         Displacement       0.001129      0.001200     YES
         Energy change     -0.000001      0.000001     YES


                       Distance Matrix (Angstroms)
             Br(  1)   Br(  2)   C (  3)   C (  4)   C (  5)   H (  6)
   Br(  2)  6.238089
   C (  3)  3.410846  2.899143
   C (  4)  2.700000  4.231521  1.488051
   C (  5)  4.875385  1.972172  1.544071  2.453754
   H (  6)  3.444184  3.048794  1.091747  2.133506  2.167212
   H (  7)  3.449429  3.046358  1.091756  2.133424  2.167716  1.773589
   H (  8)  2.970413  4.757958  2.233233  1.084714  2.946924  3.095546
   H (  9)  2.964489  4.759314  2.233086  1.084643  2.946161  2.514774
   H ( 10)  5.258446  2.499561  2.202606  2.743815  1.089828  3.088481
   H ( 11)  5.255265  2.500135  2.202348  2.745718  1.089917  2.524329
             H (  7)   H (  8)   H (  9)   H ( 10)
   H (  8)  2.514667
   H (  9)  3.095415  1.837055
   H ( 10)  2.527073  2.825308  3.353361
   H ( 11)  3.088628  3.357274  2.826267  1.781706
 
 Final energy is   -5265.66538301329     


 ******************************
 **  OPTIMIZATION CONVERGED  **
 ******************************

                       Coordinates (Angstroms)
     ATOM                X               Y               Z
      1  Br       -3.3210030766    0.7870528520    0.0381352116
      2  Br        2.9130147343    0.5621395624    0.0242962236
      3  C         0.0375471168    0.1924758623    0.0160706716
      4  C        -1.1072052640   -0.7578804906   -0.0096215107
      5  C         1.3432804189   -0.6314445652   -0.0031701187
      6  H         0.0086121835    0.8056657143    0.9188840607
      7  H         0.0104114776    0.8512360539   -0.8541183615
      8  H        -1.3832498788   -1.2400960437   -0.9412183857
      9  H        -1.3847446031   -1.2876776882    0.8952198248
     10  H         1.4418488689   -1.2306293607   -0.9081496547
     11  H         1.4413930225   -1.2721398965    0.8730730391

Z-matrix Print:
$molecule
0 1
Br
C  1 1.972172
H  2 1.089828 1 105.802430
H  2 1.089917 1 105.838190 3 116.330426 0
C  2 1.544071 1 110.485243 3 -121.839737 0
H  5 1.091747 2 109.415726 1 -59.629682 0
H  5 1.091756 2 109.454595 1 59.307022 0
C  5 1.488051 2 108.031841 1 179.845742 0
H  8 1.084643 5 119.630147 2 76.931116 0
H  8 1.084714 5 119.638282 2 -77.008937 0
Br 8 2.700000 5 105.368220 2 179.749883 0
$end

PES scan, value:    2.7000 energy: -5265.6653830133
------- Summary of potential scan: ------ 
    2.7000     -5265.6653830133
----------------------------------------- 
Archival summary:
1\1\hpc0242\JobtypUnspecified\ProcedureUnspecified\6-31G**\r236\knomura\ThuMar1402:46:532019ThuMar1402:46:532019\0\\#,JobtypUnspecified,ProcedureUnspecified,6-31G**,\\0,1\Br\C,1,1.97217\H,2,1.08983,1,105.802\H,2,1.08992,1,105.838,3,116.33,0\C,2,1.54407,1,110.485,3,-121.84,0\H,5,1.09175,2,109.416,1,-59.6297,0\H,5,1.09176,2,109.455,1,59.307,0\C,5,1.48805,2,108.032,1,179.846,0\H,8,1.08464,5,119.63,2,76.9311,0\H,8,1.08471,5,119.638,2,-77.0089,0\Br,8,2.7,5,105.368,2,179.75,0\\\@

 Total job time:  33.33s(wall), 379.66s(cpu) 
 Thu Mar 14 02:46:53 2019

        *************************************************************
        *                                                           *
        *  Thank you very much for using Q-Chem.  Have a nice day.  *
        *                                                           *
        *************************************************************


