
Running Job 1 of 1 halogens/Bromine/04/Br_1_4.xyz.data/inputs/bond_triplet_5.3.in
qchem halogens/Bromine/04/Br_1_4.xyz.data/inputs/bond_triplet_5.3.in_21203.0 /staging/scratch/2868759/qchem21203/ 1
/usr/usc/qchem/5.1.1/exe/qcprog.exe_s halogens/Bromine/04/Br_1_4.xyz.data/inputs/bond_triplet_5.3.in_21203.0 /staging/scratch/2868759/qchem21203/
Check license passed

                  Welcome to Q-Chem
     A Quantum Leap Into The Future Of Chemistry


 Q-Chem 5.1, Q-Chem, Inc., Pleasanton, CA (2018)

 Yihan Shao,  Zhengting Gan,  E. Epifanovsky,  A. T. B. Gilbert,  M. Wormit,  
 J. Kussmann,  A. W. Lange,  A. Behn,  Jia Deng,  Xintian Feng,  D. Ghosh,  
 M. Goldey,  P. R. Horn,  L. D. Jacobson,  I. Kaliman,  T. Kus,  A. Landau,  
 Jie Liu,  E. I. Proynov,  R. M. Richard,  R. P. Steele,  E. J. Sundstrom,  
 H. L. Woodcock III,  P. M. Zimmerman,  D. Zuev,  B. Albrecht,  E. Alguire,  
 S. A. Baeppler,  D. Barton,  Z. Benda,  Y. A. Bernard,  E. J. Berquist,  
 K. B. Bravaya,  H. Burton,  D. Casanova,  Chun-Min Chang,  Yunqing Chen,  
 A. Chien,  K. D. Closser,  M. P. Coons,  S. Coriani,  S. Dasgupta,  
 A. L. Dempwolff,  M. Diedenhofen,  Hainam Do,  R. G. Edgar,  Po-Tung Fang,  
 S. Faraji,  S. Fatehi,  Qingguo Feng,  K. D. Fenk,  J. Fosso-Tande,  
 Qinghui Ge,  A. Ghysels,  G. Gidofalvi,  J. Gomes,  J. Gonthier,  A. Gunina,  
 D. Hait,  M. W. D. Hanson-Heine,  P. H. P. Harbach,  A. W. Hauser,  
 J. E. Herr,  E. G. Hohenstein,  Z. C. Holden,  Kerwin Hui,  B. C. Huynh,  
 T.-C. Jagau,  Hyunjun Ji,  B. Kaduk,  K. Khistyaev,  Jaehoon Kim,  
 P. Klunzinger,  K. Koh,  D. Kosenkov,  L. Koulias,  T. Kowalczyk,  
 C. M. Krauter,  A. Kunitsa,  Ka Un Lao,  A. Laurent,  K. V. Lawler,  
 Joonho Lee,  D. Lefrancois,  S. Lehtola,  D. S. Levine,  Yi-Pei Li,  
 You-Sheng Lin,  Fenglai Liu,  E. Livshits,  A. Luenser,  P. Manohar,  
 E. Mansoor,  S. F. Manzer,  Shan-Ping Mao,  Yuezhi Mao,  N. Mardirossian,  
 A. V. Marenich,  T. Markovich,  L. A. Martinez-Martinez,  S. A. Maurer,  
 N. J. Mayhall,  S. C. McKenzie,  J.-M. Mewes,  A. F. Morrison,  
 J. W. Mullinax,  K. Nanda,  T. S. Nguyen-Beck,  R. Olivares-Amaya,  
 J. A. Parkhill,  T. M. Perrine,  F. Plasser,  P. Pokhilko,  S. Prager,  
 A. Prociuk,  E. Ramos,  D. R. Rehn,  F. Rob,  M. Schneider,  N. Sergueev,  
 S. M. Sharada,  S. Sharma,  D. W. Small,  T. Stauch,  T. Stein,  
 Yu-Chuan Su,  A. J. W. Thom,  A. Tkatchenko,  T. Tsuchimochi,  N. M. Tubman,  
 L. Vogt,  M. L. Vidal,  O. Vydrov,  M. A. Watson,  J. Wenzel,  
 M. de Wergifosse,  T. A. Wesolowski,  A. White,  J. Witte,  A. Yamada,  
 Jun Yang,  K. Yao,  S. Yeganeh,  S. R. Yost,  Zhi-Qiang You,  A. Zech,  
 Igor Ying Zhang,  Xing Zhang,  Yan Zhao,  Ying Zhu,  B. R. Brooks,  
 G. K. L. Chan,  C. J. Cramer,  M. S. Gordon,  W. J. Hehre,  A. Klamt,  
 M. W. Schmidt,  C. D. Sherrill,  D. G. Truhlar,  A. Aspuru-Guzik,  R. Baer,  
 A. T. Bell,  N. A. Besley,  Jeng-Da Chai,  A. E. DePrince, III,  
 R. A. DiStasio Jr.,  A. Dreuw,  B. D. Dunietz,  T. R. Furlani,  
 Chao-Ping Hsu,  Yousung Jung,  Jing Kong,  D. S. Lambrecht,  WanZhen Liang,  
 C. Ochsenfeld,  V. A. Rassolov,  L. V. Slipchenko,  J. E. Subotnik,  
 T. Van Voorhis,  J. M. Herbert,  A. I. Krylov,  P. M. W. Gill,  M. Head-Gordon

 Contributors to earlier versions of Q-Chem not listed above: 
 R. D. Adamson,  B. Austin,  J. Baker,  G. J. O. Beran,  K. Brandhorst,  
 S. T. Brown,  E. F. C. Byrd,  A. K. Chakraborty,  C.-L. Cheng,  
 Siu Hung Chien,  D. M. Chipman,  D. L. Crittenden,  H. Dachsel,  
 R. J. Doerksen,  A. D. Dutoi,  L. Fusti-Molnar,  W. A. Goddard III,  
 A. Golubeva-Zadorozhnaya,  S. R. Gwaltney,  G. Hawkins,  A. Heyden,  
 S. Hirata,  G. Kedziora,  F. J. Keil,  C. Kelley,  Jihan Kim,  R. A. King,  
 R. Z. Khaliullin,  P. P. Korambath,  W. Kurlancheek,  A. M. Lee,  M. S. Lee,  
 S. V. Levchenko,  Ching Yeh Lin,  D. Liotard,  R. C. Lochan,  I. Lotan,  
 P. E. Maslen,  N. Nair,  D. P. O'Neill,  D. Neuhauser,  E. Neuscamman,  
 C. M. Oana,  R. Olson,  B. Peters,  R. Peverati,  P. A. Pieniazek,  
 Y. M. Rhee,  J. Ritchie,  M. A. Rohrdanz,  E. Rosta,  N. J. Russ,  
 H. F. Schaefer III,  N. E. Schultz,  N. Shenvi,  A. C. Simmonett,  A. Sodt,  
 D. Stuck,  K. S. Thanthiriwatte,  V. Vanovschi,  Tao Wang,  A. Warshel,  
 C. F. Williams,  Q. Wu,  X. Xu,  W. Zhang

 Please cite Q-Chem as follows:
 Y. Shao et al., Mol. Phys. 113, 184-215 (2015)
 DOI: 10.1080/00268976.2014.952696

 Q-Chem 5.1.1 for Intel X86 EM64T Linux

 Parts of Q-Chem use Armadillo 8.300.2 (Tropical Shenanigans).
 http://arma.sourceforge.net/

 Q-Chem begins on Thu Mar 14 05:43:08 2019  

Host: 
0

     Scratch files written to /staging/scratch/2868759/qchem21203//
 Aug318 |scratch|qcdevops|jenkins|workspace|build_RNUM 6013   
Processing $rem in /usr/usc/qchem/5.1.1/config/preferences.
 MEM_TOTAL  2000 
Input Ideriv = 2
Curr. Ideriv = -1
Max.  Ideriv = 2

Checking the input file for inconsistencies... 	...done.

--------------------------------------------------------------
User input:
--------------------------------------------------------------

$comment
potential surface scanner
$end

$rem
JOBTYPE  PES_SCAN
UNRESTRICTED TRUE
SYM_IGNORE  TRUE
GEOM_OPT_MAX_CYCLES 400
SCF_MAX_CYCLES 400
METHOD   B3LYP
BASIS   6-31G**
PDB_PRINT 2
SCF_CONVERGENCE 6
THRESH 14
SCF_PRINT 1
$end
$molecule
0 3
Br -5.035798 2.230740 0.002033
Br 2.927377 0.848698 0.013439
C 0.135373 -0.047264 0.021645
C -0.844003 -1.173498 -0.002328
C 1.569800 -0.597176 -0.003000
H 0.007289 0.563040 0.922301
H -0.004791 0.609648 -0.843766
H -1.160271 -1.615676 -0.941144
H -1.154987 -1.661802 0.915044
H 1.771617 -1.170303 -0.907212
H 1.788297 -1.207708 0.872387
$end
$scan
stre 1 4 5.300000 5.301000 0.100000
$end
--------------------------------------------------------------
 ----------------------------------------------------------------
             Standard Nuclear Orientation (Angstroms)
    I     Atom           X                Y                Z
 ----------------------------------------------------------------
    1      Br     -5.0357980000     2.2307400000     0.0020330000
    2      Br      2.9273770000     0.8486980000     0.0134390000
    3      C       0.1353730000    -0.0472640000     0.0216450000
    4      C      -0.8440030000    -1.1734980000    -0.0023280000
    5      C       1.5698000000    -0.5971760000    -0.0030000000
    6      H       0.0072890000     0.5630400000     0.9223010000
    7      H      -0.0047910000     0.6096480000    -0.8437660000
    8      H      -1.1602710000    -1.6156760000    -0.9411440000
    9      H      -1.1549870000    -1.6618020000     0.9150440000
   10      H       1.7716170000    -1.1703030000    -0.9072120000
   11      H       1.7882970000    -1.2077080000     0.8723870000
 ----------------------------------------------------------------
 Nuclear Repulsion Energy =   378.0598211716 hartrees
 There are       48 alpha and       46 beta electrons
 Requested basis set is 6-31G(d,p)
 There are 46 shells and 145 basis functions

 Total QAlloc Memory Limit   2000 MB
 Mega-Array Size       188 MB
 MEM_STATIC part       192 MB
A total of 1 constraints
  
            1
    1   1.0100000
    2   1.0100000
    3   4.0100000
    4   5.3000000
    5   5.3010000
    6   0.1000000
    7   0.0000000
    8   0.0000000
    9   0.0000000
   10   0.0000000

                       Distance Matrix (Angstroms)
             Br(  1)   Br(  2)   C (  3)   C (  4)   C (  5)   H (  6)
   Br(  2)  8.082223
   C (  3)  5.650725  2.932252
   C (  4)  5.400000  4.279350  1.492701
   C (  5)  7.185476  1.983390  1.536422  2.481651
   H (  6)  5.390811  3.071570  1.095471  2.143642  2.154930
   H (  7)  5.352975  3.064238  1.095498  2.142873  2.154681  1.766723
   H (  8)  5.541138  4.867570  2.250683  1.084861  3.061167  3.095550
   H (  9)  5.571909  4.876597  2.251649  1.084769  3.066056  2.510151
   H ( 10)  7.663858  2.501948  2.191184  2.767723  1.089405  3.076434
   H ( 11)  7.690820  2.502819  2.191472  2.774040  1.089400  2.511977
             H (  7)   H (  8)   H (  9)   H ( 10)
   H (  8)  2.509319
   H (  9)  3.094487  1.856769
   H ( 10)  2.515527  2.965717  3.482413
   H ( 11)  3.076220  3.485597  2.978413  1.780070
 
 A cutoff of  1.0D-14 yielded    862 shell pairs
 There are      7993 function pairs
 
 -------------------------------------------------------
 OpenMP Integral Computing Module                       
 Release: version 1.0, May 2013, Q-Chem Inc. Pittsburgh 
 -------------------------------------------------------
 Integral Job Info:
 Integral job number is                      11
 Integral operator is                         1
 short-range coefficients                     0
 long-range coefficients              100000000
 Omega coefficients                           0
 if combine SR and LR in K                    0
 Integral screening is                        0
 Integral computing path is                   2
 max size of driver memory is            800000
 size of driver memory is                593474
 size of scratch memory is             15267112
 max col of scratch BK array               1296
 max len of scratch array in speh3          155
 max len of scratch index in speh4           18
 max int batch size is                      520
 min int batch size is                       52
 fixed nKL is                                52
 max L of basis functions is                  2
 order of int derivative is                   0
 number of shells is                         46
 number of basis is                         145
 number of cartesian basis is               145
 number of contracted shell pairs           862
 number of primitive shell pairs           3661
 maxK2 (contraction) of shell pair           36
 max number of K2 of shell pair               1
 max number of CS2 of shell pair             58
 max number of PS2 of shell pair            342
 mem total for path MDJ                  524076
 -------------------------------------------------------
 Smallest overlap matrix eigenvalue = 7.23E-04

 Scale SEOQF with 1.000000e-01/1.000000e-01/1.000000e+00

 Standard Electronic Orientation quadrupole field applied
 Nucleus-field energy     =     0.0000000538 hartrees
 Guess from superposition of atomic densities
 Warning:  Energy on first SCF cycle will be non-variational
 SAD guess density has 93.945746 electrons

 -----------------------------------------------------------------------
  General SCF calculation program by
  Eric Jon Sundstrom, Paul Horn, Yuezhi Mao, Dmitri Zuev, Alec White,
  David Stuck, Shaama M.S., Shane Yost, Joonho Lee, David Small,
  Daniel Levine, Susi Lehtola, Hugh Burton, Evgeny Epifanovsky
 -----------------------------------------------------------------------
 Exchange:     0.2000 Hartree-Fock + 0.0800 Slater + 0.7200 B88
 Correlation:  0.1900 VWN1RPA + 0.8100 LYP
 Using SG-1 standard quadrature grid
 using 12 threads for integral computing
 -------------------------------------------------------
 OpenMP Integral computing Module                
 Release: version 1.0, May 2013, Q-Chem Inc. Pittsburgh 
 -------------------------------------------------------
 -------------------------------------------------------
 OpenMP BLAS3 based DFT computing Module                
 Release: version 1.0, May 2013, Q-Chem Inc. Pittsburgh 
 -------------------------------------------------------
 A unrestricted SCF calculation will be
 performed using DIIS
 SCF converges when DIIS error is below 1.0e-06
 Alpha HF Exchange    Energy = -19.60520475257133
 Beta HF Exchange     Energy = -19.60520475257133
 DFT Correlation      Energy =  -5.19171143101271
 DFT Exchange         Energy = -155.86314082596073
 One-Electron (alpha) Energy = -4034.57322456915290
 One-Electron (beta)  Energy = -4034.57322456915290
 Total Coulomb        Energy = 2619.03148672927910
 ---------------------------------------
  Cycle       Energy         DIIS error
 ---------------------------------------
    1   -5272.3204029458      1.83e-01  
 Alpha HF Exchange    Energy = -19.82771997455858
 Beta HF Exchange     Energy = -19.63028239064126
 DFT Correlation      Energy =  -5.23440185695753
 DFT Exchange         Energy = -157.02518801496390
 One-Electron (alpha) Energy = -4063.75010276235525
 One-Electron (beta)  Energy = -4021.80647571534837
 Total Coulomb        Energy = 2643.96968787411561
    2   -5265.2446616153      1.05e-02  
 Alpha HF Exchange    Energy = -19.68925285265483
 Beta HF Exchange     Energy = -19.54743833673997
 DFT Correlation      Energy =  -5.21257988138788
 DFT Exchange         Energy = -156.17130812585896
 One-Electron (alpha) Energy = -4040.08769879802185
 One-Electron (beta)  Energy = -4006.94533124502141
 Total Coulomb        Energy = 2612.37405937125141
    3   -5257.2197286431      1.11e-02  
 Alpha HF Exchange    Energy = -19.74735747464320
 Beta HF Exchange     Energy = -19.49150556946827
 DFT Correlation      Energy =  -5.16141224308735
 DFT Exchange         Energy = -156.21713612234910
 One-Electron (alpha) Energy = -4045.55759428026658
 One-Electron (beta)  Energy = -3997.59606914197639
 Total Coulomb        Energy = 2635.16442648205884
    4   -5230.5468271244      1.94e-02  
 Alpha HF Exchange    Energy = -19.79406218661808
 Beta HF Exchange     Energy = -19.59950806202717
 DFT Correlation      Energy =  -5.22830396992354
 DFT Exchange         Energy = -156.78075669324139
 One-Electron (alpha) Energy = -4063.09326321798744
 One-Electron (beta)  Energy = -4022.01953464618691
 Total Coulomb        Energy = 2643.20891709105717
    5   -5265.2466904596      3.45e-03  
 Alpha HF Exchange    Energy = -19.74515353474173
 Beta HF Exchange     Energy = -19.55505532057861
 DFT Correlation      Energy =  -5.21045991082792
 DFT Exchange         Energy = -156.37730235337278
 One-Electron (alpha) Energy = -4054.89363234538132
 One-Electron (beta)  Energy = -4014.66319700371105
 Total Coulomb        Energy = 2626.80459096998493
    6   -5265.5803882733      1.49e-03  
 Alpha HF Exchange    Energy = -19.75843968489417
 Beta HF Exchange     Energy = -19.57118692512158
 DFT Correlation      Energy =  -5.21319831680544
 DFT Exchange         Energy = -156.49273942123457
 One-Electron (alpha) Energy = -4056.60345946098778
 One-Electron (beta)  Energy = -4016.27993224315651
 Total Coulomb        Energy = 2630.26785125650849
    7   -5265.5912835703      9.11e-04  
 Alpha HF Exchange    Energy = -19.75846585664964
 Beta HF Exchange     Energy = -19.56955999010858
 DFT Correlation      Energy =  -5.21268280395798
 DFT Exchange         Energy = -156.48371659126127
 One-Electron (alpha) Energy = -4056.50774674657168
 One-Electron (beta)  Energy = -4016.19009644580456
 Total Coulomb        Energy = 2630.06407167946054
    8   -5265.5983755295      5.22e-04  
 Alpha HF Exchange    Energy = -19.75828575342851
 Beta HF Exchange     Energy = -19.56899473483789
 DFT Correlation      Energy =  -5.21272035089544
 DFT Exchange         Energy = -156.48077789430056
 One-Electron (alpha) Energy = -4056.48802104894639
 One-Electron (beta)  Energy = -4016.12737031557754
 Total Coulomb        Energy = 2629.97598334772465
    9   -5265.6003655249      4.12e-04  
 Alpha HF Exchange    Energy = -19.75989742926448
 Beta HF Exchange     Energy = -19.57024235106357
 DFT Correlation      Energy =  -5.21260157404548
 DFT Exchange         Energy = -156.49033694267854
 One-Electron (alpha) Energy = -4056.71853129870669
 One-Electron (beta)  Energy = -4016.32381614904716
 Total Coulomb        Energy = 2630.41334305851569
   10   -5265.6022614609      1.85e-04  
 Alpha HF Exchange    Energy = -19.76154361157419
 Beta HF Exchange     Energy = -19.57127447040654
 DFT Correlation      Energy =  -5.21300847128248
 DFT Exchange         Energy = -156.50081747214944
 One-Electron (alpha) Energy = -4056.86439365056412
 One-Electron (beta)  Energy = -4016.43167640338197
 Total Coulomb        Energy = 2630.68022621899718
   11   -5265.6026666350      7.24e-05  
 Alpha HF Exchange    Energy = -19.76150145863917
 Beta HF Exchange     Energy = -19.57116289621656
 DFT Correlation      Energy =  -5.21296587804333
 DFT Exchange         Energy = -156.50005321766992
 One-Electron (alpha) Energy = -4056.89133669734156
 One-Electron (beta)  Energy = -4016.44413389002057
 Total Coulomb        Energy = 2630.71858908755303
   12   -5265.6027437250      1.38e-05  
 Alpha HF Exchange    Energy = -19.76154316102822
 Beta HF Exchange     Energy = -19.57115648458263
 DFT Correlation      Energy =  -5.21298107505093
 DFT Exchange         Energy = -156.50020660369472
 One-Electron (alpha) Energy = -4056.89228026532510
 One-Electron (beta)  Energy = -4016.44107622667980
 Total Coulomb        Energy = 2630.71667569372630
   13   -5265.6027468973      3.23e-06  
 Alpha HF Exchange    Energy = -19.76156353647997
 Beta HF Exchange     Energy = -19.57118345584023
 DFT Correlation      Energy =  -5.21298852918688
 DFT Exchange         Energy = -156.50039570750064
 One-Electron (alpha) Energy = -4056.89710123517398
 One-Electron (beta)  Energy = -4016.44567319725911
 Total Coulomb        Energy = 2630.72633731883388
   14   -5265.6027471172      1.48e-06  
 Alpha HF Exchange    Energy = -19.76155057978912
 Beta HF Exchange     Energy = -19.57117645148703
 DFT Correlation      Energy =  -5.21298861755904
 DFT Exchange         Energy = -156.50032249987964
 One-Electron (alpha) Energy = -4056.89590382161168
 One-Electron (beta)  Energy = -4016.44476425256880
 Total Coulomb        Energy = 2630.72413778420832
   15   -5265.6027472133      7.16e-07  Convergence criterion met
 ---------------------------------------
 SCF time:   CPU 52.31s  wall 4.00s 
<S^2> =          2.005397743
 Alpha HF Exchange    Energy = -19.76155057978912
 Beta HF Exchange     Energy = -19.57117645148703
 DFT Correlation      Energy =  -5.21298861755904
 DFT Exchange         Energy = -156.50032249987964
 One-Electron (alpha) Energy = -4056.89590382161168
 One-Electron (beta)  Energy = -4016.44476425256880
 Total Coulomb        Energy = 2630.72413778420832
 Nuclear repulsion Energy = 378.05982122537489
 SCF   energy in the final basis set =    -5265.6027472133
 Total energy in the final basis set =    -5265.6027472133
 
 --------------------------------------------------------------
 
                    Orbital Energies (a.u.)
 --------------------------------------------------------------
 
 Alpha MOs
 -- Occupied --
*******-482.846 -62.560 -62.504 -56.384 -56.376 -56.376 -56.325
-56.322 -56.322 -10.248 -10.208 -10.207  -8.747  -8.691  -6.584
 -6.561  -6.561  -6.521  -6.509  -6.509  -2.674  -2.669  -2.669
 -2.652  -2.652  -2.615  -2.611  -2.611  -2.601  -2.601  -0.826
 -0.799  -0.762  -0.665  -0.600  -0.492  -0.432  -0.429  -0.417
 -0.374  -0.359  -0.359  -0.325  -0.325  -0.276  -0.273  -0.220
 -- Virtual --
  0.002   0.094   0.121   0.123   0.143   0.155   0.165   0.196
  0.210   0.243   0.255   0.284   0.308   0.309   0.341   0.350
  0.358   0.475   0.485   0.501   0.531   0.542   0.542   0.542
  0.549   0.573   0.579   0.579   0.609   0.618   0.625   0.679
  0.731   0.785   0.815   0.816   0.842   0.857   0.884   0.905
  0.928   0.992   1.151   1.214   1.310   1.423   1.481   1.493
  1.655   1.667   1.674   1.736   1.810   1.856   1.930   1.975
  2.008   2.057   2.109   2.173   2.203   2.236   2.327   2.338
  2.426   2.463   2.514   2.589   2.595   2.688   2.764   2.772
  2.844   2.876   3.198   3.259   3.370   3.372   3.446   3.541
  4.207   4.366   4.574   4.646   4.654   4.654   4.679   4.679
  4.731   4.746   4.812   4.814   4.985   6.203   6.304  90.119
 90.360
 
 Beta MOs
 -- Occupied --
*******-482.846 -62.558 -62.504 -56.378 -56.375 -56.375 -56.325
-56.322 -56.322 -10.246 -10.208 -10.195  -8.743  -8.691  -6.573
 -6.560  -6.560  -6.521  -6.509  -6.509  -2.666  -2.663  -2.663
 -2.651  -2.651  -2.615  -2.611  -2.611  -2.601  -2.601  -0.821
 -0.756  -0.752  -0.649  -0.588  -0.489  -0.426  -0.423  -0.407
 -0.357  -0.354  -0.311  -0.311  -0.274  -0.273
 -- Virtual --
 -0.238  -0.071   0.013   0.096   0.125   0.129   0.148   0.157
  0.173   0.200   0.214   0.247   0.262   0.313   0.313   0.313
  0.343   0.350   0.359   0.479   0.486   0.511   0.544   0.582
  0.586   0.587   0.588   0.588   0.588   0.593   0.619   0.626
  0.636   0.688   0.734   0.788   0.818   0.820   0.845   0.859
  0.891   0.909   0.931   1.008   1.154   1.222   1.322   1.460
  1.485   1.501   1.655   1.686   1.692   1.744   1.820   1.861
  1.933   2.008   2.033   2.059   2.109   2.179   2.204   2.237
  2.335   2.340   2.443   2.473   2.529   2.596   2.603   2.694
  2.765   2.775   2.847   2.879   3.200   3.263   3.372   3.377
  3.451   3.545   4.221   4.386   4.576   4.665   4.668   4.668
  4.682   4.682   4.731   4.746   4.813   4.815   4.985   6.219
  6.305  90.126  90.360
 --------------------------------------------------------------
 
          Ground-State Mulliken Net Atomic Charges

     Atom                 Charge (a.u.)    Spin (a.u.)
  --------------------------------------------------------
      1 Br                   -0.000057       1.000116
      2 Br                   -0.131844       0.032268
      3 C                    -0.194533      -0.074155
      4 C                    -0.226133       1.065418
      5 C                    -0.242834       0.042852
      6 H                     0.129465       0.013595
      7 H                     0.129853       0.014051
      8 H                     0.115401      -0.047140
      9 H                     0.115501      -0.047141
     10 H                     0.152566       0.000040
     11 H                     0.152616       0.000096
  --------------------------------------------------------
  Sum of atomic charges =    -0.000000
  Sum of spin   charges =     2.000000

 -----------------------------------------------------------------
                    Cartesian Multipole Moments
 -----------------------------------------------------------------
    Charge (ESU x 10^10)
                -0.0000
    Dipole Moment (Debye)
         X      -1.7722      Y      -1.5914      Z      -0.0164
       Tot       2.3819
    Quadrupole Moments (Debye-Ang)
        XX     -63.4060     XY      -1.2792     YY     -54.4132
        XZ       0.0538     YZ       0.1149     ZZ     -56.1302
    Octopole Moments (Debye-Ang^2)
       XXX      78.3144    XXY     -59.8819    XYY      30.9770
       YYY    -121.3081    XXZ      -1.2573    XYZ      -0.5256
       YYZ       0.3608    XZZ      33.9348    YZZ     -47.7727
       ZZZ      -1.2085
    Hexadecapole Moments (Debye-Ang^3)
      XXXX   -3988.1908   XXXY     570.2054   XXYY    -785.8248
      XYYY     449.0897   YYYY    -732.5280   XXXZ       4.3973
      XXYZ       1.6770   XYYZ      -3.1982   YYYZ       1.0504
      XXZZ    -689.1314   XYZZ     163.8243   YYZZ    -144.2180
      XZZZ      -1.6531   YZZZ      -0.7220   ZZZZ     -84.7269
 -----------------------------------------------------------------
 Calculating analytic gradient of the SCF energy
 Gradient of SCF Energy
            1           2           3           4           5           6
    1  -0.0000195  -0.0000430  -0.0000872   0.0000019   0.0000692  -0.0000437
    2  -0.0001766   0.0000549   0.0001382   0.0000394  -0.0000671  -0.0001079
    3  -0.0000095   0.0000339   0.0000400  -0.0000062  -0.0000329   0.0001151
            7           8           9          10          11
    1  -0.0000361   0.0000844   0.0000545   0.0000136   0.0000057
    2  -0.0000575   0.0000310   0.0000284   0.0000676   0.0000498
    3  -0.0000971   0.0000288  -0.0000767  -0.0000050   0.0000096
 Max gradient component =       1.766E-04
 RMS gradient           =       6.622E-05
 Gradient time:  CPU 12.65 s  wall 1.13 s
 Geometry Optimization Parameters
   NAtoms,    NIC,     NZ,  NCons,   NDum,   NFix, NCnnct, MaxDiis
       11     156       0       1       0       0       0       0


** CONSTRAINED OPTIMIZATION IN DELOCALIZED INTERNAL COORDINATES **
   Searching for a Minimum

   Optimization Cycle:   1

                       Coordinates (Angstroms)
     ATOM                X               Y               Z
      1  Br       -5.0357980000    2.2307400000    0.0020330000
      2  Br        2.9273770000    0.8486980000    0.0134390000
      3  C         0.1353730000   -0.0472640000    0.0216450000
      4  C        -0.8440030000   -1.1734980000   -0.0023280000
      5  C         1.5698000000   -0.5971760000   -0.0030000000
      6  H         0.0072890000    0.5630400000    0.9223010000
      7  H        -0.0047910000    0.6096480000   -0.8437660000
      8  H        -1.1602710000   -1.6156760000   -0.9411440000
      9  H        -1.1549870000   -1.6618020000    0.9150440000
     10  H         1.7716170000   -1.1703030000   -0.9072120000
     11  H         1.7882970000   -1.2077080000    0.8723870000
   Point Group: c1    Number of degrees of freedom:    27


   Energy is  -5265.602747213

              Constraints and their Current Values
                                        Value     Constraint
   Distance(Angs):        1   4             5.400000     5.300000

 Attempting to Generate Delocalized Internal Coordinates

   Using Lagrange Multiplier Algorithm


 28 Hessian modes will be used to form the next step
  Hessian Eigenvalues:
    -0.998676    0.027997    0.045035    0.048503    0.048633    0.050988
     0.056521    0.061995    0.062393    0.062900    0.068534    0.068783
     0.085793    0.122976    0.130978    0.157194    0.159684    0.159884
     0.221190    0.250980    0.272102    0.282359    0.288254    0.297013
     0.319998    0.348814    0.348820    1.001325

 Minimum Search - Taking P-RFO Step
 Searching for Lamda that Maximizes Along the Constraint modes Only
 Value Taken    Lamda =   0.01759855
 Searching for Lamda that Minimizes Along All other modes
 Value Taken    Lamda =  -0.01749667
 Step Taken.  Stepsize is  0.185719

                             Maximum     Tolerance    Cnvgd?
         Gradient            0.188973       0.000300      NO
         Displacement        0.185714       0.001200      NO
         Energy change     *********       0.000001      NO


 New Cartesian Coordinates Obtained by Inverse Iteration

 Displacement from previous Coordinates is:  0.175910
 ----------------------------------------------------------------
             Standard Nuclear Orientation (Angstroms)
    I     Atom           X                Y                Z
 ----------------------------------------------------------------
    1      Br     -5.0025631976     2.1890210395     0.0018409232
    2      Br      2.9303627678     0.8565901379     0.0137620381
    3      C       0.1407324832    -0.0460239396     0.0214953076
    4      C      -0.8865951303    -1.1526954586    -0.0026972959
    5      C       1.5764112078    -0.5927672076    -0.0029359834
    6      H       0.0278402279     0.5570979366     0.9250625852
    7      H       0.0157594858     0.6035355464    -0.8467032744
    8      H      -1.1919264242    -1.6108487934    -0.9516911655
    9      H      -1.1867345555    -1.6575700220     0.9259601984
   10      H       1.7800621765    -1.1650845956    -0.9072587202
   11      H       1.7965539587    -1.2025556436     0.8725643869
 ----------------------------------------------------------------
 Nuclear Repulsion Energy =   378.5880582996 hartrees
 There are       48 alpha and       46 beta electrons

                       Distance Matrix (Angstroms)
             Br(  1)   Br(  2)   C (  3)   C (  4)   C (  5)   H (  6)
   Br(  2)  8.044055
   C (  3)  5.607968  2.932032
   C (  4)  5.301725  4.313545  1.510202
   C (  5)  7.142918  1.983457  1.536456  2.525850
   H (  6)  5.368470  3.056927  1.092215  2.149494  2.140431
   H (  7)  5.330793  3.049483  1.091474  2.147309  2.139794  1.772415
   H (  8)  5.465271  4.900370  2.274148  1.097142  3.098438  3.116092
   H (  9)  5.496436  4.909541  2.275369  1.098812  3.103486  2.525856
   H ( 10)  7.621056  2.501727  2.191411  2.815927  1.089413  3.064897
   H ( 11)  7.647807  2.502628  2.191718  2.822739  1.089406  2.495493
             H (  7)   H (  8)   H (  9)   H ( 10)
   H (  8)  2.524485
   H (  9)  3.114631  1.878240
   H ( 10)  2.498889  3.005561  3.522090
   H ( 11)  3.064160  3.525000  3.018261  1.780294
 
 Applying Cartesian multipole field
    Component          Value
    ---------          -----
     (2,0,0)        1.00000E-11
     (0,2,0)        2.00000E-11
     (0,0,2)       -3.00000E-10
 Nucleus-field energy     =     0.0000000529 hartrees
 Requested basis set is 6-31G(d,p)
 There are 46 shells and 145 basis functions
 A cutoff of  1.0D-14 yielded    864 shell pairs
 There are      8012 function pairs
 Smallest overlap matrix eigenvalue = 7.23E-04
 Guess from superposition of atomic densities
 Warning:  Energy on first SCF cycle will be non-variational
 SAD guess density has 93.945746 electrons

 -----------------------------------------------------------------------
  General SCF calculation program by
  Eric Jon Sundstrom, Paul Horn, Yuezhi Mao, Dmitri Zuev, Alec White,
  David Stuck, Shaama M.S., Shane Yost, Joonho Lee, David Small,
  Daniel Levine, Susi Lehtola, Hugh Burton, Evgeny Epifanovsky
 -----------------------------------------------------------------------
 Exchange:     0.2000 Hartree-Fock + 0.0800 Slater + 0.7200 B88
 Correlation:  0.1900 VWN1RPA + 0.8100 LYP
 Using SG-1 standard quadrature grid
 using 12 threads for integral computing
 -------------------------------------------------------
 OpenMP Integral computing Module                
 Release: version 1.0, May 2013, Q-Chem Inc. Pittsburgh 
 -------------------------------------------------------
 -------------------------------------------------------
 OpenMP BLAS3 based DFT computing Module                
 Release: version 1.0, May 2013, Q-Chem Inc. Pittsburgh 
 -------------------------------------------------------
 A unrestricted SCF calculation will be
 performed using DIIS
 SCF converges when DIIS error is below 1.0e-06
 Alpha HF Exchange    Energy = -19.60208350178901
 Beta HF Exchange     Energy = -19.60208350178901
 DFT Correlation      Energy =  -5.19094480232532
 DFT Exchange         Energy = -155.85669419739213
 One-Electron (alpha) Energy = -4035.11846428537592
 One-Electron (beta)  Energy = -4035.11846428537592
 Total Coulomb        Energy = 2619.60407907269291
 ---------------------------------------
  Cycle       Energy         DIIS error
 ---------------------------------------
    1   -5272.2965971488      1.83e-01  
 Alpha HF Exchange    Energy = -19.82565094676173
 Beta HF Exchange     Energy = -19.62867527138681
 DFT Correlation      Energy =  -5.23327858453536
 DFT Exchange         Energy = -157.01132657193855
 One-Electron (alpha) Energy = -4064.22222692130617
 One-Electron (beta)  Energy = -4022.35800478177407
 Total Coulomb        Energy = 2644.44697861077339
    2   -5265.2441261144      1.05e-02  
 Alpha HF Exchange    Energy = -19.68788156739254
 Beta HF Exchange     Energy = -19.54561535787408
 DFT Correlation      Energy =  -5.21169464773873
 DFT Exchange         Energy = -156.16065970640722
 One-Electron (alpha) Energy = -4040.57346172725602
 One-Electron (beta)  Energy = -4007.42082412699210
 Total Coulomb        Energy = 2612.76523063350578
    3   -5257.2468481476      1.11e-02  
 Alpha HF Exchange    Energy = -19.74598574906515
 Beta HF Exchange     Energy = -19.49027435071974
 DFT Correlation      Energy =  -5.16093217029808
 DFT Exchange         Energy = -156.20872871628953
 One-Electron (alpha) Energy = -4046.32753737710709
 One-Electron (beta)  Energy = -3998.30618111669992
 Total Coulomb        Energy = 2635.97552536386229
    4   -5230.6760557638      1.95e-02  
 Alpha HF Exchange    Energy = -19.79246433797057
 Beta HF Exchange     Energy = -19.59815984513899
 DFT Correlation      Energy =  -5.22708363370465
 DFT Exchange         Energy = -156.76829643347378
 One-Electron (alpha) Energy = -4063.48670104489111
 One-Electron (beta)  Energy = -4022.53664574786171
 Total Coulomb        Energy = 2643.57770073453730
    5   -5265.2435919560      3.48e-03  
 Alpha HF Exchange    Energy = -19.74424672904943
 Beta HF Exchange     Energy = -19.55110945881454
 DFT Correlation      Energy =  -5.20980043822089
 DFT Exchange         Energy = -156.36573365544012
 One-Electron (alpha) Energy = -4055.52302879249100
 One-Electron (beta)  Energy = -4013.89125908609185
 Total Coulomb        Energy = 2626.34547545892292
    6   -5265.3516443486      2.13e-03  
 Alpha HF Exchange    Energy = -19.75829089924130
 Beta HF Exchange     Energy = -19.57617197552679
 DFT Correlation      Energy =  -5.21224163225949
 DFT Exchange         Energy = -156.51202804551801
 One-Electron (alpha) Energy = -4058.58536069757065
 One-Electron (beta)  Energy = -4018.24292811326586
 Total Coulomb        Energy = 2633.76555653430114
    7   -5265.5334064765      2.11e-03  
 Alpha HF Exchange    Energy = -19.75885927204382
 Beta HF Exchange     Energy = -19.57259103776822
 DFT Correlation      Energy =  -5.21318280838200
 DFT Exchange         Energy = -156.50143564788908
 One-Electron (alpha) Energy = -4057.55717130645780
 One-Electron (beta)  Energy = -4017.26502522518604
 Total Coulomb        Energy = 2631.70094583482341
    8   -5265.5792611104      1.16e-03  
 Alpha HF Exchange    Energy = -19.75669709070252
 Beta HF Exchange     Energy = -19.56976243661589
 DFT Correlation      Energy =  -5.21169855582372
 DFT Exchange         Energy = -156.47859307039948
 One-Electron (alpha) Energy = -4057.28660715335991
 One-Electron (beta)  Energy = -4017.02183849593439
 Total Coulomb        Energy = 2631.15003580108487
    9   -5265.5871026492      9.44e-04  
 Alpha HF Exchange    Energy = -19.75722138444819
 Beta HF Exchange     Energy = -19.56922138037892
 DFT Correlation      Energy =  -5.21167074143880
 DFT Exchange         Energy = -156.47789953810997
 One-Electron (alpha) Energy = -4057.22213414105045
 One-Electron (beta)  Energy = -4016.90759316521553
 Total Coulomb        Energy = 2630.96186899151962
   10   -5265.5958130066      6.26e-04  
 Alpha HF Exchange    Energy = -19.75946453819872
 Beta HF Exchange     Energy = -19.57014668421064
 DFT Correlation      Energy =  -5.21202010527682
 DFT Exchange         Energy = -156.48941045737507
 One-Electron (alpha) Energy = -4057.36638197826869
 One-Electron (beta)  Energy = -4017.00184456910711
 Total Coulomb        Energy = 2631.21123969157998
   11   -5265.5999702883      3.63e-04  
 Alpha HF Exchange    Energy = -19.75981837021574
 Beta HF Exchange     Energy = -19.56982935812520
 DFT Correlation      Energy =  -5.21195058148522
 DFT Exchange         Energy = -156.48905775888812
 One-Electron (alpha) Energy = -4057.40258080613239
 One-Electron (beta)  Energy = -4016.98143615140771
 Total Coulomb        Energy = 2631.22457279717264
   12   -5265.6020418765      8.88e-05  
 Alpha HF Exchange    Energy = -19.75990518690106
 Beta HF Exchange     Energy = -19.56974552195476
 DFT Correlation      Energy =  -5.21195679214262
 DFT Exchange         Energy = -156.48904478626613
 One-Electron (alpha) Energy = -4057.39035556282761
 One-Electron (beta)  Energy = -4016.95741097449763
 Total Coulomb        Energy = 2631.18819606751413
   13   -5265.6021644045      2.62e-05  
 Alpha HF Exchange    Energy = -19.76008092551322
 Beta HF Exchange     Energy = -19.56985576160993
 DFT Correlation      Energy =  -5.21199256992350
 DFT Exchange         Energy = -156.49017175126795
 One-Electron (alpha) Energy = -4057.40759149792939
 One-Electron (beta)  Energy = -4016.96860661694745
 Total Coulomb        Energy = 2631.21806585462218
   14   -5265.6021749160      5.56e-06  
 Alpha HF Exchange    Energy = -19.76003363249169
 Beta HF Exchange     Energy = -19.56981802445978
 DFT Correlation      Energy =  -5.21198837892174
 DFT Exchange         Energy = -156.48984732407092
 One-Electron (alpha) Energy = -4057.40481610886172
 One-Electron (beta)  Energy = -4016.96548438459695
 Total Coulomb        Energy = 2631.21175428272636
   15   -5265.6021752181      1.10e-06  
 Alpha HF Exchange    Energy = -19.76003091481667
 Beta HF Exchange     Energy = -19.56981725880030
 DFT Correlation      Energy =  -5.21198957775715
 DFT Exchange         Energy = -156.48983810847108
 One-Electron (alpha) Energy = -4057.40473450910986
 One-Electron (beta)  Energy = -4016.96530960930932
 Total Coulomb        Energy = 2631.21148638470595
   16   -5265.6021752410      3.05e-07  Convergence criterion met
 ---------------------------------------
 SCF time:   CPU 53.52s  wall 4.00s 
<S^2> =          2.005443283
 Alpha HF Exchange    Energy = -19.76003091481667
 Beta HF Exchange     Energy = -19.56981725880030
 DFT Correlation      Energy =  -5.21198957775715
 DFT Exchange         Energy = -156.48983810847108
 One-Electron (alpha) Energy = -4057.40473450910986
 One-Electron (beta)  Energy = -4016.96530960930932
 Total Coulomb        Energy = 2631.21148638470595
 Nuclear repulsion Energy = 378.58805835254577
 SCF   energy in the final basis set =    -5265.6021752410
 Total energy in the final basis set =    -5265.6021752410
 
 --------------------------------------------------------------
 
                    Orbital Energies (a.u.)
 --------------------------------------------------------------
 
 Alpha MOs
 -- Occupied --
*******-482.847 -62.559 -62.506 -56.384 -56.376 -56.376 -56.327
-56.323 -56.323 -10.248 -10.213 -10.208  -8.746  -8.693  -6.583
 -6.561  -6.561  -6.523  -6.510  -6.510  -2.674  -2.668  -2.668
 -2.652  -2.652  -2.616  -2.612  -2.612  -2.602  -2.602  -0.825
 -0.799  -0.761  -0.666  -0.600  -0.492  -0.430  -0.428  -0.415
 -0.373  -0.361  -0.358  -0.325  -0.325  -0.277  -0.274  -0.223
 -- Virtual --
 -0.001   0.093   0.116   0.124   0.143   0.154   0.165   0.197
  0.206   0.238   0.254   0.285   0.309   0.309   0.340   0.350
  0.358   0.476   0.485   0.502   0.531   0.540   0.542   0.543
  0.544   0.572   0.579   0.579   0.603   0.617   0.622   0.678
  0.724   0.785   0.813   0.815   0.844   0.853   0.877   0.906
  0.925   0.988   1.141   1.208   1.313   1.417   1.481   1.504
  1.653   1.657   1.674   1.737   1.806   1.844   1.923   1.960
  1.998   2.057   2.115   2.169   2.200   2.234   2.331   2.332
  2.408   2.463   2.491   2.583   2.593   2.680   2.761   2.767
  2.836   2.857   3.196   3.244   3.362   3.362   3.433   3.531
  4.196   4.362   4.572   4.646   4.654   4.654   4.679   4.680
  4.730   4.745   4.811   4.813   4.982   6.203   6.303  90.120
 90.359
 
 Beta MOs
 -- Occupied --
*******-482.847 -62.558 -62.505 -56.378 -56.375 -56.375 -56.327
-56.323 -56.323 -10.246 -10.209 -10.200  -8.743  -8.692  -6.572
 -6.559  -6.559  -6.522  -6.510  -6.510  -2.666  -2.662  -2.662
 -2.651  -2.651  -2.616  -2.612  -2.612  -2.602  -2.602  -0.821
 -0.755  -0.751  -0.649  -0.588  -0.489  -0.424  -0.423  -0.406
 -0.358  -0.354  -0.311  -0.311  -0.275  -0.274
 -- Virtual --
 -0.237  -0.072   0.010   0.095   0.126   0.127   0.147   0.155
  0.174   0.201   0.209   0.243   0.259   0.313   0.314   0.314
  0.343   0.350   0.359   0.479   0.486   0.514   0.542   0.575
  0.584   0.587   0.587   0.588   0.588   0.593   0.618   0.622
  0.637   0.687   0.728   0.788   0.816   0.820   0.846   0.855
  0.884   0.909   0.928   1.003   1.144   1.216   1.325   1.446
  1.486   1.518   1.657   1.673   1.693   1.745   1.815   1.849
  1.926   2.006   2.011   2.058   2.115   2.175   2.202   2.234
  2.333   2.340   2.425   2.471   2.505   2.594   2.596   2.688
  2.762   2.769   2.839   2.861   3.199   3.248   3.364   3.366
  3.439   3.533   4.211   4.382   4.574   4.665   4.669   4.669
  4.682   4.682   4.730   4.745   4.812   4.814   4.983   6.219
  6.304  90.126  90.359
 --------------------------------------------------------------
 
          Ground-State Mulliken Net Atomic Charges

     Atom                 Charge (a.u.)    Spin (a.u.)
  --------------------------------------------------------
      1 Br                   -0.000140       1.000145
      2 Br                   -0.127979       0.027505
      3 C                    -0.194975      -0.073432
      4 C                    -0.227861       1.070396
      5 C                    -0.243493       0.042700
      6 H                     0.130873       0.012943
      7 H                     0.131340       0.013332
      8 H                     0.114220      -0.046909
      9 H                     0.114000      -0.046967
     10 H                     0.151975       0.000112
     11 H                     0.152040       0.000174
  --------------------------------------------------------
  Sum of atomic charges =    -0.000000
  Sum of spin   charges =     2.000000

 -----------------------------------------------------------------
                    Cartesian Multipole Moments
 -----------------------------------------------------------------
    Charge (ESU x 10^10)
                -0.0000
    Dipole Moment (Debye)
         X      -1.6560      Y      -1.5857      Z      -0.0183
       Tot       2.2928
    Quadrupole Moments (Debye-Ang)
        XX     -63.9459     XY      -2.8184     YY     -53.8207
        XZ      -0.0209     YZ      -0.0191     ZZ     -56.1269
    Octopole Moments (Debye-Ang^2)
       XXX      86.7496    XXY     -44.2990    XYY      20.5541
       YYY    -116.1320    XXZ      -0.4681    XYZ      -0.0228
       YYZ      -0.2509    XZZ      33.5513    YZZ     -47.2615
       ZZZ      -1.2130
    Hexadecapole Moments (Debye-Ang^3)
      XXXX   -4046.1560   XXXY     448.3113   XXYY    -693.6267
      XYYY     387.7061   YYYY    -695.1184   XXXZ      -1.7829
      XXYZ      -0.0079   XYYZ      -0.6193   YYYZ      -1.1113
      XXZZ    -684.2228   XYZZ     157.3120   YYZZ    -140.5291
      XZZZ      -1.8598   YZZZ      -0.8654   ZZZZ     -84.9620
 -----------------------------------------------------------------
 Calculating analytic gradient of the SCF energy
 Gradient of SCF Energy
            1           2           3           4           5           6
    1  -0.0000112   0.0008697   0.0039503  -0.0045908   0.0011570   0.0015936
    2  -0.0000467   0.0004992   0.0068413   0.0024129   0.0029385  -0.0023953
    3  -0.0000075   0.0000298  -0.0000535  -0.0010506   0.0000492  -0.0005048
            7           8           9          10          11
    1   0.0015838  -0.0019123  -0.0021455  -0.0002459  -0.0002486
    2  -0.0027470  -0.0035460  -0.0043205   0.0001933   0.0001702
    3   0.0007626  -0.0069016   0.0076596  -0.0000333   0.0000502
 Max gradient component =       7.660E-03
 RMS gradient           =       2.842E-03
 Gradient time:  CPU 12.62 s  wall 1.16 s
 Geometry Optimization Parameters
   NAtoms,    NIC,     NZ,  NCons,   NDum,   NFix, NCnnct, MaxDiis
       11     156       0       1       0       0       0       0

 Cartesian Hessian Update
 Hessian Updated using BFGS Update


** CONSTRAINED OPTIMIZATION IN DELOCALIZED INTERNAL COORDINATES **
   Searching for a Minimum

   Optimization Cycle:   2

                       Coordinates (Angstroms)
     ATOM                X               Y               Z
      1  Br       -5.0025631976    2.1890210395    0.0018409232
      2  Br        2.9303627678    0.8565901379    0.0137620381
      3  C         0.1407324832   -0.0460239396    0.0214953076
      4  C        -0.8865951303   -1.1526954586   -0.0026972959
      5  C         1.5764112078   -0.5927672076   -0.0029359834
      6  H         0.0278402279    0.5570979366    0.9250625852
      7  H         0.0157594858    0.6035355464   -0.8467032744
      8  H        -1.1919264242   -1.6108487934   -0.9516911655
      9  H        -1.1867345555   -1.6575700220    0.9259601984
     10  H         1.7800621765   -1.1650845956   -0.9072587202
     11  H         1.7965539587   -1.2025556436    0.8725643869
   Point Group: c1    Number of degrees of freedom:    27


   Energy is  -5265.602175241

              Constraints and their Current Values
                                        Value     Constraint
   Distance(Angs):        1   4             5.301725     5.300000
 Hessian Updated using BFGS Update

   Using Lagrange Multiplier Algorithm


 28 Hessian modes will be used to form the next step
  Hessian Eigenvalues:
    -0.985151    0.029135    0.045035    0.048557    0.048643    0.050989
     0.056863    0.061996    0.062394    0.062900    0.068537    0.068782
     0.086022    0.122990    0.133169    0.157539    0.159711    0.160009
     0.221548    0.253946    0.272108    0.288225    0.296909    0.300688
     0.348810    0.348819    0.471815    1.022781

 Minimum Search - Taking P-RFO Step
 Searching for Lamda that Maximizes Along the Constraint modes Only
 Value Taken    Lamda =   0.00003544
 Searching for Lamda that Minimizes Along All other modes
 Value Taken    Lamda =  -0.00050334
 Step Taken.  Stepsize is  0.046497

                             Maximum     Tolerance    Cnvgd?
         Gradient            0.010959       0.000300      NO
         Displacement        0.023044       0.001200      NO
         Energy change      0.000572       0.000001      NO


 New Cartesian Coordinates Obtained by Inverse Iteration

 Displacement from previous Coordinates is:  0.045777
 ----------------------------------------------------------------
             Standard Nuclear Orientation (Angstroms)
    I     Atom           X                Y                Z
 ----------------------------------------------------------------
    1      Br     -4.9976712267     2.1865841078     0.0019823572
    2      Br      2.9239418817     0.8531251293     0.0137547114
    3      C       0.1379787038    -0.0463527725     0.0215058140
    4      C      -0.8798538305    -1.1501153980    -0.0024627105
    5      C       1.5724165694    -0.5959640444    -0.0029253975
    6      H       0.0223687599     0.5590149570     0.9251872147
    7      H       0.0103438117     0.6056952780    -0.8470300746
    8      H      -1.1825198863    -1.6062162559    -0.9457941872
    9      H      -1.1770936534    -1.6523347627     0.9198297424
   10      H       1.7767868636    -1.1686708324    -0.9069560746
   11      H       1.7932050067    -1.2060664061     0.8723076048
 ----------------------------------------------------------------
 Nuclear Repulsion Energy =   379.1889017102 hartrees
 There are       48 alpha and       46 beta electrons

                       Distance Matrix (Angstroms)
             Br(  1)   Br(  2)   C (  3)   C (  4)   C (  5)   H (  6)
   Br(  2)  8.033070
   C (  3)  5.600115  2.927578
   C (  4)  5.300000  4.299081  1.501616
   C (  5)  7.135030  1.981605  1.536321  2.514103
   H (  6)  5.357433  3.055542  1.093835  2.143751  2.144299
   H (  7)  5.319798  3.048151  1.093532  2.142106  2.143961  1.772873
   H (  8)  5.462508  4.881815  2.261097  1.090646  3.082091  3.104924
   H (  9)  5.493319  4.890480  2.261765  1.091421  3.086617  2.515712
   H ( 10)  7.614275  2.500266  2.192563  2.806455  1.089510  3.069142
   H ( 11)  7.640912  2.501189  2.192846  2.813112  1.089498  2.500834
             H (  7)   H (  8)   H (  9)   H ( 10)
   H (  8)  2.515001
   H (  9)  3.103305  1.866202
   H ( 10)  2.504453  2.991730  3.506635
   H ( 11)  3.068745  3.510064  3.004012  1.779732
 
 Applying Cartesian multipole field
    Component          Value
    ---------          -----
     (2,0,0)        1.00000E-11
     (0,2,0)        2.00000E-11
     (0,0,2)       -3.00000E-10
 Nucleus-field energy     =     0.0000000528 hartrees
 Requested basis set is 6-31G(d,p)
 There are 46 shells and 145 basis functions
 A cutoff of  1.0D-14 yielded    864 shell pairs
 There are      8012 function pairs
 Smallest overlap matrix eigenvalue = 7.23E-04
 Guess from superposition of atomic densities
 Warning:  Energy on first SCF cycle will be non-variational
 SAD guess density has 93.945746 electrons

 -----------------------------------------------------------------------
  General SCF calculation program by
  Eric Jon Sundstrom, Paul Horn, Yuezhi Mao, Dmitri Zuev, Alec White,
  David Stuck, Shaama M.S., Shane Yost, Joonho Lee, David Small,
  Daniel Levine, Susi Lehtola, Hugh Burton, Evgeny Epifanovsky
 -----------------------------------------------------------------------
 Exchange:     0.2000 Hartree-Fock + 0.0800 Slater + 0.7200 B88
 Correlation:  0.1900 VWN1RPA + 0.8100 LYP
 Using SG-1 standard quadrature grid
 using 12 threads for integral computing
 -------------------------------------------------------
 OpenMP Integral computing Module                
 Release: version 1.0, May 2013, Q-Chem Inc. Pittsburgh 
 -------------------------------------------------------
 -------------------------------------------------------
 OpenMP BLAS3 based DFT computing Module                
 Release: version 1.0, May 2013, Q-Chem Inc. Pittsburgh 
 -------------------------------------------------------
 A unrestricted SCF calculation will be
 performed using DIIS
 SCF converges when DIIS error is below 1.0e-06
 Alpha HF Exchange    Energy = -19.60379365015351
 Beta HF Exchange     Energy = -19.60379365015351
 DFT Correlation      Energy =  -5.19136838520876
 DFT Exchange         Energy = -155.86021494643074
 One-Electron (alpha) Energy = -4035.70981607551812
 One-Electron (beta)  Energy = -4035.70981607551812
 Total Coulomb        Energy = 2620.17785336094948
 ---------------------------------------
  Cycle       Energy         DIIS error
 ---------------------------------------
    1   -5272.3120476591      1.83e-01  
 Alpha HF Exchange    Energy = -19.82680685349371
 Beta HF Exchange     Energy = -19.62952157141419
 DFT Correlation      Energy =  -5.23386055831335
 DFT Exchange         Energy = -157.01864840928488
 One-Electron (alpha) Energy = -4064.85047565766172
 One-Electron (beta)  Energy = -4022.93431376950366
 Total Coulomb        Energy = 2645.06087078643941
    2   -5265.2438542703      1.05e-02  
 Alpha HF Exchange    Energy = -19.68859294448627
 Beta HF Exchange     Energy = -19.54606660759679
 DFT Correlation      Energy =  -5.21213977204814
 DFT Exchange         Energy = -156.16506999922433
 One-Electron (alpha) Energy = -4041.19476668490142
 One-Electron (beta)  Energy = -4008.02963690171555
 Total Coulomb        Energy = 2613.40649036675813
    3   -5257.2408807802      1.11e-02  
 Alpha HF Exchange    Energy = -19.74665518960575
 Beta HF Exchange     Energy = -19.49095967833004
 DFT Correlation      Energy =  -5.16138157396210
 DFT Exchange         Energy = -156.21373859181787
 One-Electron (alpha) Energy = -4046.87005181868790
 One-Electron (beta)  Energy = -3998.83948016388695
 Total Coulomb        Energy = 2636.46114584548968
    4   -5230.6722194078      1.95e-02  
 Alpha HF Exchange    Energy = -19.79332225837553
 Beta HF Exchange     Energy = -19.59889510327359
 DFT Correlation      Energy =  -5.22753261440677
 DFT Exchange         Energy = -156.77335817200253
 One-Electron (alpha) Energy = -4064.07682264157938
 One-Electron (beta)  Energy = -4023.06831876666411
 Total Coulomb        Energy = 2644.10413313825120
    5   -5265.2452146551      3.47e-03  
 Alpha HF Exchange    Energy = -19.74503179968821
 Beta HF Exchange     Energy = -19.55184818975297
 DFT Correlation      Energy =  -5.21027624877578
 DFT Exchange         Energy = -156.37117655100764
 One-Electron (alpha) Energy = -4056.15348051706678
 One-Electron (beta)  Energy = -4014.46544214526193
 Total Coulomb        Energy = 2626.95481243176209
    6   -5265.3535412568      2.11e-03  
 Alpha HF Exchange    Energy = -19.75926820812859
 Beta HF Exchange     Energy = -19.57707614782656
 DFT Correlation      Energy =  -5.21279207147235
 DFT Exchange         Energy = -156.51890770382965
 One-Electron (alpha) Energy = -4059.22482926400517
 One-Electron (beta)  Energy = -4018.82995880609315
 Total Coulomb        Energy = 2634.40070677087579
    7   -5265.5332236675      2.12e-03  
 Alpha HF Exchange    Energy = -19.75972122240669
 Beta HF Exchange     Energy = -19.57339537251477
 DFT Correlation      Energy =  -5.21370289703396
 DFT Exchange         Energy = -156.50743373030110
 One-Electron (alpha) Energy = -4058.18617278374404
 One-Electron (beta)  Energy = -4017.84312544738941
 Total Coulomb        Energy = 2632.31532027240110
    8   -5265.5793294180      1.17e-03  
 Alpha HF Exchange    Energy = -19.75754231360875
 Beta HF Exchange     Energy = -19.57055282908089
 DFT Correlation      Energy =  -5.21222071585748
 DFT Exchange         Energy = -156.48450014785635
 One-Electron (alpha) Energy = -4057.91331888616969
 One-Electron (beta)  Energy = -4017.59737181911896
 Total Coulomb        Energy = 2631.75936702654826
    9   -5265.5872379222      9.51e-04  
 Alpha HF Exchange    Energy = -19.75809628649312
 Beta HF Exchange     Energy = -19.57002556004933
 DFT Correlation      Energy =  -5.21219965582657
 DFT Exchange         Energy = -156.48396358051528
 One-Electron (alpha) Energy = -4057.85074966162028
 One-Electron (beta)  Energy = -4017.48501254461280
 Total Coulomb        Energy = 2631.57506372656644
   10   -5265.5960817996      6.30e-04  
 Alpha HF Exchange    Energy = -19.76031567759659
 Beta HF Exchange     Energy = -19.57091730292835
 DFT Correlation      Energy =  -5.21254132974367
 DFT Exchange         Energy = -156.49523540263860
 One-Electron (alpha) Energy = -4057.99152873669891
 One-Electron (beta)  Energy = -4017.57592626162841
 Total Coulomb        Energy = 2631.81724811392905
   11   -5265.6003148343      3.64e-04  
 Alpha HF Exchange    Energy = -19.76066833752857
 Beta HF Exchange     Energy = -19.57059812481685
 DFT Correlation      Energy =  -5.21247275414356
 DFT Exchange         Energy = -156.49487598207361
 One-Electron (alpha) Energy = -4058.02693265194102
 One-Electron (beta)  Energy = -4017.55513012430856
 Total Coulomb        Energy = 2631.82937324163322
   12   -5265.6024029702      8.96e-05  
 Alpha HF Exchange    Energy = -19.76075225141771
 Beta HF Exchange     Energy = -19.57051009913309
 DFT Correlation      Energy =  -5.21247819656836
 DFT Exchange         Energy = -156.49483473271562
 One-Electron (alpha) Energy = -4058.01412290512826
 One-Electron (beta)  Energy = -4017.53063549919671
 Total Coulomb        Energy = 2631.79190451166914
   13   -5265.6025274095      2.66e-05  
 Alpha HF Exchange    Energy = -19.76092931126423
 Beta HF Exchange     Energy = -19.57062037715446
 DFT Correlation      Energy =  -5.21251426208622
 DFT Exchange         Energy = -156.49596757185481
 One-Electron (alpha) Energy = -4058.03139398367148
 One-Electron (beta)  Energy = -4017.54183494785457
 Total Coulomb        Energy = 2631.82182043729836
   14   -5265.6025382536      5.57e-06  
 Alpha HF Exchange    Energy = -19.76088194884427
 Beta HF Exchange     Energy = -19.57058246658405
 DFT Correlation      Energy =  -5.21251008645813
 DFT Exchange         Energy = -156.49564239002112
 One-Electron (alpha) Energy = -4058.02865248375747
 One-Electron (beta)  Energy = -4017.53874666039655
 Total Coulomb        Energy = 2631.81557571583880
   15   -5265.6025385572      1.10e-06  
 Alpha HF Exchange    Energy = -19.76087927915325
 Beta HF Exchange     Energy = -19.57058164890044
 DFT Correlation      Energy =  -5.21251128249737
 DFT Exchange         Energy = -156.49563327245664
 One-Electron (alpha) Energy = -4058.02856502449367
 One-Electron (beta)  Energy = -4017.53856427783649
 Total Coulomb        Energy = 2631.81529444159059
   16   -5265.6025385808      2.99e-07  Convergence criterion met
 ---------------------------------------
 SCF time:   CPU 53.43s  wall 4.00s 
<S^2> =          2.005384279
 Alpha HF Exchange    Energy = -19.76087927915325
 Beta HF Exchange     Energy = -19.57058164890044
 DFT Correlation      Energy =  -5.21251128249737
 DFT Exchange         Energy = -156.49563327245664
 One-Electron (alpha) Energy = -4058.02856502449367
 One-Electron (beta)  Energy = -4017.53856427783649
 Total Coulomb        Energy = 2631.81529444159059
 Nuclear repulsion Energy = 379.18890176298049
 SCF   energy in the final basis set =    -5265.6025385808
 Total energy in the final basis set =    -5265.6025385808
 
 --------------------------------------------------------------
 
                    Orbital Energies (a.u.)
 --------------------------------------------------------------
 
 Alpha MOs
 -- Occupied --
*******-482.847 -62.559 -62.505 -56.384 -56.376 -56.376 -56.326
-56.323 -56.323 -10.248 -10.211 -10.207  -8.746  -8.692  -6.583
 -6.561  -6.561  -6.522  -6.510  -6.510  -2.674  -2.669  -2.669
 -2.652  -2.652  -2.616  -2.612  -2.612  -2.602  -2.602  -0.826
 -0.799  -0.762  -0.666  -0.600  -0.493  -0.431  -0.429  -0.416
 -0.373  -0.361  -0.359  -0.325  -0.325  -0.277  -0.274  -0.223
 -- Virtual --
  0.000   0.093   0.118   0.124   0.143   0.154   0.165   0.197
  0.207   0.240   0.255   0.285   0.309   0.309   0.340   0.350
  0.358   0.476   0.485   0.501   0.531   0.540   0.542   0.542
  0.545   0.572   0.579   0.579   0.604   0.617   0.623   0.679
  0.724   0.786   0.814   0.817   0.843   0.855   0.881   0.905
  0.926   0.990   1.144   1.210   1.312   1.417   1.482   1.505
  1.655   1.656   1.674   1.738   1.809   1.848   1.928   1.966
  2.002   2.056   2.112   2.170   2.201   2.235   2.333   2.333
  2.415   2.464   2.497   2.590   2.593   2.685   2.763   2.771
  2.838   2.864   3.197   3.252   3.364   3.367   3.443   3.533
  4.200   4.364   4.572   4.646   4.654   4.654   4.679   4.680
  4.730   4.745   4.812   4.814   4.983   6.203   6.303  90.120
 90.359
 
 Beta MOs
 -- Occupied --
*******-482.847 -62.558 -62.505 -56.378 -56.375 -56.375 -56.326
-56.323 -56.323 -10.246 -10.208 -10.198  -8.743  -8.692  -6.572
 -6.559  -6.559  -6.522  -6.510  -6.510  -2.666  -2.662  -2.662
 -2.651  -2.651  -2.616  -2.612  -2.612  -2.602  -2.602  -0.821
 -0.755  -0.752  -0.650  -0.588  -0.489  -0.425  -0.423  -0.406
 -0.358  -0.354  -0.311  -0.311  -0.275  -0.274
 -- Virtual --
 -0.237  -0.072   0.011   0.096   0.126   0.128   0.148   0.156
  0.174   0.201   0.211   0.244   0.261   0.313   0.314   0.314
  0.343   0.350   0.359   0.479   0.486   0.512   0.543   0.576
  0.585   0.587   0.587   0.588   0.588   0.593   0.618   0.623
  0.636   0.687   0.728   0.788   0.816   0.822   0.846   0.857
  0.888   0.909   0.929   1.005   1.147   1.218   1.324   1.447
  1.486   1.518   1.656   1.675   1.693   1.745   1.818   1.853
  1.932   2.010   2.018   2.058   2.112   2.175   2.202   2.236
  2.335   2.340   2.432   2.472   2.511   2.594   2.604   2.693
  2.764   2.774   2.841   2.867   3.199   3.256   3.366   3.371
  3.449   3.536   4.214   4.384   4.575   4.665   4.669   4.669
  4.682   4.682   4.730   4.745   4.813   4.814   4.984   6.219
  6.304  90.126  90.360
 --------------------------------------------------------------
 
          Ground-State Mulliken Net Atomic Charges

     Atom                 Charge (a.u.)    Spin (a.u.)
  --------------------------------------------------------
      1 Br                   -0.000141       1.000145
      2 Br                   -0.128177       0.028578
      3 C                    -0.195124      -0.073584
      4 C                    -0.227337       1.067581
      5 C                    -0.243353       0.043437
      6 H                     0.130486       0.013261
      7 H                     0.130895       0.013676
      8 H                     0.114362      -0.046645
      9 H                     0.114269      -0.046669
     10 H                     0.152031       0.000079
     11 H                     0.152089       0.000140
  --------------------------------------------------------
  Sum of atomic charges =    -0.000000
  Sum of spin   charges =     2.000000

 -----------------------------------------------------------------
                    Cartesian Multipole Moments
 -----------------------------------------------------------------
    Charge (ESU x 10^10)
                -0.0000
    Dipole Moment (Debye)
         X      -1.6607      Y      -1.5876      Z      -0.0178
       Tot       2.2975
    Quadrupole Moments (Debye-Ang)
        XX     -63.9277     XY      -2.8546     YY     -53.8002
        XZ      -0.0223     YZ      -0.0182     ZZ     -56.1283
    Octopole Moments (Debye-Ang^2)
       XXX      86.6941    XXY     -44.0479    XYY      20.5910
       YYY    -115.9108    XXZ      -0.4689    XYZ      -0.0277
       YYZ      -0.2500    XZZ      33.5766    YZZ     -47.1487
       ZZZ      -1.2212
    Hexadecapole Moments (Debye-Ang^3)
      XXXX   -4034.5641   XXXY     446.9775   XXYY    -691.1404
      XYYY     387.7056   YYYY    -693.2214   XXXZ      -1.7528
      XXYZ       0.0169   XYYZ      -0.6259   YYYZ      -1.1046
      XXZZ    -682.4050   XYZZ     157.2315   YYZZ    -140.1923
      XZZZ      -1.8144   YZZZ      -0.8793   ZZZZ     -84.8568
 -----------------------------------------------------------------
 Calculating analytic gradient of the SCF energy
 Gradient of SCF Energy
            1           2           3           4           5           6
    1  -0.0000082   0.0001027   0.0024011  -0.0037455   0.0007865   0.0009298
    2  -0.0000456   0.0000735   0.0031675   0.0016933   0.0023251  -0.0017501
    3  -0.0000076   0.0000277   0.0000555  -0.0005781   0.0000424   0.0001389
            7           8           9          10          11
    1   0.0008924  -0.0006393  -0.0007464   0.0000172   0.0000096
    2  -0.0018824  -0.0017358  -0.0020888   0.0001319   0.0001114
    3  -0.0000595  -0.0032000   0.0035766  -0.0000108   0.0000150
 Max gradient component =       3.745E-03
 RMS gradient           =       1.545E-03
 Gradient time:  CPU 12.61 s  wall 1.13 s
 Geometry Optimization Parameters
   NAtoms,    NIC,     NZ,  NCons,   NDum,   NFix, NCnnct, MaxDiis
       11     156       0       1       0       0       0       0

 Cartesian Hessian Update
 Hessian Updated using BFGS Update


** CONSTRAINED OPTIMIZATION IN DELOCALIZED INTERNAL COORDINATES **
   Searching for a Minimum

   Optimization Cycle:   3

                       Coordinates (Angstroms)
     ATOM                X               Y               Z
      1  Br       -4.9976712267    2.1865841078    0.0019823572
      2  Br        2.9239418817    0.8531251293    0.0137547114
      3  C         0.1379787038   -0.0463527725    0.0215058140
      4  C        -0.8798538305   -1.1501153980   -0.0024627105
      5  C         1.5724165694   -0.5959640444   -0.0029253975
      6  H         0.0223687599    0.5590149570    0.9251872147
      7  H         0.0103438117    0.6056952780   -0.8470300746
      8  H        -1.1825198863   -1.6062162559   -0.9457941872
      9  H        -1.1770936534   -1.6523347627    0.9198297424
     10  H         1.7767868636   -1.1686708324   -0.9069560746
     11  H         1.7932050067   -1.2060664061    0.8723076048
   Point Group: c1    Number of degrees of freedom:    27


   Energy is  -5265.602538581

              Constraints and their Current Values
                                        Value     Constraint
   Distance(Angs):        1   4             5.300000     5.300000
 Hessian Updated using BFGS Update

 26 Hessian modes will be used to form the next step
  Hessian Eigenvalues:
     0.024653    0.045035    0.048179    0.048627    0.050988    0.054495
     0.061994    0.062421    0.062901    0.068521    0.068728    0.085785
     0.122768    0.124672    0.158049    0.159728    0.160538    0.221882
     0.247718    0.272082    0.287107    0.292525    0.297046    0.323429
     0.348817    0.348826

 Minimum Search - Taking Simple RFO Step
 Searching for Lamda that Minimizes Along All modes
 Value Taken    Lamda =  -0.00033790
 Step Taken.  Stepsize is  0.079759

                             Maximum     Tolerance    Cnvgd?
         Gradient           0.005366      0.000300      NO
         Displacement       0.043649      0.001200      NO
         Energy change     -0.000363      0.000001      NO


 New Cartesian Coordinates Obtained by Inverse Iteration

 Displacement from previous Coordinates is:  0.069583
 ----------------------------------------------------------------
             Standard Nuclear Orientation (Angstroms)
    I     Atom           X                Y                Z
 ----------------------------------------------------------------
    1      Br     -4.9891366054     2.1826595674     0.0022281460
    2      Br      2.9231806620     0.8455050244     0.0136660524
    3      C       0.1332088578    -0.0442043816     0.0214900212
    4      C      -0.8675818263    -1.1494224094    -0.0021728030
    5      C       1.5659697273    -0.5989971504    -0.0029399235
    6      H       0.0125117830     0.5656189641     0.9237364921
    7      H       0.0007458725     0.6123677498    -0.8457067365
    8      H      -1.1682469184    -1.6033272568    -0.9398363600
    9      H      -1.1627054256    -1.6490288724     0.9134909700
   10      H       1.7678564305    -1.1725814722    -0.9070602385
   11      H       1.7841004427    -1.2098907629     0.8725033798
 ----------------------------------------------------------------
 Nuclear Repulsion Energy =   379.6859628509 hartrees
 There are       48 alpha and       46 beta electrons

                       Distance Matrix (Angstroms)
             Br(  1)   Br(  2)   C (  3)   C (  4)   C (  5)   H (  6)
   Br(  2)  8.024517
   C (  3)  5.585492  2.928410
   C (  4)  5.300000  4.283674  1.491190
   C (  5)  7.120889  1.982141  1.536618  2.495023
   H (  6)  5.336711  3.062443  1.095674  2.138513  2.151346
   H (  7)  5.299409  3.055078  1.095748  2.137627  2.151183  1.770100
   H (  8)  5.460804  4.862687  2.246953  1.084270  3.059803  3.093772
   H (  9)  5.491249  4.871021  2.247336  1.084041  3.063997  2.507171
   H ( 10)  7.598776  2.501037  2.192604  2.786556  1.089583  3.074800
   H ( 11)  7.625190  2.501951  2.192827  2.792872  1.089575  2.508702
             H (  7)   H (  8)   H (  9)   H ( 10)
   H (  8)  2.506932
   H (  9)  3.092299  1.853899
   H ( 10)  2.512466  2.967713  3.482758
   H ( 11)  3.074610  3.486506  2.979629  1.780029
 
 Applying Cartesian multipole field
    Component          Value
    ---------          -----
     (2,0,0)        1.00000E-11
     (0,2,0)        2.00000E-11
     (0,0,2)       -3.00000E-10
 Nucleus-field energy     =     0.0000000526 hartrees
 Requested basis set is 6-31G(d,p)
 There are 46 shells and 145 basis functions
 A cutoff of  1.0D-14 yielded    864 shell pairs
 There are      8012 function pairs
 Smallest overlap matrix eigenvalue = 7.23E-04
 Guess from superposition of atomic densities
 Warning:  Energy on first SCF cycle will be non-variational
 SAD guess density has 93.945746 electrons

 -----------------------------------------------------------------------
  General SCF calculation program by
  Eric Jon Sundstrom, Paul Horn, Yuezhi Mao, Dmitri Zuev, Alec White,
  David Stuck, Shaama M.S., Shane Yost, Joonho Lee, David Small,
  Daniel Levine, Susi Lehtola, Hugh Burton, Evgeny Epifanovsky
 -----------------------------------------------------------------------
 Exchange:     0.2000 Hartree-Fock + 0.0800 Slater + 0.7200 B88
 Correlation:  0.1900 VWN1RPA + 0.8100 LYP
 Using SG-1 standard quadrature grid
 using 12 threads for integral computing
 -------------------------------------------------------
 OpenMP Integral computing Module                
 Release: version 1.0, May 2013, Q-Chem Inc. Pittsburgh 
 -------------------------------------------------------
 -------------------------------------------------------
 OpenMP BLAS3 based DFT computing Module                
 Release: version 1.0, May 2013, Q-Chem Inc. Pittsburgh 
 -------------------------------------------------------
 A unrestricted SCF calculation will be
 performed using DIIS
 SCF converges when DIIS error is below 1.0e-06
 Alpha HF Exchange    Energy = -19.60546865976541
 Beta HF Exchange     Energy = -19.60546865976541
 DFT Correlation      Energy =  -5.19177115256554
 DFT Exchange         Energy = -155.86364903896859
 One-Electron (alpha) Energy = -4036.19725842336220
 One-Electron (beta)  Energy = -4036.19725842336220
 Total Coulomb        Energy = 2620.64818393999712
 ---------------------------------------
  Cycle       Energy         DIIS error
 ---------------------------------------
    1   -5272.3267275143      1.83e-01  
 Alpha HF Exchange    Energy = -19.82793422250188
 Beta HF Exchange     Energy = -19.63035129968699
 DFT Correlation      Energy =  -5.23444274112647
 DFT Exchange         Energy = -157.02600856130096
 One-Electron (alpha) Energy = -4065.39580218229366
 One-Electron (beta)  Energy = -4023.40286272909998
 Total Coulomb        Energy = 2645.58770461578797
    2   -5265.2437342167      1.05e-02  
 Alpha HF Exchange    Energy = -19.68933483152276
 Beta HF Exchange     Energy = -19.54679636889890
 DFT Correlation      Energy =  -5.21259128699605
 DFT Exchange         Energy = -156.17025674704513
 One-Electron (alpha) Energy = -4041.70163068459169
 One-Electron (beta)  Energy = -4008.52615620061715
 Total Coulomb        Energy = 2613.92465227896810
    3   -5257.2361509372      1.11e-02  
 Alpha HF Exchange    Energy = -19.74739480526190
 Beta HF Exchange     Energy = -19.49169341938779
 DFT Correlation      Energy =  -5.16178833524868
 DFT Exchange         Energy = -156.21889715212012
 One-Electron (alpha) Energy = -4047.32309681181869
 One-Electron (beta)  Energy = -3999.28108869323478
 Total Coulomb        Energy = 2636.87270723220217
    4   -5230.6652890814      1.95e-02  
 Alpha HF Exchange    Energy = -19.79408356795764
 Beta HF Exchange     Energy = -19.59949277813097
 DFT Correlation      Energy =  -5.22802838410645
 DFT Exchange         Energy = -156.77842982682040
 One-Electron (alpha) Energy = -4064.61227722400554
 One-Electron (beta)  Energy = -4023.53183618567118
 Total Coulomb        Energy = 2644.61203953313588
    5   -5265.2461455301      3.47e-03  
 Alpha HF Exchange    Energy = -19.74572590985746
 Beta HF Exchange     Energy = -19.55249759992027
 DFT Correlation      Energy =  -5.21076129122082
 DFT Exchange         Energy = -156.37603619477756
 One-Electron (alpha) Energy = -4056.65789309312231
 One-Electron (beta)  Energy = -4014.89531496809332
 Total Coulomb        Energy = 2627.39843664224964
    6   -5265.3538295112      2.12e-03  
 Alpha HF Exchange    Energy = -19.76005533389842
 Beta HF Exchange     Energy = -19.57777471663404
 DFT Correlation      Energy =  -5.21331230019237
 DFT Exchange         Energy = -156.52444954260412
 One-Electron (alpha) Energy = -4059.76406502179407
 One-Electron (beta)  Energy = -4019.29121277899822
 Total Coulomb        Energy = 2634.91197862295121
    7   -5265.5329281677      2.13e-03  
 Alpha HF Exchange    Energy = -19.76054564086071
 Beta HF Exchange     Energy = -19.57413569075561
 DFT Correlation      Energy =  -5.21422827917601
 DFT Exchange         Energy = -156.51323565383447
 One-Electron (alpha) Energy = -4058.72685152664690
 One-Electron (beta)  Energy = -4018.31029777935873
 Total Coulomb        Energy = 2632.83390780111677
    8   -5265.5794238660      1.17e-03  
 Alpha HF Exchange    Energy = -19.75834633912346
 Beta HF Exchange     Energy = -19.57126080699326
 DFT Correlation      Energy =  -5.21274376822022
 DFT Exchange         Energy = -156.49009407545429
 One-Electron (alpha) Energy = -4058.44649477852909
 One-Electron (beta)  Energy = -4018.05894068248563
 Total Coulomb        Energy = 2632.26453327187210
    9   -5265.5873842754      9.52e-04  
 Alpha HF Exchange    Energy = -19.75893215250012
 Beta HF Exchange     Energy = -19.57074984907129
 DFT Correlation      Energy =  -5.21272468790927
 DFT Exchange         Energy = -156.48972004678865
 One-Electron (alpha) Energy = -4058.38395354171553
 One-Electron (beta)  Energy = -4017.94815714759216
 Total Coulomb        Energy = 2632.08199044067396
   10   -5265.5962840814      6.29e-04  
 Alpha HF Exchange    Energy = -19.76113356234504
 Beta HF Exchange     Energy = -19.57162495267610
 DFT Correlation      Energy =  -5.21305830732942
 DFT Exchange         Energy = -156.50083079371123
 One-Electron (alpha) Energy = -4058.52206456608610
 One-Electron (beta)  Energy = -4018.03818644833063
 Total Coulomb        Energy = 2632.32043166365247
   11   -5265.6005040633      3.64e-04  
 Alpha HF Exchange    Energy = -19.76149269744497
 Beta HF Exchange     Energy = -19.57130926205466
 DFT Correlation      Energy =  -5.21299022876896
 DFT Exchange         Energy = -156.50050643205589
 One-Electron (alpha) Energy = -4058.55722764314123
 One-Electron (beta)  Energy = -4018.01811926482560
 Total Coulomb        Energy = 2632.33309772599705
   12   -5265.6025848988      9.00e-05  
 Alpha HF Exchange    Energy = -19.76157481376109
 Beta HF Exchange     Energy = -19.57121939910476
 DFT Correlation      Energy =  -5.21299471356622
 DFT Exchange         Energy = -156.50044910275068
 One-Electron (alpha) Energy = -4058.54388621867520
 One-Electron (beta)  Energy = -4017.99331272446170
 Total Coulomb        Energy = 2632.29476402376940
   13   -5265.6027100450      2.71e-05  
 Alpha HF Exchange    Energy = -19.76175324432143
 Beta HF Exchange     Energy = -19.57132916073703
 DFT Correlation      Energy =  -5.21303090448790
 DFT Exchange         Energy = -156.50158562880983
 One-Electron (alpha) Energy = -4058.56111438645257
 One-Electron (beta)  Energy = -4018.00438924825585
 Total Coulomb        Energy = 2632.32451835918937
   14   -5265.6027213104      5.64e-06  
 Alpha HF Exchange    Energy = -19.76170558817448
 Beta HF Exchange     Energy = -19.57129080086105
 DFT Correlation      Energy =  -5.21302677399026
 DFT Exchange         Energy = -156.50125799682016
 One-Electron (alpha) Energy = -4058.55839910801478
 One-Electron (beta)  Energy = -4018.00129360237634
 Total Coulomb        Energy = 2632.31828934334226
   15   -5265.6027216234      1.14e-06  
 Alpha HF Exchange    Energy = -19.76170306327691
 Beta HF Exchange     Energy = -19.57128991765201
 DFT Correlation      Energy =  -5.21302800381378
 DFT Exchange         Energy = -156.50124937080682
 One-Electron (alpha) Energy = -4058.55831684504255
 One-Electron (beta)  Energy = -4018.00109763596902
 Total Coulomb        Energy = 2632.31800028474208
   16   -5265.6027216483      2.93e-07  Convergence criterion met
 ---------------------------------------
 SCF time:   CPU 54.23s  wall 4.00s 
<S^2> =          2.005339902
 Alpha HF Exchange    Energy = -19.76170306327691
 Beta HF Exchange     Energy = -19.57128991765201
 DFT Correlation      Energy =  -5.21302800381378
 DFT Exchange         Energy = -156.50124937080682
 One-Electron (alpha) Energy = -4058.55831684504255
 One-Electron (beta)  Energy = -4018.00109763596902
 Total Coulomb        Energy = 2632.31800028474208
 Nuclear repulsion Energy = 379.68596290350291
 SCF   energy in the final basis set =    -5265.6027216483
 Total energy in the final basis set =    -5265.6027216483
 
 --------------------------------------------------------------
 
                    Orbital Energies (a.u.)
 --------------------------------------------------------------
 
 Alpha MOs
 -- Occupied --
*******-482.846 -62.559 -62.505 -56.384 -56.376 -56.376 -56.326
-56.322 -56.322 -10.248 -10.209 -10.207  -8.747  -8.692  -6.583
 -6.561  -6.561  -6.522  -6.509  -6.509  -2.674  -2.669  -2.669
 -2.652  -2.652  -2.616  -2.612  -2.612  -2.602  -2.602  -0.827
 -0.799  -0.763  -0.666  -0.601  -0.493  -0.432  -0.430  -0.417
 -0.373  -0.360  -0.359  -0.325  -0.325  -0.277  -0.274  -0.222
 -- Virtual --
  0.001   0.093   0.120   0.123   0.142   0.155   0.165   0.197
  0.208   0.242   0.256   0.284   0.309   0.309   0.341   0.350
  0.358   0.475   0.485   0.500   0.531   0.541   0.542   0.542
  0.546   0.573   0.579   0.579   0.607   0.618   0.624   0.679
  0.725   0.786   0.815   0.817   0.842   0.857   0.885   0.904
  0.927   0.993   1.146   1.213   1.311   1.418   1.482   1.504
  1.654   1.660   1.674   1.737   1.811   1.854   1.933   1.974
  2.006   2.056   2.108   2.171   2.202   2.236   2.332   2.335
  2.423   2.464   2.504   2.594   2.596   2.691   2.765   2.774
  2.840   2.874   3.197   3.259   3.366   3.372   3.452   3.537
  4.204   4.365   4.573   4.646   4.654   4.654   4.679   4.679
  4.730   4.745   4.812   4.814   4.984   6.203   6.304  90.120
 90.360
 
 Beta MOs
 -- Occupied --
*******-482.846 -62.558 -62.505 -56.378 -56.375 -56.375 -56.326
-56.322 -56.322 -10.247 -10.208 -10.196  -8.743  -8.692  -6.572
 -6.559  -6.559  -6.522  -6.509  -6.509  -2.666  -2.663  -2.663
 -2.651  -2.651  -2.615  -2.612  -2.612  -2.602  -2.602  -0.821
 -0.755  -0.753  -0.650  -0.589  -0.490  -0.426  -0.424  -0.407
 -0.357  -0.355  -0.311  -0.311  -0.275  -0.274
 -- Virtual --
 -0.238  -0.072   0.012   0.096   0.125   0.129   0.148   0.157
  0.174   0.200   0.212   0.246   0.263   0.313   0.313   0.314
  0.343   0.350   0.359   0.479   0.486   0.510   0.544   0.579
  0.586   0.587   0.587   0.588   0.588   0.593   0.618   0.626
  0.636   0.687   0.728   0.788   0.817   0.822   0.844   0.859
  0.892   0.909   0.929   1.008   1.150   1.221   1.323   1.449
  1.486   1.516   1.654   1.679   1.692   1.745   1.821   1.858
  1.936   2.014   2.026   2.058   2.109   2.176   2.204   2.237
  2.336   2.340   2.440   2.472   2.518   2.595   2.610   2.699
  2.766   2.777   2.843   2.877   3.199   3.262   3.368   3.377
  3.458   3.541   4.218   4.386   4.576   4.665   4.669   4.669
  4.682   4.682   4.730   4.745   4.813   4.814   4.984   6.219
  6.304  90.126  90.360
 --------------------------------------------------------------
 
          Ground-State Mulliken Net Atomic Charges

     Atom                 Charge (a.u.)    Spin (a.u.)
  --------------------------------------------------------
      1 Br                   -0.000137       1.000142
      2 Br                   -0.129220       0.030739
      3 C                    -0.195243      -0.073868
      4 C                    -0.226686       1.064047
      5 C                    -0.243137       0.044096
      6 H                     0.130058       0.013592
      7 H                     0.130417       0.014031
      8 H                     0.114647      -0.046462
      9 H                     0.114707      -0.046451
     10 H                     0.152274       0.000038
     11 H                     0.152320       0.000096
  --------------------------------------------------------
  Sum of atomic charges =     0.000000
  Sum of spin   charges =     2.000000

 -----------------------------------------------------------------
                    Cartesian Multipole Moments
 -----------------------------------------------------------------
    Charge (ESU x 10^10)
                -0.0000
    Dipole Moment (Debye)
         X      -1.6904      Y      -1.5863      Z      -0.0170
       Tot       2.3182
    Quadrupole Moments (Debye-Ang)
        XX     -63.9815     XY      -2.8339     YY     -53.7554
        XZ      -0.0245     YZ      -0.0151     ZZ     -56.1371
    Octopole Moments (Debye-Ang^2)
       XXX      86.1467    XXY     -44.2528    XYY      20.5706
       YYY    -115.3224    XXZ      -0.4673    XYZ      -0.0434
       YYZ      -0.2380    XZZ      33.4071    YZZ     -46.9429
       ZZZ      -1.2315
    Hexadecapole Moments (Debye-Ang^3)
      XXXX   -4024.5872   XXXY     450.1511   XXYY    -690.5109
      XYYY     387.5949   YYYY    -689.6874   XXXZ      -1.6934
      XXYZ       0.0972   XYYZ      -0.6729   YYYZ      -1.0738
      XXZZ    -680.4511   XYZZ     157.0297   YYZZ    -139.6115
      XZZZ      -1.7294   YZZZ      -0.8975   ZZZZ     -84.7504
 -----------------------------------------------------------------
 Calculating analytic gradient of the SCF energy
 Gradient of SCF Energy
            1           2           3           4           5           6
    1  -0.0000043  -0.0000840  -0.0000443  -0.0016093   0.0002957   0.0000419
    2  -0.0000501   0.0000918  -0.0015732   0.0014055   0.0009171  -0.0006510
    3  -0.0000080   0.0000355   0.0000676   0.0000614  -0.0000062   0.0005554
            7           8           9          10          11
[...]
 
 Applying Cartesian multipole field
    Component          Value
    ---------          -----
     (2,0,0)        1.00000E-11
     (0,2,0)        2.00000E-11
     (0,0,2)       -3.00000E-10
 Nucleus-field energy     =     0.0000000524 hartrees
 Requested basis set is 6-31G(d,p)
 There are 46 shells and 145 basis functions
 A cutoff of  1.0D-14 yielded    867 shell pairs
 There are      8070 function pairs
 Smallest overlap matrix eigenvalue = 7.23E-04
 Guess from superposition of atomic densities
 Warning:  Energy on first SCF cycle will be non-variational
 SAD guess density has 93.945746 electrons

 -----------------------------------------------------------------------
  General SCF calculation program by
  Eric Jon Sundstrom, Paul Horn, Yuezhi Mao, Dmitri Zuev, Alec White,
  David Stuck, Shaama M.S., Shane Yost, Joonho Lee, David Small,
  Daniel Levine, Susi Lehtola, Hugh Burton, Evgeny Epifanovsky
 -----------------------------------------------------------------------
 Exchange:     0.2000 Hartree-Fock + 0.0800 Slater + 0.7200 B88
 Correlation:  0.1900 VWN1RPA + 0.8100 LYP
 Using SG-1 standard quadrature grid
 using 12 threads for integral computing
 -------------------------------------------------------
 OpenMP Integral computing Module                
 Release: version 1.0, May 2013, Q-Chem Inc. Pittsburgh 
 -------------------------------------------------------
 -------------------------------------------------------
 OpenMP BLAS3 based DFT computing Module                
 Release: version 1.0, May 2013, Q-Chem Inc. Pittsburgh 
 -------------------------------------------------------
 A unrestricted SCF calculation will be
 performed using DIIS
 SCF converges when DIIS error is below 1.0e-06
 Alpha HF Exchange    Energy = -19.60520884312278
 Beta HF Exchange     Energy = -19.60520884312278
 DFT Correlation      Energy =  -5.19172791725452
 DFT Exchange         Energy = -155.86310966422576
 One-Electron (alpha) Energy = -4036.36712627538236
 One-Electron (beta)  Energy = -4036.36712627538236
 Total Coulomb        Energy = 2620.82035956118534
 ---------------------------------------
  Cycle       Energy         DIIS error
 ---------------------------------------
    1   -5272.3246597617      1.83e-01  
 Alpha HF Exchange    Energy = -19.82771557567095
 Beta HF Exchange     Energy = -19.63025252968159
 DFT Correlation      Energy =  -5.23440229278764
 DFT Exchange         Energy = -157.02502146421335
 One-Electron (alpha) Energy = -4065.59951696573489
 One-Electron (beta)  Energy = -4023.56833826204547
 Total Coulomb        Energy = 2645.78567182985216
    2   -5265.2450867647      1.05e-02  
 Alpha HF Exchange    Energy = -19.68918178049564
 Beta HF Exchange     Energy = -19.54722222283971
 DFT Correlation      Energy =  -5.21257684181813
 DFT Exchange         Energy = -156.17061812678372
 One-Electron (alpha) Energy = -4041.87445815914498
 One-Electron (beta)  Energy = -4008.66877065723065
 Total Coulomb        Energy = 2614.06825919403718
    3   -5257.2400800987      1.11e-02  
 Alpha HF Exchange    Energy = -19.74729208978300
 Beta HF Exchange     Energy = -19.49153508983869
 DFT Correlation      Energy =  -5.16159945637350
 DFT Exchange         Energy = -156.21741428772052
 One-Electron (alpha) Energy = -4047.49551338257606
 One-Electron (beta)  Energy = -3999.43885969377743
 Total Coulomb        Energy = 2637.03810457702366
    4   -5230.6596209275      1.96e-02  
 Alpha HF Exchange    Energy = -19.79388814268419
 Beta HF Exchange     Energy = -19.59956611983999
 DFT Correlation      Energy =  -5.22804329113929
 DFT Exchange         Energy = -156.77839516686385
 One-Electron (alpha) Energy = -4064.86489824328874
 One-Electron (beta)  Energy = -4023.69377763592411
 Total Coulomb        Energy = 2644.85863190115060
    5   -5265.2454482030      3.48e-03  
 Alpha HF Exchange    Energy = -19.74568806092264
 Beta HF Exchange     Energy = -19.55244232547497
 DFT Correlation      Energy =  -5.21077463716986
 DFT Exchange         Energy = -156.37574917318227
 One-Electron (alpha) Energy = -4056.84973759486547
 One-Electron (beta)  Energy = -4015.05919677895145
 Total Coulomb        Energy = 2627.58637205308605
    6   -5265.3527280219      2.15e-03  
 Alpha HF Exchange    Energy = -19.75976957547306
 Beta HF Exchange     Energy = -19.57751791396676
 DFT Correlation      Energy =  -5.21330958122136
 DFT Exchange         Energy = -156.52266321710786
 One-Electron (alpha) Energy = -4059.95693434756913
 One-Electron (beta)  Energy = -4019.43502071920238
 Total Coulomb        Energy = 2635.07714525426627
    7   -5265.5335816047      2.12e-03  
 Alpha HF Exchange    Energy = -19.76038333877296
 Beta HF Exchange     Energy = -19.57394587643162
 DFT Correlation      Energy =  -5.21422808843488
 DFT Exchange         Energy = -156.51206676577453
 One-Electron (alpha) Energy = -4058.91279324999823
 One-Electron (beta)  Energy = -4018.45753041889293
 Total Coulomb        Energy = 2632.99643603649156
    8   -5265.5800232062      1.15e-03  
 Alpha HF Exchange    Energy = -19.75820376547601
 Beta HF Exchange     Energy = -19.57110037574547
 DFT Correlation      Energy =  -5.21273071104553
 DFT Exchange         Energy = -156.48905877586094
 One-Electron (alpha) Energy = -4058.63668401267068
 One-Electron (beta)  Energy = -4018.21257594502140
 Total Coulomb        Energy = 2632.43800038983500
    9   -5265.5878647004      9.38e-04  
 Alpha HF Exchange    Energy = -19.75877542686271
 Beta HF Exchange     Energy = -19.57057829162835
 DFT Correlation      Energy =  -5.21270350797653
 DFT Exchange         Energy = -156.48857814732759
 One-Electron (alpha) Energy = -4058.57112873190181
 One-Electron (beta)  Energy = -4018.10094813678506
 Total Coulomb        Energy = 2632.25165761288008
   10   -5265.5965661340      6.18e-04  
 Alpha HF Exchange    Energy = -19.76098870086005
 Beta HF Exchange     Energy = -19.57148786015128
 DFT Correlation      Energy =  -5.21303252052249
 DFT Exchange         Energy = -156.49985906992092
 One-Electron (alpha) Energy = -4058.71086617330729
 One-Electron (beta)  Energy = -4018.19497888781825
 Total Coulomb        Energy = 2632.49611496036869
   11   -5265.6006097566      3.59e-04  
 Alpha HF Exchange    Energy = -19.76135862628263
 Beta HF Exchange     Energy = -19.57117926445635
 DFT Correlation      Energy =  -5.21296342528069
 DFT Exchange         Energy = -156.49960071981616
 One-Electron (alpha) Energy = -4058.74576333818277
 One-Electron (beta)  Energy = -4018.17562408281719
 Total Coulomb        Energy = 2632.50935652507769
   12   -5265.6026444362      8.87e-05  
 Alpha HF Exchange    Energy = -19.76143643215785
 Beta HF Exchange     Energy = -19.57108830020394
 DFT Correlation      Energy =  -5.21296672779770
 DFT Exchange         Energy = -156.49952149904411
 One-Electron (alpha) Energy = -4058.73249225998461
 One-Electron (beta)  Energy = -4018.15110715914761
 Total Coulomb        Energy = 2632.47135811808357
   13   -5265.6027657647      2.71e-05  
 Alpha HF Exchange    Energy = -19.76161398695053
 Beta HF Exchange     Energy = -19.57119657580688
 DFT Correlation      Energy =  -5.21300228321514
 DFT Exchange         Energy = -156.50064815791336
 One-Electron (alpha) Energy = -4058.74953633804898
 One-Electron (beta)  Energy = -4018.16197508376081
 Total Coulomb        Energy = 2632.50070691355404
   14   -5265.6027770166      5.56e-06  
 Alpha HF Exchange    Energy = -19.76156676676156
 Beta HF Exchange     Energy = -19.57115858702259
 DFT Correlation      Energy =  -5.21299819629085
 DFT Exchange         Energy = -156.50032375133313
 One-Electron (alpha) Energy = -4058.74686592718990
 One-Electron (beta)  Energy = -4018.15890942229316
 Total Coulomb        Energy = 2632.49455683363522
   15   -5265.6027773217      1.15e-06  
 Alpha HF Exchange    Energy = -19.76156436560095
 Beta HF Exchange     Energy = -19.57115783180160
 DFT Correlation      Energy =  -5.21299948303199
 DFT Exchange         Energy = -156.50031620150614
 One-Electron (alpha) Energy = -4058.74678579535612
 One-Electron (beta)  Energy = -4018.15871168531839
 Total Coulomb        Energy = 2632.49426951952091
   16   -5265.6027773475      2.95e-07  Convergence criterion met
 ---------------------------------------
 SCF time:   CPU 53.91s  wall 4.00s 
<S^2> =          2.005388680
 Alpha HF Exchange    Energy = -19.76156436560095
 Beta HF Exchange     Energy = -19.57115783180160
 DFT Correlation      Energy =  -5.21299948303199
 DFT Exchange         Energy = -156.50031620150614
 One-Electron (alpha) Energy = -4058.74678579535612
 One-Electron (beta)  Energy = -4018.15871168531839
 Total Coulomb        Energy = 2632.49426951952091
 Nuclear repulsion Energy = 379.85448849557605
 SCF   energy in the final basis set =    -5265.6027773475
 Total energy in the final basis set =    -5265.6027773475
 
 --------------------------------------------------------------
 
                    Orbital Energies (a.u.)
 --------------------------------------------------------------
 
 Alpha MOs
 -- Occupied --
*******-482.846 -62.559 -62.505 -56.384 -56.376 -56.376 -56.326
-56.322 -56.322 -10.248 -10.209 -10.207  -8.747  -8.692  -6.583
 -6.561  -6.561  -6.522  -6.509  -6.509  -2.674  -2.669  -2.669
 -2.652  -2.652  -2.615  -2.611  -2.611  -2.602  -2.602  -0.827
 -0.799  -0.763  -0.666  -0.601  -0.493  -0.433  -0.430  -0.417
 -0.374  -0.360  -0.359  -0.325  -0.325  -0.277  -0.274  -0.222
 -- Virtual --
  0.001   0.093   0.120   0.123   0.142   0.155   0.165   0.196
  0.209   0.243   0.255   0.284   0.309   0.309   0.341   0.350
  0.358   0.475   0.484   0.500   0.531   0.541   0.542   0.542
  0.548   0.572   0.579   0.579   0.608   0.618   0.624   0.679
  0.729   0.785   0.815   0.816   0.842   0.857   0.884   0.904
  0.928   0.992   1.150   1.214   1.309   1.421   1.480   1.495
  1.654   1.666   1.674   1.735   1.809   1.855   1.929   1.974
  2.008   2.057   2.108   2.172   2.202   2.235   2.327   2.337
  2.425   2.462   2.511   2.591   2.595   2.688   2.763   2.772
  2.843   2.874   3.197   3.259   3.369   3.371   3.446   3.539
  4.206   4.365   4.573   4.646   4.654   4.654   4.679   4.679
  4.731   4.745   4.812   4.814   4.985   6.203   6.304  90.120
 90.360
 
 Beta MOs
 -- Occupied --
*******-482.846 -62.558 -62.505 -56.378 -56.375 -56.375 -56.326
-56.322 -56.322 -10.246 -10.208 -10.196  -8.743  -8.691  -6.573
 -6.559  -6.559  -6.521  -6.509  -6.509  -2.666  -2.663  -2.663
 -2.651  -2.651  -2.615  -2.611  -2.611  -2.602  -2.601  -0.821
 -0.756  -0.753  -0.649  -0.589  -0.489  -0.426  -0.424  -0.407
 -0.357  -0.355  -0.311  -0.311  -0.275  -0.273
 -- Virtual --
 -0.238  -0.072   0.013   0.096   0.124   0.129   0.147   0.157
  0.173   0.199   0.213   0.246   0.261   0.312   0.313   0.313
  0.343   0.350   0.359   0.479   0.485   0.510   0.543   0.581
  0.586   0.587   0.588   0.588   0.588   0.593   0.619   0.625
  0.635   0.688   0.733   0.788   0.817   0.820   0.844   0.859
  0.890   0.909   0.930   1.007   1.153   1.222   1.321   1.456
  1.485   1.504   1.654   1.685   1.692   1.744   1.819   1.860
  1.932   2.010   2.030   2.059   2.108   2.178   2.204   2.236
  2.335   2.338   2.442   2.471   2.526   2.596   2.604   2.695
  2.764   2.774   2.846   2.877   3.199   3.262   3.371   3.376
  3.451   3.543   4.220   4.385   4.576   4.665   4.668   4.668
  4.682   4.682   4.731   4.745   4.813   4.815   4.985   6.219
  6.305  90.126  90.360
 --------------------------------------------------------------
 
          Ground-State Mulliken Net Atomic Charges

     Atom                 Charge (a.u.)    Spin (a.u.)
  --------------------------------------------------------
      1 Br                   -0.000132       1.000140
      2 Br                   -0.130560       0.032418
      3 C                    -0.194774      -0.074061
      4 C                    -0.228148       1.065104
      5 C                    -0.243020       0.042892
      6 H                     0.130158       0.013528
      7 H                     0.130497       0.013824
      8 H                     0.115404      -0.046979
      9 H                     0.115437      -0.046975
     10 H                     0.152551       0.000031
     11 H                     0.152588       0.000078
  --------------------------------------------------------
  Sum of atomic charges =     0.000000
  Sum of spin   charges =     2.000000

 -----------------------------------------------------------------
                    Cartesian Multipole Moments
 -----------------------------------------------------------------
    Charge (ESU x 10^10)
                 0.0000
    Dipole Moment (Debye)
         X      -1.7445      Y      -1.5691      Z      -0.0162
       Tot       2.3464
    Quadrupole Moments (Debye-Ang)
        XX     -64.0517     XY      -2.7621     YY     -53.7631
        XZ      -0.0235     YZ      -0.0133     ZZ     -56.1363
    Octopole Moments (Debye-Ang^2)
       XXX      84.8410    XXY     -44.5373    XYY      20.3210
       YYY    -114.3041    XXZ      -0.4783    XYZ      -0.0632
       YYZ      -0.2271    XZZ      32.9910    YZZ     -46.6320
       ZZZ      -1.2631
    Hexadecapole Moments (Debye-Ang^3)
      XXXX   -4017.2559   XXXY     452.1406   XXYY    -690.6235
      XYYY     385.3680   YYYY    -684.7340   XXXZ      -1.4474
      XXYZ       0.1486   XYYZ      -0.6831   YYYZ      -1.1228
      XXZZ    -678.8692   XYZZ     156.0865   YYZZ    -138.6575
      XZZZ      -1.4549   YZZZ      -0.9968   ZZZZ     -84.7381
 -----------------------------------------------------------------
 Calculating analytic gradient of the SCF energy
 Gradient of SCF Energy
            1           2           3           4           5           6
    1  -0.0000024  -0.0000243  -0.0002053  -0.0000643   0.0000730  -0.0000025
    2  -0.0000591   0.0000288   0.0002567  -0.0000776  -0.0000190  -0.0001520
    3  -0.0000086   0.0000328   0.0000485  -0.0000245  -0.0000201   0.0001401
            7           8           9          10          11
    1  -0.0000047   0.0001195   0.0001035   0.0000096  -0.0000021
    2  -0.0001131   0.0000418   0.0000366   0.0000402   0.0000168
    3  -0.0001249  -0.0000061  -0.0000379  -0.0000022   0.0000029
 Max gradient component =       2.567E-04
 RMS gradient           =       8.457E-05
 Gradient time:  CPU 12.60 s  wall 1.12 s
 Geometry Optimization Parameters
   NAtoms,    NIC,     NZ,  NCons,   NDum,   NFix, NCnnct, MaxDiis
       11     156       0       1       0       0       0       0

 Cartesian Hessian Update
 Hessian Updated using BFGS Update


** CONSTRAINED OPTIMIZATION IN DELOCALIZED INTERNAL COORDINATES **
   Searching for a Minimum

   Optimization Cycle:  11

                       Coordinates (Angstroms)
     ATOM                X               Y               Z
      1  Br       -4.9776746281    2.1734026082    0.0031456871
      2  Br        2.9300484872    0.8372383807    0.0134206923
      3  C         0.1312945039   -0.0370042560    0.0211969876
      4  C        -0.8550658143   -1.1573729022   -0.0027309265
      5  C         1.5618633186   -0.5976678386   -0.0024782542
      6  H         0.0073426999    0.5744828520    0.9216090438
      7  H        -0.0037151782    0.6202739187   -0.8447027446
      8  H        -1.1675061199   -1.6021998144   -0.9417202755
      9  H        -1.1608621610   -1.6494681037    0.9145240750
     10  H         1.7592600116   -1.1732896706   -0.9061312921
     11  H         1.7749178802   -1.2096961740    0.8732660069
   Point Group: c1    Number of degrees of freedom:    27


   Energy is  -5265.602777348

              Constraints and their Current Values
                                        Value     Constraint
   Distance(Angs):        1   4             5.300000     5.300000
 Hessian Updated using BFGS Update

 26 Hessian modes will be used to form the next step
  Hessian Eigenvalues:
     0.002351    0.009973    0.031586    0.045037    0.048605    0.050994
     0.057173    0.062001    0.062885    0.063777    0.068579    0.075157
     0.111945    0.122766    0.159202    0.159732    0.162788    0.222363
     0.259408    0.272099    0.290891    0.297019    0.304151    0.348818
     0.348829    0.401371

 Minimum Search - Taking Simple RFO Step
 Searching for Lamda that Minimizes Along All modes
 Value Taken    Lamda =  -0.00000113
 Step Taken.  Stepsize is  0.014998

                             Maximum     Tolerance    Cnvgd?
         Gradient           0.000120      0.000300     YES
         Displacement       0.010420      0.001200      NO
         Energy change     -0.000001      0.000001     YES


                       Distance Matrix (Angstroms)
             Br(  1)   Br(  2)   C (  3)   C (  4)   C (  5)   H (  6)
   Br(  2)  8.019821
   C (  3)  5.566668  2.932130
   C (  4)  5.300000  4.278531  1.492885
   C (  5)  7.102424  1.982710  1.536695  2.480890
   H (  6)  5.315122  3.071816  1.095455  2.144173  2.155089
   H (  7)  5.279330  3.064379  1.095456  2.143302  2.154939  1.766940
   H (  8)  5.446589  4.863446  2.250318  1.084984  3.056259  3.096807
   H (  9)  5.478413  4.871473  2.251165  1.084908  3.059479  2.512113
   H ( 10)  7.577165  2.501708  2.191199  2.766059  1.089447  3.076452
   H ( 11)  7.602629  2.502719  2.191512  2.772530  1.089449  2.511962
             H (  7)   H (  8)   H (  9)   H ( 10)
   H (  8)  2.510620
   H (  9)  3.096062  1.856858
   H ( 10)  2.515696  2.958241  3.473996
   H ( 11)  3.076320  3.479381  2.968822  1.779839
 
 Final energy is   -5265.60277734752     


 ******************************
 **  OPTIMIZATION CONVERGED  **
 ******************************

                       Coordinates (Angstroms)
     ATOM                X               Y               Z
      1  Br       -4.9776746281    2.1734026082    0.0031456871
      2  Br        2.9300484872    0.8372383807    0.0134206923
      3  C         0.1312945039   -0.0370042560    0.0211969876
      4  C        -0.8550658143   -1.1573729022   -0.0027309265
      5  C         1.5618633186   -0.5976678386   -0.0024782542
      6  H         0.0073426999    0.5744828520    0.9216090438
      7  H        -0.0037151782    0.6202739187   -0.8447027446
      8  H        -1.1675061199   -1.6021998144   -0.9417202755
      9  H        -1.1608621610   -1.6494681037    0.9145240750
     10  H         1.7592600116   -1.1732896706   -0.9061312921
     11  H         1.7749178802   -1.2096961740    0.8732660069

Z-matrix Print:
$molecule
0 3
Br
C  1 1.982710
H  2 1.089447 1 105.307543
H  2 1.089449 1 105.377008 3 115.782286 0
C  2 1.536695 1 112.224251 3 -122.070674 0
H  5 1.095455 2 108.763394 1 -58.792932 0
H  5 1.095456 2 108.751679 1 58.006201 0
C  5 1.492885 2 109.939110 1 179.559734 0
H  8 1.084908 5 120.869164 2 85.376822 0
H  8 1.084984 5 120.784850 2 -85.071949 0
Br 7 5.279330 5 99.537196 2 -178.827935 0
$end

PES scan, value:    5.3000 energy: -5265.6027773475
------- Summary of potential scan: ------ 
    5.3000     -5265.6027773475
----------------------------------------- 
Archival summary:
1\1\hpc0242\JobtypUnspecified\ProcedureUnspecified\6-31G**\r236(3)\knomura\ThuMar1405:44:152019ThuMar1405:44:152019\0\\#,JobtypUnspecified,ProcedureUnspecified,6-31G**,\\0,3\Br\C,1,1.98271\H,2,1.08945,1,105.308\H,2,1.08945,1,105.377,3,115.782,0\C,2,1.53669,1,112.224,3,-122.071,0\H,5,1.09546,2,108.763,1,-58.7929,0\H,5,1.09546,2,108.752,1,58.0062,0\C,5,1.49288,2,109.939,1,179.56,0\H,8,1.08491,5,120.869,2,85.3768,0\H,8,1.08498,5,120.785,2,-85.0719,0\Br,7,5.27933,5,99.5372,2,-178.828,0\\\@

 Total job time:  67.78s(wall), 789.55s(cpu) 
 Thu Mar 14 05:44:15 2019

        *************************************************************
        *                                                           *
        *  Thank you very much for using Q-Chem.  Have a nice day.  *
        *                                                           *
        *************************************************************


