
Running Job 1 of 1 halogens/Bromine/04/Br_1_4.xyz.data/inputs/bond_triplet_3.9.in
qchem halogens/Bromine/04/Br_1_4.xyz.data/inputs/bond_triplet_3.9.in_22157.0 /staging/scratch/2868759/qchem22157/ 1
/usr/usc/qchem/5.1.1/exe/qcprog.exe_s halogens/Bromine/04/Br_1_4.xyz.data/inputs/bond_triplet_3.9.in_22157.0 /staging/scratch/2868759/qchem22157/
Check license passed

                  Welcome to Q-Chem
     A Quantum Leap Into The Future Of Chemistry


 Q-Chem 5.1, Q-Chem, Inc., Pleasanton, CA (2018)

 Yihan Shao,  Zhengting Gan,  E. Epifanovsky,  A. T. B. Gilbert,  M. Wormit,  
 J. Kussmann,  A. W. Lange,  A. Behn,  Jia Deng,  Xintian Feng,  D. Ghosh,  
 M. Goldey,  P. R. Horn,  L. D. Jacobson,  I. Kaliman,  T. Kus,  A. Landau,  
 Jie Liu,  E. I. Proynov,  R. M. Richard,  R. P. Steele,  E. J. Sundstrom,  
 H. L. Woodcock III,  P. M. Zimmerman,  D. Zuev,  B. Albrecht,  E. Alguire,  
 S. A. Baeppler,  D. Barton,  Z. Benda,  Y. A. Bernard,  E. J. Berquist,  
 K. B. Bravaya,  H. Burton,  D. Casanova,  Chun-Min Chang,  Yunqing Chen,  
 A. Chien,  K. D. Closser,  M. P. Coons,  S. Coriani,  S. Dasgupta,  
 A. L. Dempwolff,  M. Diedenhofen,  Hainam Do,  R. G. Edgar,  Po-Tung Fang,  
 S. Faraji,  S. Fatehi,  Qingguo Feng,  K. D. Fenk,  J. Fosso-Tande,  
 Qinghui Ge,  A. Ghysels,  G. Gidofalvi,  J. Gomes,  J. Gonthier,  A. Gunina,  
 D. Hait,  M. W. D. Hanson-Heine,  P. H. P. Harbach,  A. W. Hauser,  
 J. E. Herr,  E. G. Hohenstein,  Z. C. Holden,  Kerwin Hui,  B. C. Huynh,  
 T.-C. Jagau,  Hyunjun Ji,  B. Kaduk,  K. Khistyaev,  Jaehoon Kim,  
 P. Klunzinger,  K. Koh,  D. Kosenkov,  L. Koulias,  T. Kowalczyk,  
 C. M. Krauter,  A. Kunitsa,  Ka Un Lao,  A. Laurent,  K. V. Lawler,  
 Joonho Lee,  D. Lefrancois,  S. Lehtola,  D. S. Levine,  Yi-Pei Li,  
 You-Sheng Lin,  Fenglai Liu,  E. Livshits,  A. Luenser,  P. Manohar,  
 E. Mansoor,  S. F. Manzer,  Shan-Ping Mao,  Yuezhi Mao,  N. Mardirossian,  
 A. V. Marenich,  T. Markovich,  L. A. Martinez-Martinez,  S. A. Maurer,  
 N. J. Mayhall,  S. C. McKenzie,  J.-M. Mewes,  A. F. Morrison,  
 J. W. Mullinax,  K. Nanda,  T. S. Nguyen-Beck,  R. Olivares-Amaya,  
 J. A. Parkhill,  T. M. Perrine,  F. Plasser,  P. Pokhilko,  S. Prager,  
 A. Prociuk,  E. Ramos,  D. R. Rehn,  F. Rob,  M. Schneider,  N. Sergueev,  
 S. M. Sharada,  S. Sharma,  D. W. Small,  T. Stauch,  T. Stein,  
 Yu-Chuan Su,  A. J. W. Thom,  A. Tkatchenko,  T. Tsuchimochi,  N. M. Tubman,  
 L. Vogt,  M. L. Vidal,  O. Vydrov,  M. A. Watson,  J. Wenzel,  
 M. de Wergifosse,  T. A. Wesolowski,  A. White,  J. Witte,  A. Yamada,  
 Jun Yang,  K. Yao,  S. Yeganeh,  S. R. Yost,  Zhi-Qiang You,  A. Zech,  
 Igor Ying Zhang,  Xing Zhang,  Yan Zhao,  Ying Zhu,  B. R. Brooks,  
 G. K. L. Chan,  C. J. Cramer,  M. S. Gordon,  W. J. Hehre,  A. Klamt,  
 M. W. Schmidt,  C. D. Sherrill,  D. G. Truhlar,  A. Aspuru-Guzik,  R. Baer,  
 A. T. Bell,  N. A. Besley,  Jeng-Da Chai,  A. E. DePrince, III,  
 R. A. DiStasio Jr.,  A. Dreuw,  B. D. Dunietz,  T. R. Furlani,  
 Chao-Ping Hsu,  Yousung Jung,  Jing Kong,  D. S. Lambrecht,  WanZhen Liang,  
 C. Ochsenfeld,  V. A. Rassolov,  L. V. Slipchenko,  J. E. Subotnik,  
 T. Van Voorhis,  J. M. Herbert,  A. I. Krylov,  P. M. W. Gill,  M. Head-Gordon

 Contributors to earlier versions of Q-Chem not listed above: 
 R. D. Adamson,  B. Austin,  J. Baker,  G. J. O. Beran,  K. Brandhorst,  
 S. T. Brown,  E. F. C. Byrd,  A. K. Chakraborty,  C.-L. Cheng,  
 Siu Hung Chien,  D. M. Chipman,  D. L. Crittenden,  H. Dachsel,  
 R. J. Doerksen,  A. D. Dutoi,  L. Fusti-Molnar,  W. A. Goddard III,  
 A. Golubeva-Zadorozhnaya,  S. R. Gwaltney,  G. Hawkins,  A. Heyden,  
 S. Hirata,  G. Kedziora,  F. J. Keil,  C. Kelley,  Jihan Kim,  R. A. King,  
 R. Z. Khaliullin,  P. P. Korambath,  W. Kurlancheek,  A. M. Lee,  M. S. Lee,  
 S. V. Levchenko,  Ching Yeh Lin,  D. Liotard,  R. C. Lochan,  I. Lotan,  
 P. E. Maslen,  N. Nair,  D. P. O'Neill,  D. Neuhauser,  E. Neuscamman,  
 C. M. Oana,  R. Olson,  B. Peters,  R. Peverati,  P. A. Pieniazek,  
 Y. M. Rhee,  J. Ritchie,  M. A. Rohrdanz,  E. Rosta,  N. J. Russ,  
 H. F. Schaefer III,  N. E. Schultz,  N. Shenvi,  A. C. Simmonett,  A. Sodt,  
 D. Stuck,  K. S. Thanthiriwatte,  V. Vanovschi,  Tao Wang,  A. Warshel,  
 C. F. Williams,  Q. Wu,  X. Xu,  W. Zhang

 Please cite Q-Chem as follows:
 Y. Shao et al., Mol. Phys. 113, 184-215 (2015)
 DOI: 10.1080/00268976.2014.952696

 Q-Chem 5.1.1 for Intel X86 EM64T Linux

 Parts of Q-Chem use Armadillo 8.300.2 (Tropical Shenanigans).
 http://arma.sourceforge.net/

 Q-Chem begins on Thu Mar 14 06:01:18 2019  

Host: 
0

     Scratch files written to /staging/scratch/2868759/qchem22157//
 Aug318 |scratch|qcdevops|jenkins|workspace|build_RNUM 6013   
Processing $rem in /usr/usc/qchem/5.1.1/config/preferences.
 MEM_TOTAL  2000 
Input Ideriv = 2
Curr. Ideriv = -1
Max.  Ideriv = 2

Checking the input file for inconsistencies... 	...done.

--------------------------------------------------------------
User input:
--------------------------------------------------------------

$comment
potential surface scanner
$end

$rem
JOBTYPE  PES_SCAN
UNRESTRICTED TRUE
SYM_IGNORE  TRUE
GEOM_OPT_MAX_CYCLES 400
SCF_MAX_CYCLES 400
METHOD   B3LYP
BASIS   6-31G**
PDB_PRINT 2
SCF_CONVERGENCE 6
THRESH 14
SCF_PRINT 1
$end
$molecule
0 3
Br -4.097708 1.489480 0.006526
Br 2.903552 0.781339 0.014700
C 0.071000 0.048983 0.018672
C -0.977729 -1.013644 -0.004056
C 1.470712 -0.587143 -0.000414
H -0.019955 0.668180 0.917914
H -0.025249 0.710206 -0.849385
H -1.315629 -1.440451 -0.942822
H -1.298284 -1.497459 0.912835
H 1.639558 -1.174289 -0.902446
H 1.649633 -1.206501 0.877879
$end
$scan
stre 1 4 3.900000 3.901000 0.100000
$end
--------------------------------------------------------------
 ----------------------------------------------------------------
             Standard Nuclear Orientation (Angstroms)
    I     Atom           X                Y                Z
 ----------------------------------------------------------------
    1      Br     -4.0977080000     1.4894800000     0.0065260000
    2      Br      2.9035520000     0.7813390000     0.0147000000
    3      C       0.0710000000     0.0489830000     0.0186720000
    4      C      -0.9777290000    -1.0136440000    -0.0040560000
    5      C       1.4707120000    -0.5871430000    -0.0004140000
    6      H      -0.0199550000     0.6681800000     0.9179140000
    7      H      -0.0252490000     0.7102060000    -0.8493850000
    8      H      -1.3156290000    -1.4404510000    -0.9428220000
    9      H      -1.2982840000    -1.4974590000     0.9128350000
   10      H       1.6395580000    -1.1742890000    -0.9024460000
   11      H       1.6496330000    -1.2065010000     0.8778790000
 ----------------------------------------------------------------
 Nuclear Repulsion Energy =   411.1230063892 hartrees
 There are       48 alpha and       46 beta electrons
 Requested basis set is 6-31G(d,p)
 There are 46 shells and 145 basis functions

 Total QAlloc Memory Limit   2000 MB
 Mega-Array Size       188 MB
 MEM_STATIC part       192 MB
A total of 1 constraints
  
            1
    1   1.0100000
    2   1.0100000
    3   4.0100000
    4   3.9000000
    5   3.9010000
    6   0.1000000
    7   0.0000000
    8   0.0000000
    9   0.0000000
   10   0.0000000

                       Distance Matrix (Angstroms)
             Br(  1)   Br(  2)   C (  3)   C (  4)   C (  5)   H (  6)
   Br(  2)  7.036986
   C (  3)  4.410590  2.925699
   C (  4)  4.000001  4.276290  1.493159
   C (  5)  5.943039  1.981414  1.537600  2.485313
   H (  6)  4.258313  3.061943  1.095588  2.143803  2.154356
   H (  7)  4.233766  3.054436  1.095446  2.143235  2.154476  1.767807
   H (  8)  4.150388  4.863608  2.250694  1.085183  3.062673  3.096358
   H (  9)  4.192848  4.863640  2.250766  1.085137  3.054511  2.514785
   H ( 10)  6.390471  2.502662  2.192083  2.771841  1.089455  3.076099
   H ( 11)  6.407769  2.503777  2.192387  2.778135  1.089502  2.510688
             H (  7)   H (  8)   H (  9)   H ( 10)
   H (  8)  2.509808
   H (  9)  3.098358  1.856613
   H ( 10)  2.515098  2.967424  3.468515
   H ( 11)  3.076107  3.487472  2.962447  1.780645
 
 A cutoff of  1.0D-14 yielded    896 shell pairs
 There are      8458 function pairs
 
 -------------------------------------------------------
 OpenMP Integral Computing Module                       
 Release: version 1.0, May 2013, Q-Chem Inc. Pittsburgh 
 -------------------------------------------------------
 Integral Job Info:
 Integral job number is                      11
 Integral operator is                         1
 short-range coefficients                     0
 long-range coefficients              100000000
 Omega coefficients                           0
 if combine SR and LR in K                    0
 Integral screening is                        0
 Integral computing path is                   2
 max size of driver memory is            800000
 size of driver memory is                593474
 size of scratch memory is             15267112
 max col of scratch BK array               1296
 max len of scratch array in speh3          155
 max len of scratch index in speh4           18
 max int batch size is                      520
 min int batch size is                       52
 fixed nKL is                                52
 max L of basis functions is                  2
 order of int derivative is                   0
 number of shells is                         46
 number of basis is                         145
 number of cartesian basis is               145
 number of contracted shell pairs           896
 number of primitive shell pairs           3787
 maxK2 (contraction) of shell pair           36
 max number of K2 of shell pair               1
 max number of CS2 of shell pair             64
 max number of PS2 of shell pair            384
 mem total for path MDJ                  525948
 -------------------------------------------------------
 Smallest overlap matrix eigenvalue = 7.23E-04

 Scale SEOQF with 1.000000e-01/1.000000e-01/1.000000e+00

 Standard Electronic Orientation quadrupole field applied
 Nucleus-field energy     =     0.0000000355 hartrees
 Guess from superposition of atomic densities
 Warning:  Energy on first SCF cycle will be non-variational
 SAD guess density has 93.945746 electrons

 -----------------------------------------------------------------------
  General SCF calculation program by
  Eric Jon Sundstrom, Paul Horn, Yuezhi Mao, Dmitri Zuev, Alec White,
  David Stuck, Shaama M.S., Shane Yost, Joonho Lee, David Small,
  Daniel Levine, Susi Lehtola, Hugh Burton, Evgeny Epifanovsky
 -----------------------------------------------------------------------
 Exchange:     0.2000 Hartree-Fock + 0.0800 Slater + 0.7200 B88
 Correlation:  0.1900 VWN1RPA + 0.8100 LYP
 Using SG-1 standard quadrature grid
 using 12 threads for integral computing
 -------------------------------------------------------
 OpenMP Integral computing Module                
 Release: version 1.0, May 2013, Q-Chem Inc. Pittsburgh 
 -------------------------------------------------------
 -------------------------------------------------------
 OpenMP BLAS3 based DFT computing Module                
 Release: version 1.0, May 2013, Q-Chem Inc. Pittsburgh 
 -------------------------------------------------------
 A unrestricted SCF calculation will be
 performed using DIIS
 SCF converges when DIIS error is below 1.0e-06
 Alpha HF Exchange    Energy = -19.60526813827957
 Beta HF Exchange     Energy = -19.60526813827957
 DFT Correlation      Energy =  -5.19257191151029
 DFT Exchange         Energy = -155.86244404280444
 One-Electron (alpha) Energy = -4067.61959462441973
 One-Electron (beta)  Energy = -4067.61959462441973
 Total Coulomb        Energy = 2651.98267342797999
 ---------------------------------------
  Cycle       Energy         DIIS error
 ---------------------------------------
    1   -5272.3990616270      1.83e-01  
 Alpha HF Exchange    Energy = -19.82772016731910
 Beta HF Exchange     Energy = -19.62997623076976
 DFT Correlation      Energy =  -5.23500440577631
 DFT Exchange         Energy = -157.02326266294750
 One-Electron (alpha) Energy = -4097.84785149515301
 One-Electron (beta)  Energy = -4054.30303594086172
 Total Coulomb        Energy = 2677.49058275593552
    2   -5265.2532617222      1.05e-02  
 Alpha HF Exchange    Energy = -19.68704821444087
 Beta HF Exchange     Energy = -19.53087584538420
 DFT Correlation      Energy =  -5.21239136269993
 DFT Exchange         Energy = -156.12409498353736
 One-Electron (alpha) Energy = -4072.83339900754072
 One-Electron (beta)  Energy = -4038.66408272982471
 Total Coulomb        Energy = 2643.38329487618603
    3   -5257.5455908425      1.23e-02  
 Alpha HF Exchange    Energy = -19.64172973118073
 Beta HF Exchange     Energy = -19.49245205563400
 DFT Correlation      Energy =  -5.17380032839965
 DFT Exchange         Energy = -155.93283909062353
 One-Electron (alpha) Energy = -4079.24991314517683
 One-Electron (beta)  Energy = -4039.62779255992382
 Total Coulomb        Energy = 2651.77487260706266
    4   -5256.2206478792      1.98e-02  
 Alpha HF Exchange    Energy = -19.78320405084398
 Beta HF Exchange     Energy = -19.59285843290419
 DFT Correlation      Energy =  -5.22098396209231
 DFT Exchange         Energy = -156.68455619835174
 One-Electron (alpha) Energy = -4095.11779783735165
 One-Electron (beta)  Energy = -4053.47836153206890
 Total Coulomb        Energy = 2673.76981597147778
    5   -5264.9849396174      5.59e-03  
 Alpha HF Exchange    Energy = -19.75869796809489
 Beta HF Exchange     Energy = -19.56986635731730
 DFT Correlation      Energy =  -5.21576062644287
 DFT Exchange         Energy = -156.49166153432444
 One-Electron (alpha) Energy = -4090.73301076819689
 One-Electron (beta)  Energy = -4047.69469239960245
 Total Coulomb        Energy = 2663.08099366483293
    6   -5265.2596895644      3.11e-03  
 Alpha HF Exchange    Energy = -19.76532338138976
 Beta HF Exchange     Energy = -19.58022444820459
 DFT Correlation      Energy =  -5.21322588607770
 DFT Exchange         Energy = -156.54564978306749
 One-Electron (alpha) Energy = -4092.82407895421466
 One-Electron (beta)  Energy = -4050.22165583589049
 Total Coulomb        Energy = 2667.51123191664965
    7   -5265.5159199475      2.57e-03  
 Alpha HF Exchange    Energy = -19.76119194972904
 Beta HF Exchange     Energy = -19.57418244839398
 DFT Correlation      Energy =  -5.21436951364233
 DFT Exchange         Energy = -156.51359837527758
 One-Electron (alpha) Energy = -4091.45207012960054
 One-Electron (beta)  Energy = -4048.80020110453506
 Total Coulomb        Energy = 2664.60880033913645
    8   -5265.5838067573      1.02e-03  
 Alpha HF Exchange    Energy = -19.75893771327976
 Beta HF Exchange     Energy = -19.57012956883537
 DFT Correlation      Energy =  -5.21299508304594
 DFT Exchange         Energy = -156.48620760478627
 One-Electron (alpha) Energy = -4090.91523454428352
 One-Electron (beta)  Energy = -4048.24319147798860
 Total Coulomb        Energy = 2663.46683908144587
    9   -5265.5968504861      5.96e-04  
 Alpha HF Exchange    Energy = -19.76118578441375
 Beta HF Exchange     Energy = -19.57171103695929
 DFT Correlation      Energy =  -5.21351515183536
 DFT Exchange         Energy = -156.50131165467104
 One-Electron (alpha) Energy = -4091.11750469957860
 One-Electron (beta)  Energy = -4048.37841479634153
 Total Coulomb        Energy = 2663.81932460689541
   10   -5265.6013120922      3.15e-04  
 Alpha HF Exchange    Energy = -19.76140987355037
 Beta HF Exchange     Energy = -19.57107848595351
 DFT Correlation      Energy =  -5.21349626764964
 DFT Exchange         Energy = -156.49933224534027
 One-Electron (alpha) Energy = -4091.07138893970750
 One-Electron (beta)  Energy = -4048.31160578857680
 Total Coulomb        Energy = 2663.70269006380477
   11   -5265.6026151123      1.35e-04  
 Alpha HF Exchange    Energy = -19.76123328176818
 Beta HF Exchange     Energy = -19.57069867172494
 DFT Correlation      Energy =  -5.21337210685281
 DFT Exchange         Energy = -156.49709189239820
 One-Electron (alpha) Energy = -4091.04271734199665
 One-Electron (beta)  Energy = -4048.26600737760373
 Total Coulomb        Energy = 2663.62517990226752
   12   -5265.6029343454      2.51e-05  
 Alpha HF Exchange    Energy = -19.76154551317632
 Beta HF Exchange     Energy = -19.57091035077846
 DFT Correlation      Energy =  -5.21345781792399
 DFT Exchange         Energy = -156.49922958909212
 One-Electron (alpha) Energy = -4091.06507070353609
 One-Electron (beta)  Energy = -4048.28481762054253
 Total Coulomb        Energy = 2663.66908110400118
   13   -5265.6029440663      6.51e-06  
 Alpha HF Exchange    Energy = -19.76156363992334
 Beta HF Exchange     Energy = -19.57089639506208
 DFT Correlation      Energy =  -5.21346570719472
 DFT Exchange         Energy = -156.49929554884866
 One-Electron (alpha) Energy = -4091.06820229444338
 One-Electron (beta)  Energy = -4048.28658740890796
 Total Coulomb        Energy = 2663.67405900569793
   14   -5265.6029455640      1.76e-06  
 Alpha HF Exchange    Energy = -19.76155140130502
 Beta HF Exchange     Energy = -19.57088014751368
 DFT Correlation      Energy =  -5.21346547773657
 DFT Exchange         Energy = -156.49920241827294
 One-Electron (alpha) Energy = -4091.06665411795348
 One-Electron (beta)  Energy = -4048.28517627214069
 Total Coulomb        Energy = 2663.67097755850682
   15   -5265.6029458517      1.23e-06  
 Alpha HF Exchange    Energy = -19.76155034113686
 Beta HF Exchange     Energy = -19.57087534622865
 DFT Correlation      Energy =  -5.21346533089860
 DFT Exchange         Energy = -156.49918940059061
 One-Electron (alpha) Energy = -4091.06647969959113
 One-Electron (beta)  Energy = -4048.28512591168419
 Total Coulomb        Energy = 2663.67073347626183
   16   -5265.6029461292      1.04e-06  
 Alpha HF Exchange    Energy = -19.76155102197309
 Beta HF Exchange     Energy = -19.57087487972350
 DFT Correlation      Energy =  -5.21346603974877
 DFT Exchange         Energy = -156.49919472948619
 One-Electron (alpha) Energy = -4091.06658262978999
 One-Electron (beta)  Energy = -4048.28540437044467
 Total Coulomb        Energy = 2663.67112079258595
   17   -5265.6029464539      1.01e-06  
 Alpha HF Exchange    Energy = -19.76155113441612
 Beta HF Exchange     Energy = -19.57087485725593
 DFT Correlation      Energy =  -5.21346614705584
 DFT Exchange         Energy = -156.49919559137419
 One-Electron (alpha) Energy = -4091.06657069009407
 One-Electron (beta)  Energy = -4048.28556853224018
 Total Coulomb        Energy = 2663.67127374653592
   18   -5265.6029467812      1.00e-06  
 Alpha HF Exchange    Energy = -19.76155055392163
 Beta HF Exchange     Energy = -19.57087494678951
 DFT Correlation      Energy =  -5.21346597353181
 DFT Exchange         Energy = -156.49919302162914
 One-Electron (alpha) Energy = -4091.06639668372600
 One-Electron (beta)  Energy = -4048.28588264273731
 Total Coulomb        Energy = 2663.67140969468664
   19   -5265.6029477029      9.91e-07  Convergence criterion met
 ---------------------------------------
 SCF time:   CPU 67.65s  wall 5.00s 
<S^2> =          2.005382396
 Alpha HF Exchange    Energy = -19.76155055392163
 Beta HF Exchange     Energy = -19.57087494678951
 DFT Correlation      Energy =  -5.21346597353181
 DFT Exchange         Energy = -156.49919302162914
 One-Electron (alpha) Energy = -4091.06639668372600
 One-Electron (beta)  Energy = -4048.28588264273731
 Total Coulomb        Energy = 2663.67140969468664
 Nuclear repulsion Energy = 411.12300642471524
 SCF   energy in the final basis set =    -5265.6029477029
 Total energy in the final basis set =    -5265.6029477029
 
 --------------------------------------------------------------
 
                    Orbital Energies (a.u.)
 --------------------------------------------------------------
 
 Alpha MOs
 -- Occupied --
*******-482.848 -62.558 -62.507 -56.382 -56.375 -56.375 -56.328
-56.324 -56.324 -10.250 -10.213 -10.210  -8.745  -8.694  -6.582
 -6.560  -6.560  -6.524  -6.511  -6.511  -2.673  -2.667  -2.667
 -2.651  -2.651  -2.617  -2.613  -2.613  -2.604  -2.604  -0.829
 -0.798  -0.765  -0.668  -0.604  -0.495  -0.435  -0.432  -0.420
 -0.372  -0.363  -0.362  -0.324  -0.324  -0.279  -0.276  -0.225
 -- Virtual --
 -0.001   0.090   0.116   0.120   0.135   0.153   0.170   0.193
  0.206   0.240   0.252   0.284   0.310   0.311   0.340   0.348
  0.357   0.476   0.482   0.497   0.526   0.538   0.543   0.545
  0.560   0.580   0.580   0.587   0.616   0.624   0.646   0.678
  0.727   0.785   0.813   0.814   0.840   0.854   0.882   0.903
  0.926   0.991   1.146   1.211   1.307   1.417   1.481   1.495
  1.652   1.662   1.686   1.734   1.808   1.852   1.927   1.972
  2.006   2.054   2.105   2.169   2.200   2.233   2.333   2.334
  2.424   2.461   2.505   2.589   2.592   2.686   2.760   2.770
  2.839   2.870   3.194   3.256   3.366   3.368   3.444   3.536
  4.204   4.364   4.572   4.649   4.655   4.656   4.681   4.681
  4.729   4.744   4.811   4.812   4.983   6.209   6.302  90.131
 90.358
 
 Beta MOs
 -- Occupied --
*******-482.848 -62.557 -62.507 -56.377 -56.374 -56.374 -56.328
-56.324 -56.324 -10.249 -10.211 -10.199  -8.741  -8.693  -6.571
 -6.558  -6.558  -6.523  -6.511  -6.511  -2.665  -2.661  -2.661
 -2.650  -2.650  -2.617  -2.613  -2.613  -2.603  -2.603  -0.824
 -0.755  -0.754  -0.652  -0.592  -0.492  -0.429  -0.427  -0.410
 -0.360  -0.357  -0.310  -0.310  -0.276  -0.275
 -- Virtual --
 -0.237  -0.076   0.010   0.093   0.122   0.123   0.143   0.154
  0.179   0.197   0.210   0.244   0.259   0.313   0.314   0.316
  0.342   0.349   0.358   0.480   0.483   0.509   0.541   0.578
  0.586   0.587   0.588   0.589   0.589   0.598   0.617   0.627
  0.673   0.698   0.730   0.789   0.815   0.820   0.843   0.857
  0.889   0.907   0.928   1.006   1.149   1.220   1.319   1.450
  1.486   1.505   1.652   1.680   1.705   1.742   1.818   1.857
  1.930   2.011   2.025   2.056   2.105   2.175   2.201   2.234
  2.335   2.343   2.441   2.469   2.520   2.592   2.603   2.693
  2.762   2.772   2.843   2.873   3.196   3.259   3.367   3.373
  3.449   3.539   4.217   4.384   4.575   4.668   4.670   4.670
  4.683   4.683   4.729   4.744   4.811   4.813   4.983   6.224
  6.303  90.137  90.358
 --------------------------------------------------------------
 
          Ground-State Mulliken Net Atomic Charges

     Atom                 Charge (a.u.)    Spin (a.u.)
  --------------------------------------------------------
      1 Br                   -0.005988       1.001901
      2 Br                   -0.126100       0.032628
      3 C                    -0.197506      -0.073038
      4 C                    -0.235880       1.059581
      5 C                    -0.243751       0.044343
      6 H                     0.132141       0.013973
      7 H                     0.132294       0.013198
      8 H                     0.118994      -0.046363
      9 H                     0.118751      -0.046347
     10 H                     0.153552       0.000073
     11 H                     0.153493       0.000049
  --------------------------------------------------------
  Sum of atomic charges =     0.000000
  Sum of spin   charges =     2.000000

 -----------------------------------------------------------------
                    Cartesian Multipole Moments
 -----------------------------------------------------------------
    Charge (ESU x 10^10)
                -0.0000
    Dipole Moment (Debye)
         X      -1.6253      Y      -1.5312      Z      -0.0178
       Tot       2.2331
    Quadrupole Moments (Debye-Ang)
        XX     -62.7208     XY      -3.3039     YY     -55.2824
        XZ      -0.0015     YZ      -0.0429     ZZ     -56.1092
    Octopole Moments (Debye-Ang^2)
       XXX      26.5900    XXY     -21.6992    XYY      12.4682
       YYY     -90.0560    XXZ      -0.6798    XYZ       0.0521
       YYZ      -0.3826    XZZ      18.6501    YZZ     -34.1477
       ZZZ      -1.4960
    Hexadecapole Moments (Debye-Ang^3)
      XXXX   -2936.9652   XXXY     127.2386   XXYY    -512.6975
      XYYY     187.7565   YYYY    -443.8439   XXXZ      -0.5105
      XXYZ      -0.4707   XYYZ      -0.1803   YYYZ      -1.6193
      XXZZ    -524.2980   XYZZ      69.8926   YYZZ     -88.1623
      XZZZ      -1.0629   YZZZ      -1.2167   ZZZZ     -84.6656
 -----------------------------------------------------------------
 Calculating analytic gradient of the SCF energy
 Gradient of SCF Energy
            1           2           3           4           5           6
    1   0.0000775  -0.0000045  -0.0000792  -0.0002079   0.0000566   0.0000008
    2  -0.0000647  -0.0000025   0.0003412  -0.0001052  -0.0001183  -0.0001423
    3  -0.0000011   0.0000294   0.0000446  -0.0000370  -0.0000130   0.0001570
            7           8           9          10          11
    1   0.0000037   0.0001123   0.0000780  -0.0000129  -0.0000243
    2  -0.0001125   0.0000489   0.0000673   0.0000522   0.0000361
    3  -0.0001502  -0.0000221  -0.0000146  -0.0000131   0.0000201
 Max gradient component =       3.412E-04
 RMS gradient           =       9.856E-05
 Gradient time:  CPU 13.54 s  wall 1.24 s
 Geometry Optimization Parameters
   NAtoms,    NIC,     NZ,  NCons,   NDum,   NFix, NCnnct, MaxDiis
       11     120       0       1       0       0       0       0


** CONSTRAINED OPTIMIZATION IN DELOCALIZED INTERNAL COORDINATES **
   Searching for a Minimum

   Optimization Cycle:   1

                       Coordinates (Angstroms)
     ATOM                X               Y               Z
      1  Br       -4.0977080000    1.4894800000    0.0065260000
      2  Br        2.9035520000    0.7813390000    0.0147000000
      3  C         0.0710000000    0.0489830000    0.0186720000
      4  C        -0.9777290000   -1.0136440000   -0.0040560000
      5  C         1.4707120000   -0.5871430000   -0.0004140000
      6  H        -0.0199550000    0.6681800000    0.9179140000
      7  H        -0.0252490000    0.7102060000   -0.8493850000
      8  H        -1.3156290000   -1.4404510000   -0.9428220000
      9  H        -1.2982840000   -1.4974590000    0.9128350000
     10  H         1.6395580000   -1.1742890000   -0.9024460000
     11  H         1.6496330000   -1.2065010000    0.8778790000
   Point Group: c1    Number of degrees of freedom:    27


   Energy is  -5265.602947703

              Constraints and their Current Values
                                        Value     Constraint
   Distance(Angs):        1   4             4.000001     3.900000

 Attempting to Generate Delocalized Internal Coordinates

   Using Lagrange Multiplier Algorithm


 28 Hessian modes will be used to form the next step
  Hessian Eigenvalues:
    -0.996067    0.022487    0.040898    0.045000    0.049768    0.050755
     0.060531    0.069171    0.071592    0.073301    0.082507    0.083204
     0.087689    0.089749    0.128186    0.157988    0.160000    0.160000
     0.222729    0.268938    0.281603    0.287326    0.302529    0.307951
     0.316865    0.348702    0.348758    1.003948

 Minimum Search - Taking P-RFO Step
 Searching for Lamda that Maximizes Along the Constraint modes Only
 Value Taken    Lamda =   0.01770407
 Searching for Lamda that Minimizes Along All other modes
 Value Taken    Lamda =  -0.01739310
 Step Taken.  Stepsize is  0.185731

                             Maximum     Tolerance    Cnvgd?
         Gradient            0.188975       0.000300      NO
         Displacement        0.185716       0.001200      NO
         Energy change     *********       0.000001      NO


 New Cartesian Coordinates Obtained by Inverse Iteration

 Displacement from previous Coordinates is:  0.160931
 ----------------------------------------------------------------
             Standard Nuclear Orientation (Angstroms)
    I     Atom           X                Y                Z
 ----------------------------------------------------------------
    1      Br     -4.0603354471     1.4394515700     0.0063508356
    2      Br      2.9080044300     0.7764004814     0.0150292548
    3      C       0.0712743627     0.0609078721     0.0185788366
    4      C      -1.0094917903    -0.9927678809    -0.0045031698
    5      C       1.4670813965    -0.5836037485    -0.0003571258
    6      H      -0.0008477568     0.6743560870     0.9206144075
    7      H      -0.0061800324     0.7162904664    -0.8520688570
    8      H      -1.3310368367    -1.4392253538    -0.9547740306
    9      H      -1.3135899657    -1.4970960141     0.9250496328
   10      H       1.6326800475    -1.1718007478    -0.9023271959
   11      H       1.6423425923    -1.2042117319     0.8778104118
 ----------------------------------------------------------------
 Nuclear Repulsion Energy =   412.6243877675 hartrees
 There are       48 alpha and       46 beta electrons

                       Distance Matrix (Angstroms)
             Br(  1)   Br(  2)   C (  3)   C (  4)   C (  5)   H (  6)
   Br(  2)  6.999819
   C (  3)  4.355540  2.925573
   C (  4)  3.901725  4.298501  1.509576
   C (  5)  5.886012  1.981441  1.537541  2.510149
   H (  6)  4.230921  3.048265  1.093247  2.156967  2.141370
   H (  7)  4.206664  3.041043  1.092498  2.155431  2.141410  1.773187
   H (  8)  4.081619  4.880470  2.272508  1.098057  3.077737  3.123093
   H (  9)  4.124552  4.880449  2.273085  1.100405  3.069687  2.537423
   H ( 10)  6.328883  2.502695  2.192174  2.796286  1.089472  3.065913
   H ( 11)  6.345781  2.503820  2.192501  2.802751  1.089518  2.496182
             H (  7)   H (  8)   H (  9)   H ( 10)
   H (  8)  2.532201
   H (  9)  3.125148  1.880795
   H ( 10)  2.500655  2.976220  3.482188
   H ( 11)  3.065687  3.500655  2.970783  1.780459
 
 Applying Cartesian multipole field
    Component          Value
    ---------          -----
     (2,0,0)        1.00000E-11
     (0,2,0)        2.00000E-11
     (0,0,2)       -3.00000E-10
 Nucleus-field energy     =     0.0000000347 hartrees
 Requested basis set is 6-31G(d,p)
 There are 46 shells and 145 basis functions
 A cutoff of  1.0D-14 yielded    898 shell pairs
 There are      8468 function pairs
 Smallest overlap matrix eigenvalue = 7.23E-04
 Guess from superposition of atomic densities
 Warning:  Energy on first SCF cycle will be non-variational
 SAD guess density has 93.945746 electrons

 -----------------------------------------------------------------------
  General SCF calculation program by
  Eric Jon Sundstrom, Paul Horn, Yuezhi Mao, Dmitri Zuev, Alec White,
  David Stuck, Shaama M.S., Shane Yost, Joonho Lee, David Small,
  Daniel Levine, Susi Lehtola, Hugh Burton, Evgeny Epifanovsky
 -----------------------------------------------------------------------
 Exchange:     0.2000 Hartree-Fock + 0.0800 Slater + 0.7200 B88
 Correlation:  0.1900 VWN1RPA + 0.8100 LYP
 Using SG-1 standard quadrature grid
 using 12 threads for integral computing
 -------------------------------------------------------
 OpenMP Integral computing Module                
 Release: version 1.0, May 2013, Q-Chem Inc. Pittsburgh 
 -------------------------------------------------------
 -------------------------------------------------------
 OpenMP BLAS3 based DFT computing Module                
 Release: version 1.0, May 2013, Q-Chem Inc. Pittsburgh 
 -------------------------------------------------------
 A unrestricted SCF calculation will be
 performed using DIIS
 SCF converges when DIIS error is below 1.0e-06
 Alpha HF Exchange    Energy = -19.60220396406216
 Beta HF Exchange     Energy = -19.60220396406216
 DFT Correlation      Energy =  -5.19202736011059
 DFT Exchange         Energy = -155.85593173880898
 One-Electron (alpha) Energy = -4069.13899264122301
 One-Electron (beta)  Energy = -4069.13899264122301
 Total Coulomb        Energy = 2653.52814529419948
 ---------------------------------------
  Cycle       Energy         DIIS error
 ---------------------------------------
    1   -5272.3778192130      1.83e-01  
 Alpha HF Exchange    Energy = -19.82560309228941
 Beta HF Exchange     Energy = -19.62818309556335
 DFT Correlation      Energy =  -5.23410967487299
 DFT Exchange         Energy = -157.00886241943289
 One-Electron (alpha) Energy = -4099.39480488273330
 One-Electron (beta)  Energy = -4055.78127193628097
 Total Coulomb        Energy = 2678.99496549544301
    2   -5265.2534818035      1.05e-02  
 Alpha HF Exchange    Energy = -19.68527379023865
 Beta HF Exchange     Energy = -19.52906305207165
 DFT Correlation      Energy =  -5.21140036763079
 DFT Exchange         Energy = -156.11223597572697
 One-Electron (alpha) Energy = -4074.32289020479084
 One-Electron (beta)  Energy = -4040.14050287546615
 Total Coulomb        Energy = 2644.75212938829736
    3   -5257.6248490754      1.24e-02  
 Alpha HF Exchange    Energy = -19.65464521542806
 Beta HF Exchange     Energy = -19.50534370652786
 DFT Correlation      Energy =  -5.17951191578013
 DFT Exchange         Energy = -155.99499318462307
 One-Electron (alpha) Energy = -4082.85358652985269
 One-Electron (beta)  Energy = -4043.39679900804185
 Total Coulomb        Energy = 2655.71884360697777
    4   -5258.2416481510      1.60e-02  
 Alpha HF Exchange    Energy = -19.78718395010252
 Beta HF Exchange     Energy = -19.59602406991333
 DFT Correlation      Energy =  -5.22268193083762
 DFT Exchange         Energy = -156.71494499119490
 One-Electron (alpha) Energy = -4097.25177478420210
 One-Electron (beta)  Energy = -4055.05952834297341
 Total Coulomb        Energy = 2675.88316209487675
    5   -5265.1245881721      4.57e-03  
 Alpha HF Exchange    Energy = -19.74793308143975
 Beta HF Exchange     Energy = -19.55658141798410
 DFT Correlation      Energy =  -5.21178185438408
 DFT Exchange         Energy = -156.39745676983978
 One-Electron (alpha) Energy = -4091.25812271530731
 One-Electron (beta)  Energy = -4048.04478512682408
 Total Coulomb        Energy = 2662.27865219002524
    6   -5265.3136209735      2.65e-03  
 Alpha HF Exchange    Energy = -19.76250287291200
 Beta HF Exchange     Energy = -19.57810254155475
 DFT Correlation      Energy =  -5.21284133410123
 DFT Exchange         Energy = -156.53033782148350
 One-Electron (alpha) Energy = -4094.13066509925784
 One-Electron (beta)  Energy = -4051.48710454442198
 Total Coulomb        Energy = 2668.54596254580292
    7   -5265.5312038657      2.26e-03  
 Alpha HF Exchange    Energy = -19.76209616401906
 Beta HF Exchange     Energy = -19.57404211523065
 DFT Correlation      Energy =  -5.21457828660140
 DFT Exchange         Energy = -156.51902310389121
 One-Electron (alpha) Energy = -4093.14631923507523
 One-Electron (beta)  Energy = -4050.37482847304500
 Total Coulomb        Energy = 2666.38146947297400
    8   -5265.5850301026      1.01e-03  
 Alpha HF Exchange    Energy = -19.75830144283687
 Beta HF Exchange     Energy = -19.56929031681194
 DFT Correlation      Energy =  -5.21265277386342
 DFT Exchange         Energy = -156.48180809117250
 One-Electron (alpha) Energy = -4092.62856234018454
 One-Electron (beta)  Energy = -4049.89050203959368
 Total Coulomb        Energy = 2665.32200753519601
    9   -5265.5947216670      6.55e-04  
 Alpha HF Exchange    Energy = -19.75880153106086
 Beta HF Exchange     Energy = -19.56923485640334
 DFT Correlation      Energy =  -5.21268870492035
 DFT Exchange         Energy = -156.48327984069039
 One-Electron (alpha) Energy = -4092.58948871736220
 One-Electron (beta)  Energy = -4049.81868487447537
 Total Coulomb        Energy = 2665.20757075908159
   10   -5265.6002199636      3.53e-04  
 Alpha HF Exchange    Energy = -19.76014276705114
 Beta HF Exchange     Energy = -19.56976131301582
 DFT Correlation      Energy =  -5.21293077619825
 DFT Exchange         Energy = -156.49013923728592
 One-Electron (alpha) Energy = -4092.65691212280171
 One-Electron (beta)  Energy = -4049.86922448241967
 Total Coulomb        Energy = 2665.33290145575120
   11   -5265.6018214408      1.67e-04  
 Alpha HF Exchange    Energy = -19.75979198137495
 Beta HF Exchange     Energy = -19.56928318984114
 DFT Correlation      Energy =  -5.21277359510520
 DFT Exchange         Energy = -156.48665301270893
 One-Electron (alpha) Energy = -4092.62424909552055
 One-Electron (beta)  Energy = -4049.82515706979302
 Total Coulomb        Energy = 2665.25123552871355
   12   -5265.6022846134      3.83e-05  
 Alpha HF Exchange    Energy = -19.76003162261604
 Beta HF Exchange     Energy = -19.56941755428574
 DFT Correlation      Energy =  -5.21283337872181
 DFT Exchange         Energy = -156.48816650778275
 One-Electron (alpha) Energy = -4092.63372553141789
 One-Electron (beta)  Energy = -4049.83102520679950
 Total Coulomb        Energy = 2665.26850245840433
   13   -5265.6023095410      9.53e-06  
 Alpha HF Exchange    Energy = -19.76004680856491
 Beta HF Exchange     Energy = -19.56941311062211
 DFT Correlation      Energy =  -5.21283312861358
 DFT Exchange         Energy = -156.48822000725681
 One-Electron (alpha) Energy = -4092.63509943084728
 One-Electron (beta)  Energy = -4049.83131153219711
 Total Coulomb        Energy = 2665.27022442633233
   14   -5265.6023117895      3.15e-06  
 Alpha HF Exchange    Energy = -19.76003522536203
 Beta HF Exchange     Energy = -19.56940002826518
 DFT Correlation      Energy =  -5.21283346183743
 DFT Exchange         Energy = -156.48813407483667
 One-Electron (alpha) Energy = -4092.63380524201830
 One-Electron (beta)  Energy = -4049.82987247789288
 Total Coulomb        Energy = 2665.26738030426714
   15   -5265.6023124037      1.72e-06  
 Alpha HF Exchange    Energy = -19.76003653606539
 Beta HF Exchange     Energy = -19.56939955634179
 DFT Correlation      Energy =  -5.21283354051820
 DFT Exchange         Energy = -156.48814267096333
 One-Electron (alpha) Energy = -4092.63401616708916
 One-Electron (beta)  Energy = -4049.82985804131658
 Total Coulomb        Energy = 2665.26758551373905
   16   -5265.6023131963      1.66e-06  
 Alpha HF Exchange    Energy = -19.76003643790175
 Beta HF Exchange     Energy = -19.56939926313917
 DFT Correlation      Energy =  -5.21283302388302
 DFT Exchange         Energy = -156.48814331514353
 One-Electron (alpha) Energy = -4092.63396145872275
 One-Electron (beta)  Energy = -4049.82965501429317
 Total Coulomb        Energy = 2665.26732679928728
   17   -5265.6023139116      1.65e-06  
 Alpha HF Exchange    Energy = -19.76003641362482
 Beta HF Exchange     Energy = -19.56939916945328
 DFT Correlation      Energy =  -5.21283180095742
 DFT Exchange         Energy = -156.48814464354314
 One-Electron (alpha) Energy = -4092.63392774756676
 One-Electron (beta)  Energy = -4049.82932603532072
 Total Coulomb        Energy = 2665.26696279037424
   18   -5265.6023152178      1.64e-06  
 Alpha HF Exchange    Energy = -19.76003482036948
 Beta HF Exchange     Energy = -19.56939888909049
 DFT Correlation      Energy =  -5.21282386777760
 DFT Exchange         Energy = -156.48814324890640
 One-Electron (alpha) Energy = -4092.63349271559537
 One-Electron (beta)  Energy = -4049.82716306673819
 Total Coulomb        Energy = 2665.26434665691386
   19   -5265.6023221493      1.61e-06  
 Alpha HF Exchange    Energy = -19.76003491301571
 Beta HF Exchange     Energy = -19.56940055433007
 DFT Correlation      Energy =  -5.21281867164202
 DFT Exchange         Energy = -156.48815422958319
 One-Electron (alpha) Energy = -4092.63344629490803
 One-Electron (beta)  Energy = -4049.82575713484994
 Total Coulomb        Energy = 2665.26289697847415
   20   -5265.6023270176      1.62e-06  
 Alpha HF Exchange    Energy = -19.76003450843979
 Beta HF Exchange     Energy = -19.56939763076844
 DFT Correlation      Energy =  -5.21281892855956
 DFT Exchange         Energy = -156.48814164115345
 One-Electron (alpha) Energy = -4092.63348050238301
 One-Electron (beta)  Energy = -4049.82544358746691
 Total Coulomb        Energy = 2665.26260208244912
   21   -5265.6023269141      1.61e-06  
 Alpha HF Exchange    Energy = -19.75999367266382
 Beta HF Exchange     Energy = -19.56978705367206
 DFT Correlation      Energy =  -5.21265764770074
 DFT Exchange         Energy = -156.48947787456635
 One-Electron (alpha) Energy = -4092.62323203755977
 One-Electron (beta)  Energy = -4049.82493658855492
 Total Coulomb        Energy = 2665.25341856851173
   22   -5265.6022785040      8.89e-05  
 Alpha HF Exchange    Energy = -19.76001358718057
 Beta HF Exchange     Energy = -19.56960558470553
 DFT Correlation      Energy =  -5.21270237895306
 DFT Exchange         Energy = -156.48888250434098
 One-Electron (alpha) Energy = -4092.62766572124519
 One-Electron (beta)  Energy = -4049.81571494802029
 Total Coulomb        Energy = 2665.24784068222789
   23   -5265.6023562400      4.73e-05  
 Alpha HF Exchange    Energy = -19.76001050033790
 Beta HF Exchange     Energy = -19.56962672102394
 DFT Correlation      Energy =  -5.21269853133105
 DFT Exchange         Energy = -156.48894650276128
 One-Electron (alpha) Energy = -4092.62699082032850
 One-Electron (beta)  Energy = -4049.81759107806738
 Total Coulomb        Energy = 2665.24912717673487
   24   -5265.6023491749      5.22e-05  
 Alpha HF Exchange    Energy = -19.76000946460763
 Beta HF Exchange     Energy = -19.56963338056215
 DFT Correlation      Energy =  -5.21268574433790
 DFT Exchange         Energy = -156.48897837233042
 One-Electron (alpha) Energy = -4092.62692708049235
 One-Electron (beta)  Energy = -4049.81324956312346
 Total Coulomb        Energy = 2665.24474407750949
   25   -5265.6023517257      5.42e-05  
 Alpha HF Exchange    Energy = -19.76000279540728
 Beta HF Exchange     Energy = -19.56970061033901
 DFT Correlation      Energy =  -5.21265716507080
 DFT Exchange         Energy = -156.48920962352770
 One-Electron (alpha) Energy = -4092.62566297478179
 One-Electron (beta)  Energy = -4049.81141970094450
 Total Coulomb        Energy = 2665.24193541514251
   26   -5265.6023296527      6.97e-05  
 Alpha HF Exchange    Energy = -19.76000707971490
 Beta HF Exchange     Energy = -19.56964244712657
 DFT Correlation      Energy =  -5.21265657248841
 DFT Exchange         Energy = -156.48902284509279
 One-Electron (alpha) Energy = -4092.62690013595284
 One-Electron (beta)  Energy = -4049.80236775417052
 Total Coulomb        Energy = 2665.23385267359436
   27   -5265.6023563587      5.72e-05  
 Alpha HF Exchange    Energy = -19.76001995821136
 Beta HF Exchange     Energy = -19.56953576089264
 DFT Correlation      Energy =  -5.21266803504519
 DFT Exchange         Energy = -156.48869247123969
 One-Electron (alpha) Energy = -4092.62952590424175
 One-Electron (beta)  Energy = -4049.79116949218815
 Total Coulomb        Energy = 2665.22483354095039
   28   -5265.6023902786      3.32e-05  
 Alpha HF Exchange    Energy = -19.76002268892791
 Beta HF Exchange     Energy = -19.56948413005719
 DFT Correlation      Energy =  -5.21265998850452
 DFT Exchange         Energy = -156.48852950037198
 One-Electron (alpha) Energy = -4092.63081904210549
 One-Electron (beta)  Energy = -4049.78055091056285
 Total Coulomb        Energy = 2665.21527642538740
   29   -5265.6024020329      2.30e-05  
 Alpha HF Exchange    Energy = -19.76002791996787
 Beta HF Exchange     Energy = -19.56946771087306
 DFT Correlation      Energy =  -5.21264824729739
 DFT Exchange         Energy = -156.48850916372305
 One-Electron (alpha) Energy = -4092.63183034891017
 One-Electron (beta)  Energy = -4049.77196213495154
 Total Coulomb        Energy = 2665.20765197805940
   30   -5265.6024057454      2.02e-05  
 Alpha HF Exchange    Energy = -19.76002908786678
 Beta HF Exchange     Energy = -19.56944437686879
 DFT Correlation      Energy =  -5.21264919968315
 DFT Exchange         Energy = -156.48843259055892
 One-Electron (alpha) Energy = -4092.63223092898488
 One-Electron (beta)  Energy = -4049.76915627858443
 Total Coulomb        Energy = 2665.20514619330697
   31   -5265.6024084670      1.55e-05  
 Alpha HF Exchange    Energy = -19.76003215127405
 Beta HF Exchange     Energy = -19.56941726867336
 DFT Correlation      Energy =  -5.21264966061799
 DFT Exchange         Energy = -156.48835214910184
 One-Electron (alpha) Energy = -4092.63291572110575
 One-Electron (beta)  Energy = -4049.76541941013556
 Total Coulomb        Energy = 2665.20198776967754
   32   -5265.6024107890      9.87e-06  
 Alpha HF Exchange    Energy = -19.76003710950793
 Beta HF Exchange     Energy = -19.56936871379105
 DFT Correlation      Energy =  -5.21265153623413
 DFT Exchange         Energy = -156.48820624851197
 One-Electron (alpha) Energy = -4092.63407449406850
 One-Electron (beta)  Energy = -4049.75924202233773
 Total Coulomb        Energy = 2665.19677995039774
   33   -5265.6024123718      1.48e-07  Convergence criterion met
 ---------------------------------------
 SCF time:   CPU 116.17s  wall 10.00s 
<S^2> =          2.005440503
 Alpha HF Exchange    Energy = -19.76003710950793
 Beta HF Exchange     Energy = -19.56936871379105
 DFT Correlation      Energy =  -5.21265153623413
 DFT Exchange         Energy = -156.48820624851197
 One-Electron (alpha) Energy = -4092.63407449406850
 One-Electron (beta)  Energy = -4049.75924202233773
 Total Coulomb        Energy = 2665.19677995039774
 Nuclear repulsion Energy = 412.62438780224613
 SCF   energy in the final basis set =    -5265.6024123718
 Total energy in the final basis set =    -5265.6024123718
 
 --------------------------------------------------------------
 
                    Orbital Energies (a.u.)
 --------------------------------------------------------------
 
 Alpha MOs
 -- Occupied --
*******-482.848 -62.557 -62.507 -56.382 -56.374 -56.374 -56.328
-56.324 -56.324 -10.250 -10.217 -10.210  -8.745  -8.694  -6.581
 -6.559  -6.559  -6.524  -6.511  -6.511  -2.672  -2.667  -2.667
 -2.650  -2.650  -2.618  -2.614  -2.614  -2.604  -2.604  -0.828
 -0.797  -0.763  -0.667  -0.603  -0.494  -0.433  -0.430  -0.417
 -0.372  -0.364  -0.361  -0.323  -0.323  -0.279  -0.276  -0.227
 -- Virtual --
 -0.001   0.089   0.113   0.122   0.135   0.152   0.171   0.194
  0.202   0.236   0.251   0.285   0.310   0.312   0.340   0.349
  0.357   0.477   0.483   0.498   0.525   0.537   0.543   0.546
  0.558   0.580   0.580   0.583   0.616   0.622   0.659   0.679
  0.724   0.786   0.810   0.815   0.843   0.852   0.875   0.905
  0.925   0.990   1.138   1.209   1.309   1.411   1.481   1.504
  1.655   1.656   1.688   1.736   1.803   1.844   1.919   1.956
  2.004   2.055   2.108   2.167   2.198   2.231   2.327   2.336
  2.410   2.459   2.484   2.584   2.592   2.678   2.757   2.763
  2.833   2.852   3.192   3.240   3.357   3.360   3.425   3.529
  4.198   4.362   4.571   4.650   4.656   4.657   4.681   4.681
  4.728   4.744   4.810   4.812   4.982   6.210   6.302  90.134
 90.358
 
 Beta MOs
 -- Occupied --
*******-482.848 -62.556 -62.507 -56.376 -56.373 -56.373 -56.328
-56.324 -56.324 -10.248 -10.211 -10.203  -8.741  -8.694  -6.571
 -6.557  -6.557  -6.524  -6.511  -6.511  -2.664  -2.661  -2.661
 -2.649  -2.649  -2.617  -2.614  -2.614  -2.604  -2.604  -0.823
 -0.754  -0.753  -0.651  -0.591  -0.491  -0.427  -0.425  -0.407
 -0.361  -0.356  -0.309  -0.309  -0.277  -0.275
 -- Virtual --
 -0.236  -0.076   0.009   0.092   0.122   0.123   0.141   0.154
  0.180   0.197   0.206   0.241   0.256   0.314   0.314   0.318
  0.342   0.349   0.358   0.481   0.484   0.511   0.541   0.574
  0.584   0.588   0.588   0.589   0.590   0.594   0.617   0.625
  0.677   0.707   0.728   0.789   0.813   0.821   0.845   0.854
  0.882   0.908   0.927   1.005   1.142   1.217   1.321   1.438
  1.487   1.519   1.655   1.675   1.707   1.743   1.812   1.849
  1.922   2.005   2.012   2.057   2.108   2.173   2.200   2.232
  2.329   2.345   2.427   2.466   2.499   2.593   2.597   2.685
  2.758   2.766   2.836   2.856   3.194   3.244   3.361   3.363
  3.431   3.531   4.212   4.382   4.574   4.668   4.671   4.671
  4.684   4.684   4.729   4.744   4.811   4.812   4.983   6.226
  6.303  90.140  90.358
 --------------------------------------------------------------
 
          Ground-State Mulliken Net Atomic Charges

     Atom                 Charge (a.u.)    Spin (a.u.)
  --------------------------------------------------------
      1 Br                   -0.006443       1.002811
      2 Br                   -0.124853       0.030399
      3 C                    -0.196045      -0.072511
      4 C                    -0.235239       1.062474
      5 C                    -0.244775       0.043163
      6 H                     0.133401       0.013202
      7 H                     0.133753       0.012456
      8 H                     0.117718      -0.046044
      9 H                     0.116970      -0.046150
     10 H                     0.152781       0.000112
     11 H                     0.152732       0.000088
  --------------------------------------------------------
  Sum of atomic charges =     0.000000
  Sum of spin   charges =     2.000000

 -----------------------------------------------------------------
                    Cartesian Multipole Moments
 -----------------------------------------------------------------
    Charge (ESU x 10^10)
                 0.0000
    Dipole Moment (Debye)
         X      -1.5634      Y      -1.5259      Z      -0.0209
       Tot       2.1847
    Quadrupole Moments (Debye-Ang)
        XX     -63.4465     XY      -3.1578     YY     -54.7061
        XZ       0.0153     YZ      -0.0610     ZZ     -56.1040
    Octopole Moments (Debye-Ang^2)
       XXX      32.7660    XXY     -22.1685    XYY       9.9236
       YYY     -85.2744    XXZ      -0.7886    XYZ       0.1502
       YYZ      -0.4468    XZZ      18.0955    YZZ     -33.2811
       ZZZ      -1.5056
    Hexadecapole Moments (Debye-Ang^3)
      XXXX   -2969.2646   XXXY     128.7776   XXYY    -500.0321
      XYYY     165.0239   YYYY    -417.7597   XXXZ       0.0264
      XXYZ      -0.9452   XYYZ       0.0413   YYYZ      -1.7266
      XXZZ    -519.7008   XYZZ      65.1688   YYZZ     -84.8069
      XZZZ      -1.1589   YZZZ      -1.2108   ZZZZ     -84.9291
 -----------------------------------------------------------------
 Calculating analytic gradient of the SCF energy
 Gradient of SCF Energy
            1           2           3           4           5           6
    1   0.0002991   0.0004523   0.0029316  -0.0036409   0.0008421   0.0019326
    2  -0.0003127   0.0001002   0.0071071   0.0023324   0.0020621  -0.0015578
    3  -0.0000045   0.0000247  -0.0000116  -0.0014024   0.0000643  -0.0001212
            7           8           9          10          11
    1   0.0018763  -0.0019789  -0.0022042  -0.0002538  -0.0002562
    2  -0.0018118  -0.0035560  -0.0045875   0.0001219   0.0001021
    3   0.0003602  -0.0073957   0.0084767  -0.0000082   0.0000179
 Max gradient component =       8.477E-03
 RMS gradient           =       2.847E-03
 Gradient time:  CPU 13.78 s  wall 1.22 s
 Geometry Optimization Parameters
   NAtoms,    NIC,     NZ,  NCons,   NDum,   NFix, NCnnct, MaxDiis
       11     120       0       1       0       0       0       0

 Cartesian Hessian Update
 Hessian Updated using BFGS Update


** CONSTRAINED OPTIMIZATION IN DELOCALIZED INTERNAL COORDINATES **
   Searching for a Minimum

   Optimization Cycle:   2

                       Coordinates (Angstroms)
     ATOM                X               Y               Z
      1  Br       -4.0603354471    1.4394515700    0.0063508356
      2  Br        2.9080044300    0.7764004814    0.0150292548
      3  C         0.0712743627    0.0609078721    0.0185788366
      4  C        -1.0094917903   -0.9927678809   -0.0045031698
      5  C         1.4670813965   -0.5836037485   -0.0003571258
      6  H        -0.0008477568    0.6743560870    0.9206144075
      7  H        -0.0061800324    0.7162904664   -0.8520688570
      8  H        -1.3310368367   -1.4392253538   -0.9547740306
      9  H        -1.3135899657   -1.4970960141    0.9250496328
     10  H         1.6326800475   -1.1718007478   -0.9023271959
     11  H         1.6423425923   -1.2042117319    0.8778104118
   Point Group: c1    Number of degrees of freedom:    27


   Energy is  -5265.602412372

              Constraints and their Current Values
                                        Value     Constraint
   Distance(Angs):        1   4             3.901725     3.900000
 Hessian Updated using BFGS Update

   Using Lagrange Multiplier Algorithm


 28 Hessian modes will be used to form the next step
  Hessian Eigenvalues:
    -0.986754    0.022765    0.040898    0.045000    0.049876    0.050757
     0.060531    0.069159    0.071597    0.073343    0.082507    0.083228
     0.087712    0.091337    0.131781    0.158052    0.160000    0.160089
     0.222929    0.281599    0.287004    0.287985    0.303931    0.308279
     0.348700    0.348756    0.491012    1.021590

 Minimum Search - Taking P-RFO Step
 Searching for Lamda that Maximizes Along the Constraint modes Only
 Value Taken    Lamda =   0.00002340
 Searching for Lamda that Minimizes Along All other modes
 Value Taken    Lamda =  -0.00048206
 Step Taken.  Stepsize is  0.039112

                             Maximum     Tolerance    Cnvgd?
         Gradient            0.009350       0.000300      NO
         Displacement        0.020883       0.001200      NO
         Energy change      0.000535       0.000001      NO


 New Cartesian Coordinates Obtained by Inverse Iteration

 Displacement from previous Coordinates is:  0.049757
 ----------------------------------------------------------------
             Standard Nuclear Orientation (Angstroms)
    I     Atom           X                Y                Z
 ----------------------------------------------------------------
    1      Br     -4.0595203767     1.4331222245     0.0063024764
    2      Br      2.9055313031     0.7701413865     0.0148960308
    3      C       0.0696199099     0.0624400185     0.0186913598
    4      C      -1.0026311845    -0.9887207069    -0.0041280118
    5      C       1.4632499910    -0.5873655317    -0.0003976680
    6      H      -0.0064226210     0.6780064678     0.9201657292
    7      H      -0.0115933365     0.7201685176    -0.8514843446
    8      H      -1.3212544939    -1.4336221741    -0.9486064531
    9      H      -1.3035962511    -1.4907764297     0.9186025979
   10      H       1.6284073481    -1.1761364671    -0.9021742498
   11      H       1.6381107116    -1.2085563054     0.8775355331
 ----------------------------------------------------------------
 Nuclear Repulsion Energy =   413.0816529851 hartrees
 There are       48 alpha and       46 beta electrons

                       Distance Matrix (Angstroms)
             Br(  1)   Br(  2)   C (  3)   C (  4)   C (  5)   H (  6)
   Br(  2)  6.996539
   C (  3)  4.350715  2.922884
   C (  4)  3.900000  4.285755  1.501726
   C (  5)  5.880766  1.980716  1.537796  2.498333
   H (  6)  4.222907  3.050816  1.094240  2.150519  2.146751
   H (  7)  4.198787  3.043473  1.093804  2.149528  2.146895  1.772159
   H (  8)  4.077766  4.863191  2.260177  1.091557  3.060836  3.111281
   H (  9)  4.120266  4.862632  2.260098  1.092736  3.052237  2.527109
   H ( 10)  6.323455  2.502011  2.193601  2.786391  1.089555  3.071065
   H ( 11)  6.340387  2.503147  2.193903  2.792700  1.089597  2.503083
             H (  7)   H (  8)   H (  9)   H ( 10)
   H (  8)  2.522590
   H (  9)  3.112998  1.868167
   H ( 10)  2.507617  2.961243  3.465670
   H ( 11)  3.070995  3.484723  2.955499  1.780031
 
 Applying Cartesian multipole field
    Component          Value
    ---------          -----
     (2,0,0)        1.00000E-11
     (0,2,0)        2.00000E-11
     (0,0,2)       -3.00000E-10
 Nucleus-field energy     =     0.0000000346 hartrees
 Requested basis set is 6-31G(d,p)
 There are 46 shells and 145 basis functions
 A cutoff of  1.0D-14 yielded    898 shell pairs
 There are      8468 function pairs
 Smallest overlap matrix eigenvalue = 7.23E-04
 Guess from superposition of atomic densities
 Warning:  Energy on first SCF cycle will be non-variational
 SAD guess density has 93.945746 electrons

 -----------------------------------------------------------------------
  General SCF calculation program by
  Eric Jon Sundstrom, Paul Horn, Yuezhi Mao, Dmitri Zuev, Alec White,
  David Stuck, Shaama M.S., Shane Yost, Joonho Lee, David Small,
  Daniel Levine, Susi Lehtola, Hugh Burton, Evgeny Epifanovsky
 -----------------------------------------------------------------------
 Exchange:     0.2000 Hartree-Fock + 0.0800 Slater + 0.7200 B88
 Correlation:  0.1900 VWN1RPA + 0.8100 LYP
 Using SG-1 standard quadrature grid
 using 12 threads for integral computing
 -------------------------------------------------------
 OpenMP Integral computing Module                
 Release: version 1.0, May 2013, Q-Chem Inc. Pittsburgh 
 -------------------------------------------------------
 -------------------------------------------------------
 OpenMP BLAS3 based DFT computing Module                
 Release: version 1.0, May 2013, Q-Chem Inc. Pittsburgh 
 -------------------------------------------------------
 A unrestricted SCF calculation will be
 performed using DIIS
 SCF converges when DIIS error is below 1.0e-06
 Alpha HF Exchange    Energy = -19.60379666501958
 Beta HF Exchange     Energy = -19.60379666501958
 DFT Correlation      Energy =  -5.19241760883041
 DFT Exchange         Energy = -155.85922986034910
 One-Electron (alpha) Energy = -4069.58676489488425
 One-Electron (beta)  Energy = -4069.58676489488425
 Total Coulomb        Energy = 2653.95962251466017
 ---------------------------------------
  Cycle       Energy         DIIS error
 ---------------------------------------
    1   -5272.3914950546      1.83e-01  
 Alpha HF Exchange    Energy = -19.82673000646495
 Beta HF Exchange     Energy = -19.62901886057415
 DFT Correlation      Energy =  -5.23464496962994
 DFT Exchange         Energy = -157.01603911281137
 One-Electron (alpha) Energy = -4099.87973863540992
 One-Electron (beta)  Energy = -4056.21409772545803
 Total Coulomb        Energy = 2679.46533967770620
    2   -5265.2532766129      1.05e-02  
 Alpha HF Exchange    Energy = -19.68601683635902
 Beta HF Exchange     Energy = -19.52808432985410
 DFT Correlation      Energy =  -5.21181529584705
 DFT Exchange         Energy = -156.11268523043606
 One-Electron (alpha) Energy = -4074.79376383593853
 One-Electron (beta)  Energy = -4040.55294020584688
 Total Coulomb        Energy = 2645.22622108127553
    3   -5257.5774316333      1.25e-02  
 Alpha HF Exchange    Energy = -19.65883727180239
 Beta HF Exchange     Energy = -19.50722089503316
 DFT Correlation      Energy =  -5.18304317601007
 DFT Exchange         Energy = -156.02318625094949
 One-Electron (alpha) Energy = -4084.96674419003148
 One-Electron (beta)  Energy = -4043.89471576495225
 Total Coulomb        Energy = 2657.21285092152084
    4   -5258.9392436075      1.61e-02  
 Alpha HF Exchange    Energy = -19.78594176693956
 Beta HF Exchange     Energy = -19.59527054429753
 DFT Correlation      Energy =  -5.22222873276771
 DFT Exchange         Energy = -156.70392570720236
 One-Electron (alpha) Energy = -4097.38634534757512
 One-Electron (beta)  Energy = -4055.00827766007933
 Total Coulomb        Energy = 2675.51272824656144
    5   -5265.1076084925      4.69e-03  
 Alpha HF Exchange    Energy = -19.75124772317186
 Beta HF Exchange     Energy = -19.55933594678419
 DFT Correlation      Energy =  -5.21273280945293
 DFT Exchange         Energy = -156.42058865724675
 One-Electron (alpha) Energy = -4092.13592451766681
 One-Electron (beta)  Energy = -4048.87489775900121
 Total Coulomb        Energy = 2663.55586659796791
    6   -5265.3172077956      2.58e-03  
 Alpha HF Exchange    Energy = -19.76451965685482
 Beta HF Exchange     Energy = -19.58085047695524
 DFT Correlation      Energy =  -5.21416234891476
 DFT Exchange         Energy = -156.55055018686963
 One-Electron (alpha) Energy = -4094.91261204959528
 One-Electron (beta)  Energy = -4052.19757208893407
 Total Coulomb        Energy = 2669.61734724391090
    7   -5265.5212665445      2.38e-03  
 Alpha HF Exchange    Energy = -19.76189335134958
 Beta HF Exchange     Energy = -19.57375859115786
 DFT Correlation      Energy =  -5.21514699693186
 DFT Exchange         Energy = -156.51788596839111
 One-Electron (alpha) Energy = -4093.54597049102449
 One-Electron (beta)  Energy = -4050.72663260340778
 Total Coulomb        Energy = 2666.67860810790125
    8   -5265.5810268746      1.10e-03  
 Alpha HF Exchange    Energy = -19.75876853437671
 Beta HF Exchange     Energy = -19.56967167054433
 DFT Correlation      Energy =  -5.21325856726783
 DFT Exchange         Energy = -156.48522387027978
 One-Electron (alpha) Energy = -4093.10989655139065
 One-Electron (beta)  Energy = -4050.32332101478323
 Total Coulomb        Energy = 2665.78543348058838
    9   -5265.5930537083      7.19e-04  
 Alpha HF Exchange    Energy = -19.75985160716515
 Beta HF Exchange     Energy = -19.57006739706193
 DFT Correlation      Energy =  -5.21343347215510
 DFT Exchange         Energy = -156.49045219593290
 One-Electron (alpha) Energy = -4093.11422666709268
 One-Electron (beta)  Energy = -4050.29779985978939
 Total Coulomb        Energy = 2665.76432443598014
   10   -5265.5998537435      3.83e-04  
 Alpha HF Exchange    Energy = -19.76097235720614
 Beta HF Exchange     Energy = -19.57037236278720
 DFT Correlation      Energy =  -5.21356202982964
 DFT Exchange         Energy = -156.49529047762098
 One-Electron (alpha) Energy = -4093.15046247649479
 One-Electron (beta)  Energy = -4050.32628346215779
 Total Coulomb        Energy = 2665.83348060926301
   11   -5265.6018095371      1.71e-04  
 Alpha HF Exchange    Energy = -19.76058882766983
 Beta HF Exchange     Energy = -19.56990770927214
 DFT Correlation      Energy =  -5.21338788131493
 DFT Exchange         Energy = -156.49168412369636
 One-Electron (alpha) Energy = -4093.10648722156293
 One-Electron (beta)  Energy = -4050.27742081703082
 Total Coulomb        Energy = 2665.73552124975549
   12   -5265.6023023110      3.77e-05  
 Alpha HF Exchange    Energy = -19.76088414241296
 Beta HF Exchange     Energy = -19.57010512932150
 DFT Correlation      Energy =  -5.21346490031340
 DFT Exchange         Energy = -156.49365466222017
 One-Electron (alpha) Energy = -4093.12232551262741
 One-Electron (beta)  Energy = -4050.29095528631160
 Total Coulomb        Energy = 2665.76741223922181
   13   -5265.6023243742      1.10e-05  
 Alpha HF Exchange    Energy = -19.76090363211392
 Beta HF Exchange     Energy = -19.57010787438023
 DFT Correlation      Energy =  -5.21346671590852
 DFT Exchange         Energy = -156.49374373447728
 One-Electron (alpha) Energy = -4093.12462393463511
 One-Electron (beta)  Energy = -4050.29281101071683
 Total Coulomb        Energy = 2665.77167751115758
   14   -5265.6023263713      2.75e-06  
 Alpha HF Exchange    Energy = -19.76088756904128
 Beta HF Exchange     Energy = -19.57009236991520
 DFT Correlation      Energy =  -5.21346603900801
 DFT Exchange         Energy = -156.49362657620628
 One-Electron (alpha) Energy = -4093.12276767035792
 One-Electron (beta)  Energy = -4050.29116640017082
 Total Coulomb        Energy = 2665.76802713805682
   15   -5265.6023264669      5.86e-07  Convergence criterion met
 ---------------------------------------
 SCF time:   CPU 53.43s  wall 4.00s 
<S^2> =          2.005415858
 Alpha HF Exchange    Energy = -19.76088756904128
 Beta HF Exchange     Energy = -19.57009236991520
 DFT Correlation      Energy =  -5.21346603900801
 DFT Exchange         Energy = -156.49362657620628
 One-Electron (alpha) Energy = -4093.12276767035792
 One-Electron (beta)  Energy = -4050.29116640017082
 Total Coulomb        Energy = 2665.76802713805682
 Nuclear repulsion Energy = 413.08165301975396
 SCF   energy in the final basis set =    -5265.6023264669
 Total energy in the final basis set =    -5265.6023264669
 
 --------------------------------------------------------------
 
                    Orbital Energies (a.u.)
 --------------------------------------------------------------
 
 Alpha MOs
 -- Occupied --
*******-482.846 -62.559 -62.504 -56.384 -56.376 -56.376 -56.326
-56.322 -56.322 -10.247 -10.210 -10.206  -8.746  -8.691  -6.583
 -6.561  -6.561  -6.522  -6.509  -6.509  -2.674  -2.669  -2.669
 -2.652  -2.652  -2.615  -2.611  -2.611  -2.601  -2.601  -0.825
 -0.799  -0.761  -0.664  -0.599  -0.491  -0.430  -0.427  -0.415
 -0.374  -0.360  -0.358  -0.325  -0.325  -0.276  -0.274  -0.220
 -- Virtual --
  0.002   0.092   0.118   0.124   0.138   0.156   0.171   0.197
  0.207   0.241   0.255   0.285   0.306   0.311   0.342   0.350
  0.359   0.480   0.485   0.501   0.528   0.538   0.542   0.546
  0.558   0.573   0.578   0.591   0.618   0.627   0.668   0.683
  0.727   0.789   0.814   0.820   0.845   0.857   0.883   0.907
  0.928   0.996   1.144   1.215   1.311   1.416   1.485   1.510
  1.656   1.662   1.687   1.739   1.810   1.851   1.930   1.967
  2.011   2.057   2.110   2.171   2.202   2.236   2.333   2.340
  2.423   2.463   2.494   2.595   2.595   2.688   2.762   2.772
  2.839   2.862   3.196   3.252   3.364   3.367   3.441   3.533
  4.205   4.368   4.575   4.647   4.654   4.654   4.680   4.681
  4.731   4.746   4.813   4.814   4.985   6.208   6.305  90.132
 90.360
 
 Beta MOs
 -- Occupied --
*******-482.846 -62.558 -62.504 -56.378 -56.375 -56.375 -56.325
-56.322 -56.322 -10.246 -10.207 -10.196  -8.743  -8.691  -6.572
 -6.559  -6.559  -6.521  -6.509  -6.509  -2.666  -2.662  -2.662
 -2.651  -2.651  -2.615  -2.611  -2.611  -2.601  -2.601  -0.820
 -0.755  -0.751  -0.648  -0.587  -0.488  -0.424  -0.422  -0.405
 -0.357  -0.354  -0.311  -0.310  -0.274  -0.273
 -- Virtual --
 -0.238  -0.070   0.013   0.095   0.126   0.126   0.145   0.157
  0.180   0.200   0.211   0.245   0.261   0.313   0.314   0.318
  0.344   0.351   0.361   0.484   0.486   0.513   0.545   0.577
  0.581   0.586   0.588   0.589   0.592   0.600   0.619   0.630
  0.681   0.713   0.731   0.792   0.816   0.825   0.847   0.860
  0.890   0.911   0.930   1.012   1.148   1.223   1.323   1.444
  1.490   1.525   1.656   1.680   1.706   1.747   1.819   1.856
  1.933   2.015   2.022   2.059   2.110   2.176   2.204   2.236
  2.334   2.349   2.440   2.471   2.509   2.595   2.609   2.696
  2.763   2.774   2.842   2.866   3.199   3.256   3.366   3.371
  3.447   3.536   4.218   4.388   4.578   4.666   4.668   4.669
  4.682   4.684   4.731   4.746   4.813   4.815   4.985   6.224
  6.305  90.139  90.360
 --------------------------------------------------------------
 
          Ground-State Mulliken Net Atomic Charges

     Atom                 Charge (a.u.)    Spin (a.u.)
  --------------------------------------------------------
      1 Br                   -0.001926       1.006217
      2 Br                   -0.130085       0.031404
      3 C                    -0.193767      -0.073031
      4 C                    -0.218716       1.058820
      5 C                    -0.244581       0.042701
      6 H                     0.129611       0.013443
      7 H                     0.130159       0.012739
      8 H                     0.113343      -0.046197
      9 H                     0.112701      -0.046221
     10 H                     0.151667       0.000076
     11 H                     0.151594       0.000049
  --------------------------------------------------------
  Sum of atomic charges =     0.000000
  Sum of spin   charges =     2.000000

 -----------------------------------------------------------------
                    Cartesian Multipole Moments
 -----------------------------------------------------------------
    Charge (ESU x 10^10)
                -0.0000
    Dipole Moment (Debye)
         X      -1.7896      Y      -1.5079      Z      -0.0217
       Tot       2.3402
    Quadrupole Moments (Debye-Ang)
        XX     -64.2571     XY      -2.0095     YY     -56.5304
        XZ       0.0405     YZ      -0.0994     ZZ     -53.3375
    Octopole Moments (Debye-Ang^2)
       XXX      42.0001    XXY     -33.9084    XYY      20.7849
       YYY     -92.3819    XXZ      -1.0210    XYZ       0.3513
       YYZ      -0.5693    XZZ       6.5485    YZZ     -28.9829
       ZZZ      -1.4503
    Hexadecapole Moments (Debye-Ang^3)
      XXXX   -3061.6470   XXXY     210.7356   XXYY    -562.6666
      XYYY     205.8629   YYYY    -441.2199   XXXZ       1.5108
      XXYZ      -1.9875   XYYZ       0.6301   YYYZ      -2.0326
      XXZZ    -471.9505   XYZZ      49.0750   YYZZ     -78.1663
      XZZZ      -1.3295   YZZZ      -1.1653   ZZZZ     -78.3960
 -----------------------------------------------------------------
 Calculating analytic gradient of the SCF energy
 Gradient of SCF Energy
            1           2           3           4           5           6
    1   0.0003896  -0.0004815   0.0011933  -0.0032850   0.0012551   0.0010665
    2  -0.0002537  -0.0003733   0.0046304   0.0017269   0.0011111  -0.0011207
    3   0.0000092   0.0000194   0.0000656  -0.0007426   0.0000289   0.0002479
            7           8           9          10          11
    1   0.0010476  -0.0004590  -0.0005852  -0.0000642  -0.0000774
    2  -0.0012197  -0.0020577  -0.0025440   0.0000569   0.0000437
    3  -0.0001551  -0.0038443   0.0043674   0.0000108  -0.0000072
 Max gradient component =       4.630E-03
 RMS gradient           =       1.659E-03
 Gradient time:  CPU 13.66 s  wall 1.21 s
 Geometry Optimization Parameters
   NAtoms,    NIC,     NZ,  NCons,   NDum,   NFix, NCnnct, MaxDiis
       11     120       0       1       0       0       0       0

 Cartesian Hessian Update
 Hessian Updated using BFGS Update


** CONSTRAINED OPTIMIZATION IN DELOCALIZED INTERNAL COORDINATES **
   Searching for a Minimum

   Optimization Cycle:   3

                       Coordinates (Angstroms)
     ATOM                X               Y               Z
      1  Br       -4.0595203767    1.4331222245    0.0063024764
      2  Br        2.9055313031    0.7701413865    0.0148960308
      3  C         0.0696199099    0.0624400185    0.0186913598
      4  C        -1.0026311845   -0.9887207069   -0.0041280118
      5  C         1.4632499910   -0.5873655317   -0.0003976680
      6  H        -0.0064226210    0.6780064678    0.9201657292
      7  H        -0.0115933365    0.7201685176   -0.8514843446
      8  H        -1.3212544939   -1.4336221741   -0.9486064531
      9  H        -1.3035962511   -1.4907764297    0.9186025979
     10  H         1.6284073481   -1.1761364671   -0.9021742498
     11  H         1.6381107116   -1.2085563054    0.8775355331
   Point Group: c1    Number of degrees of freedom:    27


   Energy is  -5265.602326467

              Constraints and their Current Values
                                        Value     Constraint
   Distance(Angs):        1   4             3.900000     3.900000
 Hessian Updated using BFGS Update

 26 Hessian modes will be used to form the next step
  Hessian Eigenvalues:
     0.022181    0.040899    0.045000    0.048199    0.050756    0.060531
     0.067304    0.071570    0.072586    0.082507    0.083263    0.087584
     0.088398    0.126579    0.157661    0.160000    0.160626    0.221697
     0.264085    0.281601    0.288829    0.303958    0.307983    0.315142
     0.348701    0.348757

 Minimum Search - Taking Simple RFO Step
 Searching for Lamda that Minimizes Along All modes
 Value Taken    Lamda =  -0.00031084
 Step Taken.  Stepsize is  0.056326

                             Maximum     Tolerance    Cnvgd?
         Gradient           0.004661      0.000300      NO
         Displacement       0.039128      0.001200      NO
         Energy change      0.000086      0.000001      NO


 New Cartesian Coordinates Obtained by Inverse Iteration

 Displacement from previous Coordinates is:  0.057830
 ----------------------------------------------------------------
             Standard Nuclear Orientation (Angstroms)
    I     Atom           X                Y                Z
 ----------------------------------------------------------------
    1      Br     -4.0594136296     1.4242127723     0.0059468452
    2      Br      2.9112706652     0.7631107751     0.0146464989
    3      C       0.0681155538     0.0629022332     0.0188427979
    4      C      -0.9932849469    -0.9859256188    -0.0036108851
    5      C       1.4587818176    -0.5905317585    -0.0004519957
    6      H      -0.0136913380     0.6828396698     0.9180367505
    7      H      -0.0187372811     0.7252104167    -0.8489444304
    8      H      -1.3124649492    -1.4268615892    -0.9411048508
    9      H      -1.2945911292    -1.4835423213     0.9109453900
   10      H       1.6219674171    -1.1800746799    -0.9021738581
   11      H       1.6319488203    -1.2126388995     0.8772707375
 ----------------------------------------------------------------
 Nuclear Repulsion Energy =   413.1123345365 hartrees
 There are       48 alpha and       46 beta electrons

                       Distance Matrix (Angstroms)
             Br(  1)   Br(  2)   C (  3)   C (  4)   C (  5)   H (  6)
   Br(  2)  7.001969
   C (  3)  4.346243  2.928112
   C (  4)  3.900000  4.278436  1.492352
   C (  5)  5.874497  1.985523  1.536653  2.483743
   H (  6)  4.213005  3.062346  1.095246  2.143319  2.152504
   H (  7)  4.188855  3.054860  1.095103  2.142970  2.152714  1.767496
   H (  8)  4.070781  4.852771  2.246530  1.084064  3.043696  3.097428
   H (  9)  4.113187  4.851812  2.245954  1.083892  3.034662  2.516737
   H ( 10)  6.315464  2.505760  2.192651  2.772121  1.089630  3.075548
   H ( 11)  6.332756  2.506865  2.193052  2.778345  1.089679  2.510504
             H (  7)   H (  8)   H (  9)   H ( 10)
   H (  8)  2.512696
   H (  9)  3.098968  1.853004
   H ( 10)  2.514927  2.945049  3.447580
   H ( 11)  3.075686  3.467269  2.939245  1.779771
 
 Applying Cartesian multipole field
    Component          Value
    ---------          -----
     (2,0,0)        1.00000E-11
     (0,2,0)        2.00000E-11
     (0,0,2)       -3.00000E-10
 Nucleus-field energy     =     0.0000000346 hartrees
 Requested basis set is 6-31G(d,p)
 There are 46 shells and 145 basis functions
 A cutoff of  1.0D-14 yielded    898 shell pairs
 There are      8468 function pairs
 Smallest overlap matrix eigenvalue = 7.23E-04
 Guess from superposition of atomic densities
 Warning:  Energy on first SCF cycle will be non-variational
 SAD guess density has 93.945746 electrons

 -----------------------------------------------------------------------
  General SCF calculation program by
  Eric Jon Sundstrom, Paul Horn, Yuezhi Mao, Dmitri Zuev, Alec White,
  David Stuck, Shaama M.S., Shane Yost, Joonho Lee, David Small,
  Daniel Levine, Susi Lehtola, Hugh Burton, Evgeny Epifanovsky
 -----------------------------------------------------------------------
 Exchange:     0.2000 Hartree-Fock + 0.0800 Slater + 0.7200 B88
 Correlation:  0.1900 VWN1RPA + 0.8100 LYP
 Using SG-1 standard quadrature grid
 using 12 threads for integral computing
 -------------------------------------------------------
 OpenMP Integral computing Module                
 Release: version 1.0, May 2013, Q-Chem Inc. Pittsburgh 
 -------------------------------------------------------
 -------------------------------------------------------
 OpenMP BLAS3 based DFT computing Module                
 Release: version 1.0, May 2013, Q-Chem Inc. Pittsburgh 
 -------------------------------------------------------
 A unrestricted SCF calculation will be
 performed using DIIS
 SCF converges when DIIS error is below 1.0e-06
 Alpha HF Exchange    Energy = -19.60538244208440
 Beta HF Exchange     Energy = -19.60538244208440
 DFT Correlation      Energy =  -5.19275474094624
 DFT Exchange         Energy = -155.86251591608584
 One-Electron (alpha) Energy = -4069.60686776724742
 One-Electron (beta)  Energy = -4069.60686776724742
 Total Coulomb        Energy = 2653.96407959122917
 ---------------------------------------
  Cycle       Energy         DIIS error
 ---------------------------------------
    1   -5272.4033569134      1.83e-01  
 Alpha HF Exchange    Energy = -19.82788959259358
 Beta HF Exchange     Energy = -19.62992553827790
 DFT Correlation      Energy =  -5.23515302531550
 DFT Exchange         Energy = -157.02380749787329
 One-Electron (alpha) Energy = -4099.94331907596006
 One-Electron (beta)  Energy = -4056.22877529677271
 Total Coulomb        Energy = 2679.52330440136211
    2   -5265.2532310543      1.05e-02  
 Alpha HF Exchange    Energy = -19.68686150503755
 Beta HF Exchange     Energy = -19.52800305846841
 DFT Correlation      Energy =  -5.21223207193126
 DFT Exchange         Energy = -156.11582169087603
 One-Electron (alpha) Energy = -4074.81211071258258
 One-Electron (beta)  Energy = -4040.54329270923608
 Total Coulomb        Energy = 2645.23399509782348
    3   -5257.5519920792      1.26e-02  
 Alpha HF Exchange    Energy = -19.66290807074057
 Beta HF Exchange     Energy = -19.50895137751829
 DFT Correlation      Energy =  -5.18505400623170
 DFT Exchange         Energy = -156.04439943844835
 One-Electron (alpha) Energy = -4085.85566434563316
 One-Electron (beta)  Energy = -4044.04940782049471
 Total Coulomb        Energy = 2657.85888253478015
    4   -5259.3351679532      1.60e-02  
 Alpha HF Exchange    Energy = -19.78593066679515
 Beta HF Exchange     Energy = -19.59531817113954
 DFT Correlation      Energy =  -5.22228321216551
 DFT Exchange         Energy = -156.70254596711459
 One-Electron (alpha) Energy = -4097.28446213342886
 One-Electron (beta)  Energy = -4054.79395124200437
 Total Coulomb        Energy = 2675.16788866581874
    5   -5265.1042681557      4.72e-03  
 Alpha HF Exchange    Energy = -19.75293688214039
 Beta HF Exchange     Energy = -19.56069234577274
 DFT Correlation      Energy =  -5.21329385343116
 DFT Exchange         Energy = -156.43204357563150
 One-Electron (alpha) Energy = -4092.33215381583250
 One-Electron (beta)  Energy = -4049.02737890302797
 Total Coulomb        Energy = 2663.88459576515879
    6   -5265.3215690396      2.52e-03  
 Alpha HF Exchange    Energy = -19.76556124144938
 Beta HF Exchange     Energy = -19.58242223445159
 DFT Correlation      Energy =  -5.21494655493271
 DFT Exchange         Energy = -156.56209738798077
 One-Electron (alpha) Energy = -4095.09338065515976
 One-Electron (beta)  Energy = -4052.29076654970913
 Total Coulomb        Energy = 2669.88246492561757
    7   -5265.5143751270      2.45e-03  
 Alpha HF Exchange    Energy = -19.76215428119342
 Beta HF Exchange     Energy = -19.57404933094760
 DFT Correlation      Energy =  -5.21555584528522
 DFT Exchange         Energy = -156.52037160552510
 One-Electron (alpha) Energy = -4093.54105324694683
 One-Electron (beta)  Energy = -4050.67370738867703
 Total Coulomb        Energy = 2666.59598129549067
    8   -5265.5785758320      1.15e-03  
 Alpha HF Exchange    Energy = -19.75944646688482
 Beta HF Exchange     Energy = -19.57042503680540
 DFT Correlation      Energy =  -5.21371208611025
 DFT Exchange         Energy = -156.49074110268975
 One-Electron (alpha) Energy = -4093.16408720765730
 One-Electron (beta)  Energy = -4050.33051906774881
 Total Coulomb        Energy = 2665.82439782690244
    9   -5265.5921985699      7.55e-04  
 Alpha HF Exchange    Energy = -19.76083213392988
 Beta HF Exchange     Energy = -19.57097806951660
 DFT Correlation      Energy =  -5.21395431842583
 DFT Exchange         Energy = -156.49760359647397
 One-Electron (alpha) Energy = -4093.18305138145524
 One-Electron (beta)  Energy = -4050.31983739035559
 Total Coulomb        Energy = 2665.83404496566891
   10   -5265.5998773534      3.91e-04  
 Alpha HF Exchange    Energy = -19.76177543332030
 Beta HF Exchange     Energy = -19.57110242654295
 DFT Correlation      Energy =  -5.21400422277508
 DFT Exchange         Energy = -156.50089719691266
 One-Electron (alpha) Energy = -4093.19880665505207
[...]
   H (  9)  4.068922  4.873250  2.251905  1.084870  3.065996  2.512485
   H ( 10)  6.313198  2.503544  2.192345  2.775311  1.089519  3.076143
   H ( 11)  6.331765  2.504684  2.192774  2.781215  1.089563  2.512067
             H (  7)   H (  8)   H (  9)   H ( 10)
   H (  8)  2.507267
   H (  9)  3.095880  1.856618
   H ( 10)  2.515909  2.986552  3.483933
   H ( 11)  3.076224  3.503068  2.980013  1.780094
 
 Applying Cartesian multipole field
    Component          Value
    ---------          -----
     (2,0,0)        1.00000E-11
     (0,2,0)        2.00000E-11
     (0,0,2)       -3.00000E-10
 Nucleus-field energy     =     0.0000000345 hartrees
 Requested basis set is 6-31G(d,p)
 There are 46 shells and 145 basis functions
 A cutoff of  1.0D-14 yielded    899 shell pairs
 There are      8474 function pairs
 Smallest overlap matrix eigenvalue = 7.23E-04
 Guess from superposition of atomic densities
 Warning:  Energy on first SCF cycle will be non-variational
 SAD guess density has 93.945746 electrons

 -----------------------------------------------------------------------
  General SCF calculation program by
  Eric Jon Sundstrom, Paul Horn, Yuezhi Mao, Dmitri Zuev, Alec White,
  David Stuck, Shaama M.S., Shane Yost, Joonho Lee, David Small,
  Daniel Levine, Susi Lehtola, Hugh Burton, Evgeny Epifanovsky
 -----------------------------------------------------------------------
 Exchange:     0.2000 Hartree-Fock + 0.0800 Slater + 0.7200 B88
 Correlation:  0.1900 VWN1RPA + 0.8100 LYP
 Using SG-1 standard quadrature grid
 using 12 threads for integral computing
 -------------------------------------------------------
 OpenMP Integral computing Module                
 Release: version 1.0, May 2013, Q-Chem Inc. Pittsburgh 
 -------------------------------------------------------
 -------------------------------------------------------
 OpenMP BLAS3 based DFT computing Module                
 Release: version 1.0, May 2013, Q-Chem Inc. Pittsburgh 
 -------------------------------------------------------
 A unrestricted SCF calculation will be
 performed using DIIS
 SCF converges when DIIS error is below 1.0e-06
 Alpha HF Exchange    Energy = -19.60529530019987
 Beta HF Exchange     Energy = -19.60529530019987
 DFT Correlation      Energy =  -5.19274089297214
 DFT Exchange         Energy = -155.86241018155366
 One-Electron (alpha) Energy = -4069.91314131217814
 One-Electron (beta)  Energy = -4069.91314131217814
 Total Coulomb        Energy = 2654.26983829489473
 ---------------------------------------
  Cycle       Energy         DIIS error
 ---------------------------------------
    1   -5272.4041163391      1.83e-01  
 Alpha HF Exchange    Energy = -19.82776782977280
 Beta HF Exchange     Energy = -19.62994097241727
 DFT Correlation      Energy =  -5.23516777034330
 DFT Exchange         Energy = -157.02335889420610
 One-Electron (alpha) Energy = -4100.23146159531552
 One-Electron (beta)  Energy = -4056.55347176928899
 Total Coulomb        Energy = 2679.82876775670684
    2   -5265.2543314093      1.05e-02  
 Alpha HF Exchange    Energy = -19.68651785613725
 Beta HF Exchange     Energy = -19.52885538383724
 DFT Correlation      Energy =  -5.21225991940134
 DFT Exchange         Energy = -156.11741329971460
 One-Electron (alpha) Energy = -4075.12136797182893
 One-Electron (beta)  Energy = -4040.86898716324777
 Total Coulomb        Energy = 2645.53568185845279
    3   -5257.5816500704      1.25e-02  
 Alpha HF Exchange    Energy = -19.66281809103578
 Beta HF Exchange     Energy = -19.51009219444416
 DFT Correlation      Energy =  -5.18514683172525
 DFT Exchange         Energy = -156.04614766484687
 One-Electron (alpha) Energy = -4086.35624468127935
 One-Electron (beta)  Energy = -4044.58177035219614
 Total Coulomb        Energy = 2658.45308985385009
    4   -5259.4710602964      1.59e-02  
 Alpha HF Exchange    Energy = -19.78559916770163
 Beta HF Exchange     Energy = -19.59535166325044
 DFT Correlation      Energy =  -5.22225238791758
 DFT Exchange         Energy = -156.70118742733098
 One-Electron (alpha) Energy = -4097.54007327846921
 One-Electron (beta)  Energy = -4055.03664484726278
 Total Coulomb        Energy = 2675.35273141626703
    5   -5265.1103076903      4.67e-03  
 Alpha HF Exchange    Energy = -19.75252872025774
 Beta HF Exchange     Energy = -19.56033110509580
 DFT Correlation      Energy =  -5.21312302164740
 DFT Exchange         Energy = -156.42897703202908
 One-Electron (alpha) Energy = -4092.63970640643220
 One-Electron (beta)  Energy = -4049.37233602456399
 Total Coulomb        Energy = 2664.22291329586915
    6   -5265.3260193488      2.48e-03  
 Alpha HF Exchange    Energy = -19.76558306176459
 Beta HF Exchange     Energy = -19.58278124795200
 DFT Correlation      Energy =  -5.21520741832401
 DFT Exchange         Energy = -156.56453316839037
 One-Electron (alpha) Energy = -4095.41564316068434
 One-Electron (beta)  Energy = -4052.62182796341040
 Total Coulomb        Energy = 2670.23346538121177
    7   -5265.5140409740      2.44e-03  
 Alpha HF Exchange    Energy = -19.76197326662253
 Beta HF Exchange     Energy = -19.57392830680228
 DFT Correlation      Energy =  -5.21562161402962
 DFT Exchange         Energy = -156.51927963076253
 One-Electron (alpha) Energy = -4093.79462952114272
 One-Electron (beta)  Energy = -4050.96046146533126
 Total Coulomb        Energy = 2666.82964343392496
    8   -5265.5781807054      1.16e-03  
 Alpha HF Exchange    Energy = -19.75932387202060
 Beta HF Exchange     Energy = -19.57053109765010
 DFT Correlation      Energy =  -5.21376467468346
 DFT Exchange         Energy = -156.49069231794738
 One-Electron (alpha) Energy = -4093.46040197341790
 One-Electron (beta)  Energy = -4050.65712495093476
 Total Coulomb        Energy = 2666.14181447660667
    9   -5265.5919547447      7.67e-04  
 Alpha HF Exchange    Energy = -19.76073526198416
 Beta HF Exchange     Energy = -19.57104267517632
 DFT Correlation      Energy =  -5.21400824948945
 DFT Exchange         Energy = -156.49746231548130
 One-Electron (alpha) Energy = -4093.47453352604180
 One-Electron (beta)  Energy = -4050.64049148671029
 Total Coulomb        Energy = 2666.14027426718349
   10   -5265.5999295824      3.94e-04  
 Alpha HF Exchange    Energy = -19.76164256081527
 Beta HF Exchange     Energy = -19.57112896791241
 DFT Correlation      Energy =  -5.21402603965583
 DFT Exchange         Energy = -156.50042669179714
 One-Electron (alpha) Energy = -4093.48957651049386
 One-Electron (beta)  Energy = -4050.65055685168727
 Total Coulomb        Energy = 2666.16726766029706
   11   -5265.6020202967      1.74e-04  
 Alpha HF Exchange    Energy = -19.76128450069319
 Beta HF Exchange     Energy = -19.57068709159364
 DFT Correlation      Energy =  -5.21386660659572
 DFT Exchange         Energy = -156.49706648648680
 One-Electron (alpha) Energy = -4093.44393653712905
 One-Electron (beta)  Energy = -4050.59987779110816
 Total Coulomb        Energy = 2666.06612232804719
   12   -5265.6025270202      3.75e-05  
 Alpha HF Exchange    Energy = -19.76159537495593
 Beta HF Exchange     Energy = -19.57089734289870
 DFT Correlation      Energy =  -5.21394866714108
 DFT Exchange         Energy = -156.49915115062873
 One-Electron (alpha) Energy = -4093.46204643896590
 One-Electron (beta)  Energy = -4050.61586601574618
 Total Coulomb        Energy = 2666.10288716164951
   13   -5265.6025481634      1.18e-05  
 Alpha HF Exchange    Energy = -19.76160896975429
 Beta HF Exchange     Energy = -19.57089459652315
 DFT Correlation      Energy =  -5.21394920552945
 DFT Exchange         Energy = -156.49919780590622
 One-Electron (alpha) Energy = -4093.46416387643103
 One-Electron (beta)  Energy = -4050.61769019467829
 Total Coulomb        Energy = 2666.10688453347802
   14   -5265.6025504500      2.78e-06  
 Alpha HF Exchange    Energy = -19.76159022316770
 Beta HF Exchange     Energy = -19.57087694448122
 DFT Correlation      Energy =  -5.21394775715196
 DFT Exchange         Energy = -156.49906164911107
 One-Electron (alpha) Energy = -4093.46197807250792
 One-Electron (beta)  Energy = -4050.61583142773270
 Total Coulomb        Energy = 2666.10266586390662
   15   -5265.6025505449      6.67e-07  Convergence criterion met
 ---------------------------------------
 SCF time:   CPU 52.70s  wall 4.00s 
<S^2> =          2.005416155
 Alpha HF Exchange    Energy = -19.76159022316770
 Beta HF Exchange     Energy = -19.57087694448122
 DFT Correlation      Energy =  -5.21394775715196
 DFT Exchange         Energy = -156.49906164911107
 One-Electron (alpha) Energy = -4093.46197807250792
 One-Electron (beta)  Energy = -4050.61583142773270
 Total Coulomb        Energy = 2666.10266586390662
 Nuclear repulsion Energy = 413.41806966531993
 SCF   energy in the final basis set =    -5265.6025505449
 Total energy in the final basis set =    -5265.6025505449
 
 --------------------------------------------------------------
 
                    Orbital Energies (a.u.)
 --------------------------------------------------------------
 
 Alpha MOs
 -- Occupied --
*******-482.845 -62.560 -62.504 -56.384 -56.377 -56.377 -56.325
-56.321 -56.321 -10.247 -10.208 -10.206  -8.747  -8.691  -6.584
 -6.562  -6.562  -6.521  -6.508  -6.508  -2.675  -2.669  -2.669
 -2.653  -2.653  -2.615  -2.611  -2.611  -2.601  -2.601  -0.825
 -0.800  -0.762  -0.665  -0.600  -0.491  -0.431  -0.428  -0.416
 -0.374  -0.359  -0.358  -0.326  -0.325  -0.276  -0.273  -0.218
 -- Virtual --
  0.002   0.093   0.118   0.123   0.138   0.155   0.171   0.197
  0.211   0.244   0.256   0.285   0.306   0.311   0.342   0.350
  0.360   0.480   0.485   0.501   0.528   0.538   0.541   0.546
  0.559   0.573   0.578   0.593   0.619   0.629   0.669   0.683
  0.733   0.788   0.816   0.817   0.844   0.857   0.886   0.907
  0.928   0.995   1.152   1.215   1.311   1.425   1.485   1.494
  1.655   1.667   1.687   1.737   1.814   1.858   1.931   1.978
  2.010   2.058   2.110   2.173   2.203   2.237   2.338   2.339
  2.430   2.468   2.515   2.589   2.595   2.688   2.765   2.773
  2.845   2.878   3.198   3.260   3.371   3.373   3.446   3.542
  4.209   4.369   4.577   4.646   4.653   4.654   4.679   4.681
  4.731   4.747   4.813   4.815   4.985   6.208   6.305  90.132
 90.360
 
 Beta MOs
 -- Occupied --
*******-482.845 -62.558 -62.504 -56.379 -56.376 -56.376 -56.325
-56.321 -56.321 -10.245 -10.207 -10.194  -8.743  -8.691  -6.573
 -6.560  -6.560  -6.521  -6.508  -6.508  -2.667  -2.663  -2.663
 -2.652  -2.652  -2.614  -2.611  -2.610  -2.601  -2.601  -0.820
 -0.756  -0.751  -0.649  -0.587  -0.488  -0.425  -0.423  -0.406
 -0.356  -0.354  -0.311  -0.311  -0.274  -0.273
 -- Virtual --
 -0.238  -0.070   0.013   0.096   0.125   0.125   0.147   0.157
  0.180   0.200   0.215   0.247   0.263   0.312   0.313   0.317
  0.344   0.351   0.361   0.484   0.486   0.514   0.545   0.577
  0.583   0.585   0.587   0.588   0.591   0.602   0.620   0.633
  0.680   0.714   0.737   0.792   0.819   0.822   0.846   0.859
  0.893   0.911   0.931   1.011   1.155   1.224   1.323   1.462
  1.490   1.501   1.655   1.685   1.706   1.745   1.823   1.863
  1.934   2.010   2.035   2.059   2.110   2.179   2.205   2.238
  2.340   2.347   2.447   2.477   2.530   2.596   2.602   2.695
  2.766   2.775   2.848   2.881   3.200   3.263   3.372   3.378
  3.451   3.546   4.222   4.389   4.580   4.665   4.668   4.668
  4.682   4.683   4.731   4.747   4.814   4.815   4.986   6.224
  6.305  90.138  90.361
 --------------------------------------------------------------
 
          Ground-State Mulliken Net Atomic Charges

     Atom                 Charge (a.u.)    Spin (a.u.)
  --------------------------------------------------------
      1 Br                   -0.001846       1.005978
      2 Br                   -0.131983       0.031770
      3 C                    -0.193455      -0.073831
      4 C                    -0.221018       1.059174
      5 C                    -0.243650       0.042735
      6 H                     0.129223       0.014359
      7 H                     0.129624       0.013537
      8 H                     0.114599      -0.046991
      9 H                     0.114225      -0.046951
     10 H                     0.152182       0.000130
     11 H                     0.152099       0.000091
  --------------------------------------------------------
  Sum of atomic charges =     0.000000
  Sum of spin   charges =     2.000000

 -----------------------------------------------------------------
                    Cartesian Multipole Moments
 -----------------------------------------------------------------
    Charge (ESU x 10^10)
                 0.0000
    Dipole Moment (Debye)
         X      -1.8770      Y      -1.4807      Z      -0.0191
       Tot       2.3909
    Quadrupole Moments (Debye-Ang)
        XX     -64.1335     XY      -2.0564     YY     -56.6206
        XZ       0.0092     YZ      -0.0865     ZZ     -53.3422
    Octopole Moments (Debye-Ang^2)
       XXX      40.0238    XXY     -33.6453    XYY      20.3964
       YYY     -90.7406    XXZ      -0.7540    XYZ       0.2458
       YYZ      -0.4565    XZZ       6.1138    YZZ     -28.5693
       ZZZ      -1.3355
    Hexadecapole Moments (Debye-Ang^3)
      XXXX   -3057.5828   XXXY     204.6214   XXYY    -560.5906
      XYYY     199.7690   YYYY    -434.6387   XXXZ      -0.4575
      XXYZ      -1.2845   XYYZ       0.1327   YYYZ      -1.6757
      XXZZ    -471.3040   XYZZ      47.3642   YYZZ     -77.2549
      XZZZ      -1.8764   YZZZ      -0.9574   ZZZZ     -78.2358
 -----------------------------------------------------------------
 Calculating analytic gradient of the SCF energy
 Gradient of SCF Energy
            1           2           3           4           5           6
    1   0.0004333  -0.0000368  -0.0001467  -0.0004079   0.0000641  -0.0000382
    2  -0.0003143   0.0000152   0.0002796   0.0000861   0.0000279  -0.0000910
    3  -0.0000042   0.0000261   0.0000263  -0.0000202   0.0000045   0.0000706
            7           8           9          10          11
    1  -0.0000245   0.0000640   0.0000769   0.0000122   0.0000035
    2  -0.0000798   0.0000433   0.0000151   0.0000186  -0.0000007
    3  -0.0000641  -0.0000275  -0.0000088   0.0000025  -0.0000052
 Max gradient component =       4.333E-04
 RMS gradient           =       1.357E-04
 Gradient time:  CPU 13.70 s  wall 1.21 s
 Geometry Optimization Parameters
   NAtoms,    NIC,     NZ,  NCons,   NDum,   NFix, NCnnct, MaxDiis
       11     120       0       1       0       0       0       0

 Cartesian Hessian Update
 Hessian Updated using BFGS Update


** CONSTRAINED OPTIMIZATION IN DELOCALIZED INTERNAL COORDINATES **
   Searching for a Minimum

   Optimization Cycle:  12

                       Coordinates (Angstroms)
     ATOM                X               Y               Z
      1  Br       -4.0516508654    1.4107412084    0.0036692226
      2  Br        2.9107575875    0.7711941620    0.0149366431
      3  C         0.0737172810    0.0550359840    0.0191014584
      4  C        -0.9844430853   -0.9980324655   -0.0033547318
      5  C         1.4681766894   -0.5899014060   -0.0008418769
      6  H        -0.0124619528    0.6758473408    0.9174929931
      7  H        -0.0183366321    0.7183840280   -0.8475192794
      8  H        -1.3425184700   -1.4086073736   -0.9415353957
      9  H        -1.3234435004   -1.4674899267    0.9140501219
     10  H         1.6348187495   -1.1773418819   -0.9031694627
     11  H         1.6452851985   -1.2111286696    0.8765733074
   Point Group: c1    Number of degrees of freedom:    27


   Energy is  -5265.602550545

              Constraints and their Current Values
                                        Value     Constraint
   Distance(Angs):        1   4             3.900000     3.900000
 Hessian Updated using BFGS Update

 26 Hessian modes will be used to form the next step
  Hessian Eigenvalues:
     0.002530    0.003329    0.040886    0.044990    0.050617    0.056111
     0.060532    0.071410    0.071838    0.082518    0.084951    0.087241
     0.088156    0.128903    0.159999    0.161352    0.204934    0.226312
     0.264898    0.281614    0.293799    0.303559    0.308120    0.348604
     0.348742    0.376399

 Minimum Search - Taking Simple RFO Step
 Searching for Lamda that Minimizes Along All modes
 Value Taken    Lamda =  -0.00000172
 Step Taken.  Stepsize is  0.023123

                             Maximum     Tolerance    Cnvgd?
         Gradient           0.000096      0.000300     YES
         Displacement       0.017937      0.001200      NO
         Energy change     -0.000001      0.000001     YES


                       Distance Matrix (Angstroms)
             Br(  1)   Br(  2)   C (  3)   C (  4)   C (  5)   H (  6)
   Br(  2)  6.991729
   C (  3)  4.342446  2.926038
   C (  4)  3.900000  4.278211  1.493037
   C (  5)  5.871208  1.983399  1.536509  2.486347
   H (  6)  4.205971  3.060868  1.095418  2.143497  2.153544
   H (  7)  4.179893  3.053885  1.095233  2.142909  2.153647  1.765535
   H (  8)  4.022628  4.874088  2.251843  1.084884  3.074929  3.093540
   H (  9)  4.068922  4.873250  2.251905  1.084870  3.065996  2.512485
   H ( 10)  6.313198  2.503544  2.192345  2.775311  1.089519  3.076143
   H ( 11)  6.331765  2.504684  2.192774  2.781215  1.089563  2.512067
             H (  7)   H (  8)   H (  9)   H ( 10)
   H (  8)  2.507267
   H (  9)  3.095880  1.856618
   H ( 10)  2.515909  2.986552  3.483933
   H ( 11)  3.076224  3.503068  2.980013  1.780094
 
 Final energy is   -5265.60255054493     


 ******************************
 **  OPTIMIZATION CONVERGED  **
 ******************************

                       Coordinates (Angstroms)
     ATOM                X               Y               Z
      1  Br       -4.0516508654    1.4107412084    0.0036692226
      2  Br        2.9107575875    0.7711941620    0.0149366431
      3  C         0.0737172810    0.0550359840    0.0191014584
      4  C        -0.9844430853   -0.9980324655   -0.0033547318
      5  C         1.4681766894   -0.5899014060   -0.0008418769
      6  H        -0.0124619528    0.6758473408    0.9174929931
      7  H        -0.0183366321    0.7183840280   -0.8475192794
      8  H        -1.3425184700   -1.4086073736   -0.9415353957
      9  H        -1.3234435004   -1.4674899267    0.9140501219
     10  H         1.6348187495   -1.1773418819   -0.9031694627
     11  H         1.6452851985   -1.2111286696    0.8765733074

Z-matrix Print:
$molecule
0 3
Br
C  1 1.983399
H  2 1.089519 1 105.387678
H  2 1.089563 1 105.464226 3 115.866367 0
C  2 1.536509 1 111.835188 3 -122.022569 0
H  5 1.095233 2 108.677038 1 57.898570 0
H  5 1.095418 2 108.658490 1 -58.676119 0
C  5 1.493037 2 110.301536 1 179.594957 0
H  8 1.084870 5 120.927908 2 85.337876 0
H  8 1.084884 5 120.921145 2 -86.521334 0
Br 8 3.900000 5 96.992167 2 -179.097745 0
$end

PES scan, value:    3.9000 energy: -5265.6025505449
------- Summary of potential scan: ------ 
    3.9000     -5265.6025505449
----------------------------------------- 
Archival summary:
1\1\hpc0242\JobtypUnspecified\ProcedureUnspecified\6-31G**\r236(3)\knomura\ThuMar1406:02:392019ThuMar1406:02:392019\0\\#,JobtypUnspecified,ProcedureUnspecified,6-31G**,\\0,3\Br\C,1,1.9834\H,2,1.08952,1,105.388\H,2,1.08956,1,105.464,3,115.866,0\C,2,1.53651,1,111.835,3,-122.023,0\H,5,1.09523,2,108.677,1,57.8986,0\H,5,1.09542,2,108.658,1,-58.6761,0\C,5,1.49304,2,110.302,1,179.595,0\H,8,1.08487,5,120.928,2,85.3379,0\H,8,1.08488,5,120.921,2,-86.5213,0\Br,8,3.9,5,96.9922,2,-179.098,0\\\@

 Total job time:  81.04s(wall), 947.21s(cpu) 
 Thu Mar 14 06:02:39 2019

        *************************************************************
        *                                                           *
        *  Thank you very much for using Q-Chem.  Have a nice day.  *
        *                                                           *
        *************************************************************


