
Running Job 1 of 1 halogens/Bromine/04/Br_1_4.xyz.data/inputs/bond_singlet_3.4.in
qchem halogens/Bromine/04/Br_1_4.xyz.data/inputs/bond_singlet_3.4.in_17295.0 /staging/scratch/2868759/qchem17295/ 1
/usr/usc/qchem/5.1.1/exe/qcprog.exe_s halogens/Bromine/04/Br_1_4.xyz.data/inputs/bond_singlet_3.4.in_17295.0 /staging/scratch/2868759/qchem17295/
Check license passed

                  Welcome to Q-Chem
     A Quantum Leap Into The Future Of Chemistry


 Q-Chem 5.1, Q-Chem, Inc., Pleasanton, CA (2018)

 Yihan Shao,  Zhengting Gan,  E. Epifanovsky,  A. T. B. Gilbert,  M. Wormit,  
 J. Kussmann,  A. W. Lange,  A. Behn,  Jia Deng,  Xintian Feng,  D. Ghosh,  
 M. Goldey,  P. R. Horn,  L. D. Jacobson,  I. Kaliman,  T. Kus,  A. Landau,  
 Jie Liu,  E. I. Proynov,  R. M. Richard,  R. P. Steele,  E. J. Sundstrom,  
 H. L. Woodcock III,  P. M. Zimmerman,  D. Zuev,  B. Albrecht,  E. Alguire,  
 S. A. Baeppler,  D. Barton,  Z. Benda,  Y. A. Bernard,  E. J. Berquist,  
 K. B. Bravaya,  H. Burton,  D. Casanova,  Chun-Min Chang,  Yunqing Chen,  
 A. Chien,  K. D. Closser,  M. P. Coons,  S. Coriani,  S. Dasgupta,  
 A. L. Dempwolff,  M. Diedenhofen,  Hainam Do,  R. G. Edgar,  Po-Tung Fang,  
 S. Faraji,  S. Fatehi,  Qingguo Feng,  K. D. Fenk,  J. Fosso-Tande,  
 Qinghui Ge,  A. Ghysels,  G. Gidofalvi,  J. Gomes,  J. Gonthier,  A. Gunina,  
 D. Hait,  M. W. D. Hanson-Heine,  P. H. P. Harbach,  A. W. Hauser,  
 J. E. Herr,  E. G. Hohenstein,  Z. C. Holden,  Kerwin Hui,  B. C. Huynh,  
 T.-C. Jagau,  Hyunjun Ji,  B. Kaduk,  K. Khistyaev,  Jaehoon Kim,  
 P. Klunzinger,  K. Koh,  D. Kosenkov,  L. Koulias,  T. Kowalczyk,  
 C. M. Krauter,  A. Kunitsa,  Ka Un Lao,  A. Laurent,  K. V. Lawler,  
 Joonho Lee,  D. Lefrancois,  S. Lehtola,  D. S. Levine,  Yi-Pei Li,  
 You-Sheng Lin,  Fenglai Liu,  E. Livshits,  A. Luenser,  P. Manohar,  
 E. Mansoor,  S. F. Manzer,  Shan-Ping Mao,  Yuezhi Mao,  N. Mardirossian,  
 A. V. Marenich,  T. Markovich,  L. A. Martinez-Martinez,  S. A. Maurer,  
 N. J. Mayhall,  S. C. McKenzie,  J.-M. Mewes,  A. F. Morrison,  
 J. W. Mullinax,  K. Nanda,  T. S. Nguyen-Beck,  R. Olivares-Amaya,  
 J. A. Parkhill,  T. M. Perrine,  F. Plasser,  P. Pokhilko,  S. Prager,  
 A. Prociuk,  E. Ramos,  D. R. Rehn,  F. Rob,  M. Schneider,  N. Sergueev,  
 S. M. Sharada,  S. Sharma,  D. W. Small,  T. Stauch,  T. Stein,  
 Yu-Chuan Su,  A. J. W. Thom,  A. Tkatchenko,  T. Tsuchimochi,  N. M. Tubman,  
 L. Vogt,  M. L. Vidal,  O. Vydrov,  M. A. Watson,  J. Wenzel,  
 M. de Wergifosse,  T. A. Wesolowski,  A. White,  J. Witte,  A. Yamada,  
 Jun Yang,  K. Yao,  S. Yeganeh,  S. R. Yost,  Zhi-Qiang You,  A. Zech,  
 Igor Ying Zhang,  Xing Zhang,  Yan Zhao,  Ying Zhu,  B. R. Brooks,  
 G. K. L. Chan,  C. J. Cramer,  M. S. Gordon,  W. J. Hehre,  A. Klamt,  
 M. W. Schmidt,  C. D. Sherrill,  D. G. Truhlar,  A. Aspuru-Guzik,  R. Baer,  
 A. T. Bell,  N. A. Besley,  Jeng-Da Chai,  A. E. DePrince, III,  
 R. A. DiStasio Jr.,  A. Dreuw,  B. D. Dunietz,  T. R. Furlani,  
 Chao-Ping Hsu,  Yousung Jung,  Jing Kong,  D. S. Lambrecht,  WanZhen Liang,  
 C. Ochsenfeld,  V. A. Rassolov,  L. V. Slipchenko,  J. E. Subotnik,  
 T. Van Voorhis,  J. M. Herbert,  A. I. Krylov,  P. M. W. Gill,  M. Head-Gordon

 Contributors to earlier versions of Q-Chem not listed above: 
 R. D. Adamson,  B. Austin,  J. Baker,  G. J. O. Beran,  K. Brandhorst,  
 S. T. Brown,  E. F. C. Byrd,  A. K. Chakraborty,  C.-L. Cheng,  
 Siu Hung Chien,  D. M. Chipman,  D. L. Crittenden,  H. Dachsel,  
 R. J. Doerksen,  A. D. Dutoi,  L. Fusti-Molnar,  W. A. Goddard III,  
 A. Golubeva-Zadorozhnaya,  S. R. Gwaltney,  G. Hawkins,  A. Heyden,  
 S. Hirata,  G. Kedziora,  F. J. Keil,  C. Kelley,  Jihan Kim,  R. A. King,  
 R. Z. Khaliullin,  P. P. Korambath,  W. Kurlancheek,  A. M. Lee,  M. S. Lee,  
 S. V. Levchenko,  Ching Yeh Lin,  D. Liotard,  R. C. Lochan,  I. Lotan,  
 P. E. Maslen,  N. Nair,  D. P. O'Neill,  D. Neuhauser,  E. Neuscamman,  
 C. M. Oana,  R. Olson,  B. Peters,  R. Peverati,  P. A. Pieniazek,  
 Y. M. Rhee,  J. Ritchie,  M. A. Rohrdanz,  E. Rosta,  N. J. Russ,  
 H. F. Schaefer III,  N. E. Schultz,  N. Shenvi,  A. C. Simmonett,  A. Sodt,  
 D. Stuck,  K. S. Thanthiriwatte,  V. Vanovschi,  Tao Wang,  A. Warshel,  
 C. F. Williams,  Q. Wu,  X. Xu,  W. Zhang

 Please cite Q-Chem as follows:
 Y. Shao et al., Mol. Phys. 113, 184-215 (2015)
 DOI: 10.1080/00268976.2014.952696

 Q-Chem 5.1.1 for Intel X86 EM64T Linux

 Parts of Q-Chem use Armadillo 8.300.2 (Tropical Shenanigans).
 http://arma.sourceforge.net/

 Q-Chem begins on Thu Mar 14 03:31:45 2019  

Host: 
0

     Scratch files written to /staging/scratch/2868759/qchem17295//
 Aug318 |scratch|qcdevops|jenkins|workspace|build_RNUM 6013   
Processing $rem in /usr/usc/qchem/5.1.1/config/preferences.
 MEM_TOTAL  2000 
Input Ideriv = 2
Curr. Ideriv = -1
Max.  Ideriv = 2

Checking the input file for inconsistencies... 	...done.

--------------------------------------------------------------
User input:
--------------------------------------------------------------

$comment
potential surface scanner
$end

$rem
JOBTYPE  PES_SCAN
UNRESTRICTED TRUE
SYM_IGNORE  TRUE
GEOM_OPT_MAX_CYCLES 400
SCF_MAX_CYCLES 400
METHOD   B3LYP
BASIS   6-31G**
PDB_PRINT 2
SCF_CONVERGENCE 6
THRESH 14
SCF_PRINT 1
$end
$molecule
0 1
Br -2.833200 0.507100 -0.012400
Br 2.833200 0.507100 -0.012500
C 0.000000 0.236900 0.032600
C -1.249900 -0.625600 -0.004000
C 1.249800 -0.625500 -0.003800
H 0.000000 0.860400 0.936100
H 0.000100 0.929600 -0.819100
H -1.300300 -1.235900 -0.909900
H -1.328900 -1.269800 0.875900
H 1.300200 -1.236000 -0.909700
H 1.328900 -1.269600 0.876200
$end
$scan
stre 1 4 3.400000 3.401000 0.100000
$end
--------------------------------------------------------------
 ----------------------------------------------------------------
             Standard Nuclear Orientation (Angstroms)
    I     Atom           X                Y                Z
 ----------------------------------------------------------------
    1      Br     -2.8332000000     0.5071000000    -0.0124000000
    2      Br      2.8332000000     0.5071000000    -0.0125000000
    3      C       0.0000000000     0.2369000000     0.0326000000
    4      C      -1.2499000000    -0.6256000000    -0.0040000000
    5      C       1.2498000000    -0.6255000000    -0.0038000000
    6      H       0.0000000000     0.8604000000     0.9361000000
    7      H       0.0001000000     0.9296000000    -0.8191000000
    8      H      -1.3003000000    -1.2359000000    -0.9099000000
    9      H      -1.3289000000    -1.2698000000     0.8759000000
   10      H       1.3002000000    -1.2360000000    -0.9097000000
   11      H       1.3289000000    -1.2696000000     0.8762000000
 ----------------------------------------------------------------
 Nuclear Repulsion Energy =   499.2752387673 hartrees
 There are       47 alpha and       47 beta electrons
 Requested basis set is 6-31G(d,p)
 There are 46 shells and 145 basis functions

 Total QAlloc Memory Limit   2000 MB
 Mega-Array Size       188 MB
 MEM_STATIC part       192 MB
A total of 1 constraints
  
            1
    1   1.0100000
    2   1.0100000
    3   4.0100000
    4   3.4000000
    5   3.4010000
    6   0.1000000
    7   0.0000000
    8   0.0000000
    9   0.0000000
   10   0.0000000

                       Distance Matrix (Angstroms)
             Br(  1)   Br(  2)   C (  3)   C (  4)   C (  5)   H (  6)
   Br(  2)  5.666400
   C (  3)  2.846411  2.846413
   C (  4)  1.946771  4.237309  1.519044
   C (  5)  4.237186  1.946796  1.518901  2.499700
   H (  6)  3.008570  3.008602  1.097754  2.157367  2.157153
   H (  7)  2.976048  2.975830  1.097828  2.155350  2.155180  1.756564
   H (  8)  2.488642  4.574844  2.179042  1.093463  2.774277  3.081066
   H (  9)  2.491861  4.611909  2.178824  1.093370  2.799766  2.511444
   H ( 10)  4.574772  2.488665  2.178964  2.774147  1.093575  3.080972
   H ( 11)  4.611870  2.491861  2.178802  2.799946  1.093399  2.511267
             H (  7)   H (  8)   H (  9)   H ( 10)
   H (  8)  2.527583
   H (  9)  3.078413  1.786351
   H ( 10)  2.527507  2.600500  3.178313
   H ( 11)  3.078349  3.178676  2.657800  1.786447
 
 A cutoff of  1.0D-14 yielded    973 shell pairs
 There are      9458 function pairs
 
 -------------------------------------------------------
 OpenMP Integral Computing Module                       
 Release: version 1.0, May 2013, Q-Chem Inc. Pittsburgh 
 -------------------------------------------------------
 Integral Job Info:
 Integral job number is                      11
 Integral operator is                         1
 short-range coefficients                     0
 long-range coefficients              100000000
 Omega coefficients                           0
 if combine SR and LR in K                    0
 Integral screening is                        0
 Integral computing path is                   2
 max size of driver memory is            800000
 size of driver memory is                593474
 size of scratch memory is             15267112
 max col of scratch BK array               1296
 max len of scratch array in speh3          155
 max len of scratch index in speh4           18
 max int batch size is                      520
 min int batch size is                       52
 fixed nKL is                                52
 max L of basis functions is                  2
 order of int derivative is                   0
 number of shells is                         46
 number of basis is                         145
 number of cartesian basis is               145
 number of contracted shell pairs           973
 number of primitive shell pairs           4221
 maxK2 (contraction) of shell pair           36
 max number of K2 of shell pair               1
 max number of CS2 of shell pair             67
 max number of PS2 of shell pair            402
 mem total for path MDJ                  530316
 -------------------------------------------------------
 Smallest overlap matrix eigenvalue = 7.23E-04

 Scale SEOQF with 1.000000e-01/1.000000e+00/1.000000e+00

 Standard Electronic Orientation quadrupole field applied
 Nucleus-field energy     =     0.0000000380 hartrees
 Guess from superposition of atomic densities
 Warning:  Energy on first SCF cycle will be non-variational
 SAD guess density has 93.945746 electrons

 -----------------------------------------------------------------------
  General SCF calculation program by
  Eric Jon Sundstrom, Paul Horn, Yuezhi Mao, Dmitri Zuev, Alec White,
  David Stuck, Shaama M.S., Shane Yost, Joonho Lee, David Small,
  Daniel Levine, Susi Lehtola, Hugh Burton, Evgeny Epifanovsky
 -----------------------------------------------------------------------
 Exchange:     0.2000 Hartree-Fock + 0.0800 Slater + 0.7200 B88
 Correlation:  0.1900 VWN1RPA + 0.8100 LYP
 Using SG-1 standard quadrature grid
 using 12 threads for integral computing
 -------------------------------------------------------
 OpenMP Integral computing Module                
 Release: version 1.0, May 2013, Q-Chem Inc. Pittsburgh 
 -------------------------------------------------------
 -------------------------------------------------------
 OpenMP BLAS3 based DFT computing Module                
 Release: version 1.0, May 2013, Q-Chem Inc. Pittsburgh 
 -------------------------------------------------------
 A unrestricted SCF calculation will be
 performed using DIIS
 SCF converges when DIIS error is below 1.0e-06
 Alpha HF Exchange    Energy = -19.64620567981996
 Beta HF Exchange     Energy = -19.64620567981996
 DFT Correlation      Energy =  -5.21369196608632
 DFT Exchange         Energy = -155.93871463838849
 One-Electron (alpha) Energy = -4155.67095138673267
 One-Electron (beta)  Energy = -4155.67095138673267
 Total Coulomb        Energy = 2739.55197554335655
 ---------------------------------------
  Cycle       Energy         DIIS error
 ---------------------------------------
    1   -5272.9595063889      1.84e-01  
 Alpha HF Exchange    Energy = -19.73749655610234
 Beta HF Exchange     Energy = -19.73749655610233
 DFT Correlation      Energy =  -5.26262144013694
 DFT Exchange         Energy = -157.08428017044352
 One-Electron (alpha) Energy = -4165.23046110637733
 One-Electron (beta)  Energy = -4165.23046110637642
 Total Coulomb        Energy = 2767.40263333246048
    2   -5265.6049447978      1.03e-02  
 Alpha HF Exchange    Energy = -19.60790286906423
 Beta HF Exchange     Energy = -19.60790286906424
 DFT Correlation      Energy =  -5.22857608225005
 DFT Exchange         Energy = -156.05001094342862
 One-Electron (alpha) Energy = -4151.30477732866439
 One-Electron (beta)  Energy = -4151.30477732866711
 Total Coulomb        Energy = 2738.18542277566303
    3   -5265.6432858402      3.33e-03  
 Alpha HF Exchange    Energy = -19.70991049795936
 Beta HF Exchange     Energy = -19.70991049795935
 DFT Correlation      Energy =  -5.25441101718693
 DFT Exchange         Energy = -156.85689953026733
 One-Electron (alpha) Energy = -4162.19286815623491
 One-Electron (beta)  Energy = -4162.19286815623400
 Total Coulomb        Energy = 2760.96089711493050
    4   -5265.6807319356      2.34e-03  
 Alpha HF Exchange    Energy = -19.67209200270898
 Beta HF Exchange     Energy = -19.67209200270894
 DFT Correlation      Energy =  -5.24484736416281
 DFT Exchange         Energy = -156.55635739261544
 One-Electron (alpha) Energy = -4158.35773320303088
 One-Electron (beta)  Energy = -4158.35773320302815
 Total Coulomb        Energy = 2752.87335643392680
    5   -5265.7122599291      2.66e-04  
 Alpha HF Exchange    Energy = -19.67030416006696
 Beta HF Exchange     Energy = -19.67030416006698
 DFT Correlation      Energy =  -5.24483856949752
 DFT Exchange         Energy = -156.54369869806047
 One-Electron (alpha) Energy = -4158.07667792902794
 One-Electron (beta)  Energy = -4158.07667792903067
 Total Coulomb        Energy = 2752.29425352707085
    6   -5265.7130091134      7.42e-05  
 Alpha HF Exchange    Energy = -19.66988554713978
 Beta HF Exchange     Energy = -19.66988554713981
 DFT Correlation      Energy =  -5.24452669417195
 DFT Exchange         Energy = -156.53982026747281
 One-Electron (alpha) Energy = -4158.04448096694432
 One-Electron (beta)  Energy = -4158.04448096694796
 Total Coulomb        Energy = 2752.22477635111181
    7   -5265.7130648334      1.57e-05  
 Alpha HF Exchange    Energy = -19.66990735275775
 Beta HF Exchange     Energy = -19.66990735275776
 DFT Correlation      Energy =  -5.24454319028357
 DFT Exchange         Energy = -156.54005828079477
 One-Electron (alpha) Energy = -4158.04299926552540
 One-Electron (beta)  Energy = -4158.04299926552812
 Total Coulomb        Energy = 2752.22210888522250
    8   -5265.7130670171      4.88e-06  
 Alpha HF Exchange    Energy = -19.66992784319772
 Beta HF Exchange     Energy = -19.66992784319772
 DFT Correlation      Energy =  -5.24454731156256
 DFT Exchange         Energy = -156.54020539467021
 One-Electron (alpha) Energy = -4158.04656823052755
 One-Electron (beta)  Energy = -4158.04656823052665
 Total Coulomb        Energy = 2752.22943874715747
    9   -5265.7130673012      5.26e-07  Convergence criterion met
 ---------------------------------------
 SCF time:   CPU 37.05s  wall 3.00s 
<S^2> =          0.000000000
 Alpha HF Exchange    Energy = -19.66992784319772
 Beta HF Exchange     Energy = -19.66992784319772
 DFT Correlation      Energy =  -5.24454731156256
 DFT Exchange         Energy = -156.54020539467021
 One-Electron (alpha) Energy = -4158.04656823052755
 One-Electron (beta)  Energy = -4158.04656823052665
 Total Coulomb        Energy = 2752.22943874715747
 Nuclear repulsion Energy = 499.27523880527525
 SCF   energy in the final basis set =    -5265.7130673012
 Total energy in the final basis set =    -5265.7130673012
 
 --------------------------------------------------------------
 
                    Orbital Energies (a.u.)
 --------------------------------------------------------------
 
 Alpha MOs
 -- Occupied --
*******-482.858 -62.517 -62.517 -56.338 -56.338 -56.334 -56.334
-56.334 -56.334 -10.257 -10.257 -10.217  -8.704  -8.704  -6.534
 -6.534  -6.521  -6.521  -6.521  -6.521  -2.628  -2.628  -2.624
 -2.624  -2.624  -2.624  -2.614  -2.614  -2.614  -2.614  -0.854
 -0.814  -0.749  -0.664  -0.618  -0.510  -0.452  -0.448  -0.440
 -0.380  -0.372  -0.368  -0.292  -0.286  -0.283  -0.278
 -- Virtual --
 -0.030   0.020   0.076   0.104   0.108   0.131   0.147   0.171
  0.195   0.199   0.232   0.248   0.318   0.336   0.340   0.345
  0.355   0.356   0.440   0.464   0.475   0.483   0.552   0.554
  0.567   0.573   0.605   0.630   0.635   0.675   0.759   0.789
  0.792   0.794   0.820   0.833   0.861   0.873   0.874   0.898
  0.904   0.967   1.105   1.123   1.319   1.355   1.380   1.586
  1.619   1.635   1.653   1.733   1.733   1.828   1.855   2.013
  2.019   2.057   2.090   2.094   2.192   2.201   2.209   2.284
  2.306   2.379   2.476   2.543   2.592   2.616   2.707   2.781
  2.783   2.796   2.852   3.177   3.219   3.306   3.327   3.453
  3.514   4.205   4.375   4.584   4.718   4.721   4.739   4.740
  4.795   4.810   4.814   4.824   4.976   4.989   6.290   6.293
 90.352  90.355
 
 Beta MOs
 -- Occupied --
*******-482.858 -62.517 -62.517 -56.338 -56.338 -56.334 -56.334
-56.334 -56.334 -10.257 -10.257 -10.217  -8.704  -8.704  -6.534
 -6.534  -6.521  -6.521  -6.521  -6.521  -2.628  -2.628  -2.624
 -2.624  -2.624  -2.624  -2.614  -2.614  -2.614  -2.614  -0.854
 -0.814  -0.749  -0.664  -0.618  -0.510  -0.452  -0.448  -0.440
 -0.380  -0.372  -0.368  -0.292  -0.286  -0.283  -0.278
 -- Virtual --
 -0.030   0.020   0.076   0.104   0.108   0.131   0.147   0.171
  0.195   0.199   0.232   0.248   0.318   0.336   0.340   0.345
  0.355   0.356   0.440   0.464   0.475   0.483   0.552   0.554
  0.567   0.573   0.605   0.630   0.635   0.675   0.759   0.789
  0.792   0.794   0.820   0.833   0.861   0.873   0.874   0.898
  0.904   0.967   1.105   1.123   1.319   1.355   1.380   1.586
  1.619   1.635   1.653   1.733   1.733   1.828   1.855   2.013
  2.019   2.057   2.090   2.094   2.192   2.201   2.209   2.284
  2.306   2.379   2.476   2.543   2.592   2.616   2.707   2.781
  2.783   2.796   2.852   3.177   3.219   3.306   3.327   3.453
  3.514   4.205   4.375   4.584   4.718   4.721   4.739   4.740
  4.795   4.810   4.814   4.824   4.976   4.989   6.290   6.293
 90.352  90.355
 --------------------------------------------------------------
 
          Ground-State Mulliken Net Atomic Charges

     Atom                 Charge (a.u.)    Spin (a.u.)
  --------------------------------------------------------
      1 Br                   -0.094863      -0.000000
      2 Br                   -0.094879       0.000000
      3 C                    -0.188480       0.000000
      4 C                    -0.261671      -0.000000
      5 C                    -0.261662      -0.000000
      6 H                     0.143835      -0.000000
      7 H                     0.145594      -0.000000
      8 H                     0.152841       0.000000
      9 H                     0.153237      -0.000000
     10 H                     0.152813       0.000000
     11 H                     0.153235       0.000000
  --------------------------------------------------------
  Sum of atomic charges =     0.000000
  Sum of spin   charges =    -0.000000

 -----------------------------------------------------------------
                    Cartesian Multipole Moments
 -----------------------------------------------------------------
    Charge (ESU x 10^10)
                 0.0000
    Dipole Moment (Debye)
         X      -0.0002      Y      -2.0256      Z       0.0201
       Tot       2.0257
    Quadrupole Moments (Debye-Ang)
        XX     -67.0144     XY       0.0001     YY     -54.7038
        XZ       0.0004     YZ      -0.0066     ZZ     -55.8622
    Octopole Moments (Debye-Ang^2)
       XXX       0.0009    XXY      -8.9036    XYY      -0.0009
       YYY     -35.7655    XXZ       0.3466    XYZ      -0.0012
       YYZ       0.3115    XZZ       0.0003    YZZ     -13.8532
       ZZZ       0.9498
    Hexadecapole Moments (Debye-Ang^3)
      XXXX   -2003.3703   XXXY      -0.0055   XXYY    -342.3301
      XYYY      -0.0039   YYYY    -178.1272   XXXZ       0.0050
      XXYZ      -0.2721   XYYZ       0.0026   YYYZ       0.0702
      XXZZ    -351.6717   XYZZ      -0.0010   YYZZ     -41.0538
      XZZZ       0.0123   YZZZ       0.5779   ZZZZ     -83.5995
 -----------------------------------------------------------------
 Calculating analytic gradient of the SCF energy
 Gradient of SCF Energy
            1           2           3           4           5           6
    1   0.0090504  -0.0090444   0.0000327  -0.0044662   0.0043997   0.0000127
    2  -0.0035151  -0.0035173  -0.0062300   0.0050449   0.0051466   0.0022498
    3  -0.0001620  -0.0001636   0.0002515  -0.0000991  -0.0000363   0.0013619
            7           8           9          10          11
    1   0.0000081   0.0008231   0.0009981  -0.0008234  -0.0009909
    2   0.0024676  -0.0004348  -0.0003665  -0.0004674  -0.0003779
    3  -0.0011808  -0.0016378   0.0016748  -0.0016982   0.0016896
 Max gradient component =       9.050E-03
 RMS gradient           =       3.249E-03
 Gradient time:  CPU 16.11 s  wall 1.43 s
 Geometry Optimization Parameters
   NAtoms,    NIC,     NZ,  NCons,   NDum,   NFix, NCnnct, MaxDiis
       11      68       0       1       0       0       0       0


** CONSTRAINED OPTIMIZATION IN DELOCALIZED INTERNAL COORDINATES **
   Searching for a Minimum

   Optimization Cycle:   1

                       Coordinates (Angstroms)
     ATOM                X               Y               Z
      1  Br       -2.8332000000    0.5071000000   -0.0124000000
      2  Br        2.8332000000    0.5071000000   -0.0125000000
      3  C         0.0000000000    0.2369000000    0.0326000000
      4  C        -1.2499000000   -0.6256000000   -0.0040000000
      5  C         1.2498000000   -0.6255000000   -0.0038000000
      6  H         0.0000000000    0.8604000000    0.9361000000
      7  H         0.0001000000    0.9296000000   -0.8191000000
      8  H        -1.3003000000   -1.2359000000   -0.9099000000
      9  H        -1.3289000000   -1.2698000000    0.8759000000
     10  H         1.3002000000   -1.2360000000   -0.9097000000
     11  H         1.3289000000   -1.2696000000    0.8762000000
   Point Group: c1    Number of degrees of freedom:    27


   Energy is  -5265.713067301

              Constraints and their Current Values
                                        Value     Constraint
   Distance(Angs):        1   4             1.946771     3.400000

 Attempting to Generate Delocalized Internal Coordinates
**WARNING** Constraint Gradient Reduced for constraint   1

   Using Lagrange Multiplier Algorithm


 28 Hessian modes will be used to form the next step
  Hessian Eigenvalues:
    -0.917319    0.045000    0.045000    0.069436    0.078528    0.083462
     0.083465    0.084023    0.084027    0.101471    0.130472    0.160000
     0.160000    0.160000    0.160000    0.172803    0.218807    0.222995
     0.222997    0.304588    0.304727    0.339235    0.339317    0.344028
     0.344155    0.344228    0.344260    1.090133

 Minimum Search - Taking P-RFO Step
 Searching for Lamda that Maximizes Along the Constraint modes Only
 Value Taken    Lamda =   0.04777096


 ********************************************
 ** ERROR IN DETERMINING Lamda IN CONFormD **
 ********************************************


 ** Scaling Hessian by  2.123154 **


 28 Hessian modes will be used to form the next step
  Hessian Eigenvalues:
    -0.833233    0.095542    0.095542    0.147423    0.166726    0.177203
     0.177210    0.178393    0.178403    0.215439    0.277012    0.339705
     0.339705    0.339705    0.339705    0.366888    0.464561    0.473452
     0.473458    0.646687    0.646983    0.720247    0.720422    0.730424
     0.730694    0.730848    0.730918    1.200145

 Minimum Search - Taking P-RFO Step
 Searching for Lamda that Maximizes Along the Constraint modes Only
 Value Taken    Lamda =   0.05661744
 Searching for Lamda that Minimizes Along All other modes
 Value Taken    Lamda =  -0.03279013
 Step Taken.  Stepsize is  0.287834

                             Maximum     Tolerance    Cnvgd?
         Gradient            0.300000       0.000300      NO
         Displacement        0.285636       0.001200      NO
         Energy change     *********       0.000001      NO


 New Cartesian Coordinates Obtained by Inverse Iteration

 Displacement from previous Coordinates is:  0.291242
 ----------------------------------------------------------------
             Standard Nuclear Orientation (Angstroms)
    I     Atom           X                Y                Z
 ----------------------------------------------------------------
    1      Br     -2.9665279964     0.5612096090    -0.0113967837
    2      Br      2.8672168747     0.5040685468    -0.0109682477
    3      C       0.0083044893     0.2325940538     0.0317858862
    4      C      -1.2432723483    -0.6352925907    -0.0039950925
    5      C       1.2664521043    -0.6255935365    -0.0038008536
    6      H       0.0058819922     0.8538618776     0.9347688269
    7      H       0.0057333896     0.9228369903    -0.8196724704
    8      H      -1.2930671896    -1.2468975518    -0.9077367771
    9      H      -1.3209503530    -1.2807662557     0.8738064407
   10      H       1.3209736490    -1.2369867207    -0.9074903084
   11      H       1.3491553884    -1.2703344221     0.8740993796
 ----------------------------------------------------------------
 Nuclear Repulsion Energy =   486.3019232413 hartrees
 There are       47 alpha and       47 beta electrons

                       Distance Matrix (Angstroms)
             Br(  1)   Br(  2)   C (  3)   C (  4)   C (  5)   H (  6)
   Br(  2)  5.834025
   C (  3)  2.993239  2.872091
   C (  4)  2.097923  4.265479  1.523467
   C (  5)  4.396212  1.959244  1.523380  2.509743
   H (  6)  3.133065  3.033811  1.096065  2.158529  2.158411
   H (  7)  3.101358  3.002908  1.096095  2.157107  2.157011  1.755797
   H (  8)  2.621669  4.601960  2.182926  1.092378  2.784647  3.081442
   H (  9)  2.623811  4.637802  2.183157  1.092340  2.809644  2.514128
   H ( 10)  4.734888  2.495174  2.182890  2.784546  1.092442  3.081401
   H ( 11)  4.771140  2.497271  2.183155  2.809806  1.092355  2.514016
             H (  7)   H (  8)   H (  9)   H ( 10)
   H (  8)  2.530294
   H (  9)  3.079582  1.782083
   H ( 10)  2.530298  2.614060  3.186644
   H ( 11)  3.079553  3.186978  2.670126  1.782125
 
 Applying Cartesian multipole field
    Component          Value
    ---------          -----
     (2,0,0)        1.00000E-11
     (0,2,0)        2.00000E-10
     (0,0,2)       -3.00000E-10
 Nucleus-field energy     =     0.0000000406 hartrees
 Requested basis set is 6-31G(d,p)
 There are 46 shells and 145 basis functions
 A cutoff of  1.0D-14 yielded    959 shell pairs
 There are      9294 function pairs
 Smallest overlap matrix eigenvalue = 7.23E-04
 Guess from superposition of atomic densities
 Warning:  Energy on first SCF cycle will be non-variational
 SAD guess density has 93.945746 electrons

 -----------------------------------------------------------------------
  General SCF calculation program by
  Eric Jon Sundstrom, Paul Horn, Yuezhi Mao, Dmitri Zuev, Alec White,
  David Stuck, Shaama M.S., Shane Yost, Joonho Lee, David Small,
  Daniel Levine, Susi Lehtola, Hugh Burton, Evgeny Epifanovsky
 -----------------------------------------------------------------------
 Exchange:     0.2000 Hartree-Fock + 0.0800 Slater + 0.7200 B88
 Correlation:  0.1900 VWN1RPA + 0.8100 LYP
 Using SG-1 standard quadrature grid
 using 12 threads for integral computing
 -------------------------------------------------------
 OpenMP Integral computing Module                
 Release: version 1.0, May 2013, Q-Chem Inc. Pittsburgh 
 -------------------------------------------------------
 -------------------------------------------------------
 OpenMP BLAS3 based DFT computing Module                
 Release: version 1.0, May 2013, Q-Chem Inc. Pittsburgh 
 -------------------------------------------------------
 A unrestricted SCF calculation will be
 performed using DIIS
 SCF converges when DIIS error is below 1.0e-06
 Alpha HF Exchange    Energy = -19.63253797878324
 Beta HF Exchange     Energy = -19.63253797878324
 DFT Correlation      Energy =  -5.20941791582355
 DFT Exchange         Energy = -155.91188339461934
 One-Electron (alpha) Energy = -4142.74039368589001
 One-Electron (beta)  Energy = -4142.74039368589001
 Total Coulomb        Energy = 2726.76795327468972
 ---------------------------------------
  Cycle       Energy         DIIS error
 ---------------------------------------
    1   -5272.7972880832      1.84e-01  
 Alpha HF Exchange    Energy = -19.73218657379317
 Beta HF Exchange     Energy = -19.73218657379317
 DFT Correlation      Energy =  -5.25792117037654
 DFT Exchange         Energy = -157.04786963743979
 One-Electron (alpha) Energy = -4152.32467935751447
 One-Electron (beta)  Energy = -4152.32467935751447
 Total Coulomb        Energy = 2754.51586660475732
    2   -5265.6017327837      1.03e-02  
 Alpha HF Exchange    Energy = -19.60234285584800
 Beta HF Exchange     Energy = -19.60234285584802
 DFT Correlation      Energy =  -5.22503681194033
 DFT Exchange         Energy = -156.01650769351235
 One-Electron (alpha) Energy = -4138.15914744598922
 One-Electron (beta)  Energy = -4138.15914744599195
 Total Coulomb        Energy = 2724.82419536035195
    3   -5265.6384064668      3.40e-03  
 Alpha HF Exchange    Energy = -19.70492769847892
 Beta HF Exchange     Energy = -19.70492769847892
 DFT Correlation      Energy =  -5.24880755039399
 DFT Exchange         Energy = -156.81935830960225
 One-Electron (alpha) Energy = -4149.48506403266492
 One-Electron (beta)  Energy = -4149.48506403266492
 Total Coulomb        Energy = 2748.47079944286315
    4   -5265.6754265975      2.47e-03  
 Alpha HF Exchange    Energy = -19.66736033324008
 Beta HF Exchange     Energy = -19.66736033324007
 DFT Correlation      Energy =  -5.24139287637299
 DFT Exchange         Energy = -156.52900730849129
 One-Electron (alpha) Energy = -4145.33490521158637
 One-Electron (beta)  Energy = -4145.33490521158456
 Total Coulomb        Energy = 2739.76408337164776
    5   -5265.7089246209      3.63e-04  
 Alpha HF Exchange    Energy = -19.66502864526898
 Beta HF Exchange     Energy = -19.66502864526898
 DFT Correlation      Energy =  -5.24031170487851
 DFT Exchange         Energy = -156.50853919311038
 One-Electron (alpha) Energy = -4145.15835317903293
 One-Electron (beta)  Energy = -4145.15835317903293
 Total Coulomb        Energy = 2739.38342547873117
    6   -5265.7102657859      7.64e-05  
 Alpha HF Exchange    Energy = -19.66455663289227
 Beta HF Exchange     Energy = -19.66455663289222
 DFT Correlation      Energy =  -5.24024839219517
 DFT Exchange         Energy = -156.50518878834737
 One-Electron (alpha) Energy = -4145.07335041659098
 One-Electron (beta)  Energy = -4145.07335041658735
 Total Coulomb        Energy = 2739.20899127346138
    7   -5265.7103367241      2.19e-05  
 Alpha HF Exchange    Energy = -19.66457733299380
 Beta HF Exchange     Energy = -19.66457733299385
 DFT Correlation      Energy =  -5.24020813622556
 DFT Exchange         Energy = -156.50522348953092
 One-Electron (alpha) Energy = -4145.08072178969996
 One-Electron (beta)  Energy = -4145.08072178970451
 Total Coulomb        Energy = 2739.22376492453122
    8   -5265.7103416647      5.00e-06  
 Alpha HF Exchange    Energy = -19.66460854619291
 Beta HF Exchange     Energy = -19.66460854619291
 DFT Correlation      Energy =  -5.24022691767374
 DFT Exchange         Energy = -156.50549427113481
 One-Electron (alpha) Energy = -4145.08371706816342
 One-Electron (beta)  Energy = -4145.08371706816342
 Total Coulomb        Energy = 2739.23010723926063
    9   -5265.7103418963      1.78e-06  
 Alpha HF Exchange    Energy = -19.66461274107429
 Beta HF Exchange     Energy = -19.66461274107427
 DFT Correlation      Energy =  -5.24022671571893
 DFT Exchange         Energy = -156.50552061283605
 One-Electron (alpha) Energy = -4145.08462984718972
 One-Electron (beta)  Energy = -4145.08462984718790
 Total Coulomb        Energy = 2739.23196729465690
   10   -5265.7103419285      3.62e-07  Convergence criterion met
 ---------------------------------------
 SCF time:   CPU 39.85s  wall 3.00s 
<S^2> =          0.000000000
 Alpha HF Exchange    Energy = -19.66461274107429
 Beta HF Exchange     Energy = -19.66461274107427
 DFT Correlation      Energy =  -5.24022671571893
 DFT Exchange         Energy = -156.50552061283605
 One-Electron (alpha) Energy = -4145.08462984718972
 One-Electron (beta)  Energy = -4145.08462984718790
 Total Coulomb        Energy = 2739.23196729465690
 Nuclear repulsion Energy = 486.30192328193283
 SCF   energy in the final basis set =    -5265.7103419285
 Total energy in the final basis set =    -5265.7103419285
 
 --------------------------------------------------------------
 
                    Orbital Energies (a.u.)
 --------------------------------------------------------------
 
 Alpha MOs
 -- Occupied --
*******-482.857 -62.520 -62.515 -56.341 -56.337 -56.337 -56.336
-56.332 -56.332 -10.267 -10.262 -10.221  -8.707  -8.701  -6.537
 -6.531  -6.524  -6.524  -6.518  -6.518  -2.630  -2.627  -2.627
 -2.625  -2.621  -2.621  -2.616  -2.616  -2.611  -2.611  -0.849
 -0.800  -0.749  -0.671  -0.620  -0.511  -0.450  -0.448  -0.438
 -0.378  -0.374  -0.360  -0.292  -0.287  -0.283  -0.281
 -- Virtual --
 -0.057   0.004   0.074   0.104   0.106   0.130   0.148   0.168
  0.191   0.200   0.230   0.245   0.320   0.335   0.339   0.345
  0.350   0.354   0.442   0.468   0.472   0.480   0.550   0.557
  0.563   0.569   0.608   0.626   0.628   0.671   0.719   0.771
  0.779   0.797   0.811   0.831   0.855   0.856   0.883   0.891
  0.900   0.946   1.089   1.099   1.307   1.344   1.365   1.563
  1.618   1.620   1.649   1.710   1.728   1.817   1.849   1.979
  2.017   2.055   2.068   2.091   2.186   2.192   2.201   2.274
  2.292   2.376   2.463   2.542   2.588   2.610   2.697   2.777
  2.781   2.794   2.850   3.174   3.216   3.305   3.323   3.451
  3.513   4.199   4.373   4.582   4.717   4.722   4.733   4.735
  4.779   4.784   4.806   4.811   4.946   4.978   6.289   6.292
 90.324  90.349
 
 Beta MOs
 -- Occupied --
*******-482.857 -62.520 -62.515 -56.341 -56.337 -56.337 -56.336
-56.332 -56.332 -10.267 -10.262 -10.221  -8.707  -8.701  -6.537
 -6.531  -6.524  -6.524  -6.518  -6.518  -2.630  -2.627  -2.627
 -2.625  -2.621  -2.621  -2.616  -2.616  -2.611  -2.611  -0.849
 -0.800  -0.749  -0.671  -0.620  -0.511  -0.450  -0.448  -0.438
 -0.378  -0.374  -0.360  -0.292  -0.287  -0.283  -0.281
 -- Virtual --
 -0.057   0.004   0.074   0.104   0.106   0.130   0.148   0.168
  0.191   0.200   0.230   0.245   0.320   0.335   0.339   0.345
  0.350   0.354   0.442   0.468   0.472   0.480   0.550   0.557
  0.563   0.569   0.608   0.626   0.628   0.671   0.719   0.771
  0.779   0.797   0.811   0.831   0.855   0.856   0.883   0.891
  0.900   0.946   1.089   1.099   1.307   1.344   1.365   1.563
  1.618   1.620   1.649   1.710   1.728   1.817   1.849   1.979
  2.017   2.055   2.068   2.091   2.186   2.192   2.201   2.274
  2.292   2.376   2.463   2.542   2.588   2.610   2.697   2.777
  2.781   2.794   2.850   3.174   3.216   3.305   3.323   3.451
  3.513   4.199   4.373   4.582   4.717   4.722   4.733   4.735
  4.779   4.784   4.806   4.811   4.946   4.978   6.289   6.292
 90.324  90.349
 --------------------------------------------------------------
 
          Ground-State Mulliken Net Atomic Charges

     Atom                 Charge (a.u.)    Spin (a.u.)
  --------------------------------------------------------
      1 Br                   -0.124506       0.000000
      2 Br                   -0.090926      -0.000000
      3 C                    -0.186424       0.000000
      4 C                    -0.253399       0.000000
      5 C                    -0.263767      -0.000000
      6 H                     0.146739      -0.000000
      7 H                     0.148636       0.000000
      8 H                     0.156747      -0.000000
      9 H                     0.157116      -0.000000
     10 H                     0.154660       0.000000
     11 H                     0.155126      -0.000000
  --------------------------------------------------------
  Sum of atomic charges =     0.000000
  Sum of spin   charges =    -0.000000

 -----------------------------------------------------------------
                    Cartesian Multipole Moments
 -----------------------------------------------------------------
    Charge (ESU x 10^10)
                -0.0000
    Dipole Moment (Debye)
         X       0.3833      Y      -2.1509      Z       0.0189
       Tot       2.1849
    Quadrupole Moments (Debye-Ang)
        XX     -68.0497     XY       0.2070     YY     -54.7064
        XZ      -0.0054     YZ      -0.0053     ZZ     -56.0132
    Octopole Moments (Debye-Ang^2)
       XXX       9.5794    XXY      -9.8632    XYY       2.0459
       YYY     -38.7311    XXZ       0.3175    XYZ      -0.0029
       YYZ       0.2720    XZZ       2.1996    YZZ     -14.7549
       ZZZ       0.8281
    Hexadecapole Moments (Debye-Ang^3)
      XXXX   -2119.6353   XXXY      12.1359   XXYY    -362.0831
      XYYY      12.6386   YYYY    -184.5006   XXXZ      -0.1873
      XXYZ      -0.2469   XYYZ      -0.0489   YYYZ       0.0423
      XXZZ    -371.3783   XYZZ       4.2322   YYZZ     -42.0900
      XZZZ      -0.1603   YZZZ       0.5486   ZZZZ     -83.8051
 -----------------------------------------------------------------
 Calculating analytic gradient of the SCF energy
 Gradient of SCF Energy
            1           2           3           4           5           6
    1  -0.0220442  -0.0043397   0.0058836   0.0080419   0.0042577  -0.0002562
    2   0.0165803  -0.0018034  -0.0086753  -0.0074184   0.0048182   0.0015798
    3  -0.0002459  -0.0001602   0.0000707  -0.0000722   0.0000236   0.0007132
            7           8           9          10          11
    1  -0.0002631   0.0052377   0.0053130  -0.0008951  -0.0009357
    2   0.0017742  -0.0030612  -0.0029215  -0.0004742  -0.0003986
    3  -0.0005191   0.0000637   0.0000657  -0.0008660   0.0009265
 Max gradient component =       2.204E-02
 RMS gradient           =       5.872E-03
 Gradient time:  CPU 15.90 s  wall 1.40 s
 Geometry Optimization Parameters
   NAtoms,    NIC,     NZ,  NCons,   NDum,   NFix, NCnnct, MaxDiis
       11      68       0       1       0       0       0       0

 Cartesian Hessian Update
 Hessian Updated using BFGS Update


** CONSTRAINED OPTIMIZATION IN DELOCALIZED INTERNAL COORDINATES **
   Searching for a Minimum

   Optimization Cycle:   2

                       Coordinates (Angstroms)
     ATOM                X               Y               Z
      1  Br       -2.9665279964    0.5612096090   -0.0113967837
      2  Br        2.8672168747    0.5040685468   -0.0109682477
      3  C         0.0083044893    0.2325940538    0.0317858862
      4  C        -1.2432723483   -0.6352925907   -0.0039950925
      5  C         1.2664521043   -0.6255935365   -0.0038008536
      6  H         0.0058819922    0.8538618776    0.9347688269
      7  H         0.0057333896    0.9228369903   -0.8196724704
      8  H        -1.2930671896   -1.2468975518   -0.9077367771
      9  H        -1.3209503530   -1.2807662557    0.8738064407
     10  H         1.3209736490   -1.2369867207   -0.9074903084
     11  H         1.3491553884   -1.2703344221    0.8740993796
   Point Group: c1    Number of degrees of freedom:    27


   Energy is  -5265.710341928

              Constraints and their Current Values
                                        Value     Constraint
   Distance(Angs):        1   4             2.097923     3.400000
 Hessian Updated using BFGS Update
**WARNING** Constraint Gradient Reduced for constraint   1

   Using Lagrange Multiplier Algorithm


 26 Hessian modes will be used to form the next step
  Hessian Eigenvalues:
    -0.936958    0.095539    0.095542    0.147421    0.166728    0.177195
     0.178389    0.178397    0.182369    0.215457    0.277012    0.339356
     0.341074    0.366832    0.465863    0.473303    0.476566    0.646502
     0.650264    0.720052    0.720363    0.730313    0.730593    0.730809
     0.730900    1.069382

 Minimum Search - Taking P-RFO Step
 Searching for Lamda that Maximizes Along the Constraint modes Only
 Value Taken    Lamda =   0.03185450
 Searching for Lamda that Minimizes Along All other modes
 Value Taken    Lamda =  -0.05754786
 Step Taken.  Stepsize is  0.296860

                             Maximum     Tolerance    Cnvgd?
         Gradient            0.300000       0.000300      NO
         Displacement        0.286874       0.001200      NO
         Energy change      0.002725       0.000001      NO


 New Cartesian Coordinates Obtained by Inverse Iteration

 Displacement from previous Coordinates is:  0.261722
 ----------------------------------------------------------------
             Standard Nuclear Orientation (Angstroms)
    I     Atom           X                Y                Z
 ----------------------------------------------------------------
    1      Br     -3.0818976153     0.6142300232    -0.0097107954
    2      Br      2.8958904180     0.5031176697    -0.0090903955
    3      C       0.0164505890     0.2309249437     0.0309333677
    4      C      -1.2226045763    -0.6523736523    -0.0040166227
    5      C       1.2808761669    -0.6254984933    -0.0038247309
    6      H       0.0102381270     0.8495258029     0.9332756510
    7      H       0.0096857763     0.9178950497    -0.8205035652
    8      H      -1.2963459292    -1.2588721055    -0.9072734612
    9      H      -1.3234125761    -1.2928711031     0.8727692201
   10      H       1.3418252748    -1.2372995415    -0.9052944939
   11      H       1.3691943447    -1.2700785937     0.8721358260
 ----------------------------------------------------------------
 Nuclear Repulsion Energy =   475.6384875652 hartrees
 There are       47 alpha and       47 beta electrons

                       Distance Matrix (Angstroms)
             Br(  1)   Br(  2)   C (  3)   C (  4)   C (  5)   H (  6)
   Br(  2)  5.978821
   C (  3)  3.122233  2.892553
   C (  4)  2.249731  4.277521  1.522070
   C (  5)  4.535500  1.970298  1.527561  2.503625
   H (  6)  3.241279  3.055330  1.094042  2.157341  2.160642
   H (  7)  3.210527  3.026650  1.094038  2.156602  2.159850  1.755111
   H (  8)  2.739037  4.635319  2.196170  1.090482  2.803472  3.088709
   H (  9)  2.740087  4.669665  2.196787  1.090483  2.827742  2.524312
   H ( 10)  4.878479  2.499470  2.188338  2.780421  1.091175  3.083554
   H ( 11)  4.913297  2.500317  2.188732  2.804750  1.091142  2.518576
             H (  7)   H (  8)   H (  9)   H ( 10)
   H (  8)  2.539993
   H (  9)  3.087363  1.780573
   H ( 10)  2.535084  2.638260  3.204386
   H ( 11)  3.082291  3.204922  2.692703  1.777943
 
 Applying Cartesian multipole field
    Component          Value
    ---------          -----
     (2,0,0)        1.00000E-11
     (0,2,0)        2.00000E-10
     (0,0,2)       -3.00000E-10
 Nucleus-field energy     =     0.0000000434 hartrees
 Requested basis set is 6-31G(d,p)
 There are 46 shells and 145 basis functions
 A cutoff of  1.0D-14 yielded    952 shell pairs
 There are      9195 function pairs
 Smallest overlap matrix eigenvalue = 7.23E-04
 Guess from superposition of atomic densities
 Warning:  Energy on first SCF cycle will be non-variational
 SAD guess density has 93.945746 electrons

 -----------------------------------------------------------------------
  General SCF calculation program by
  Eric Jon Sundstrom, Paul Horn, Yuezhi Mao, Dmitri Zuev, Alec White,
  David Stuck, Shaama M.S., Shane Yost, Joonho Lee, David Small,
  Daniel Levine, Susi Lehtola, Hugh Burton, Evgeny Epifanovsky
 -----------------------------------------------------------------------
 Exchange:     0.2000 Hartree-Fock + 0.0800 Slater + 0.7200 B88
 Correlation:  0.1900 VWN1RPA + 0.8100 LYP
 Using SG-1 standard quadrature grid
 using 12 threads for integral computing
 -------------------------------------------------------
 OpenMP Integral computing Module                
 Release: version 1.0, May 2013, Q-Chem Inc. Pittsburgh 
 -------------------------------------------------------
 -------------------------------------------------------
 OpenMP BLAS3 based DFT computing Module                
 Release: version 1.0, May 2013, Q-Chem Inc. Pittsburgh 
 -------------------------------------------------------
 A unrestricted SCF calculation will be
 performed using DIIS
 SCF converges when DIIS error is below 1.0e-06
 Alpha HF Exchange    Energy = -19.62327576059622
 Beta HF Exchange     Energy = -19.62327576059622
 DFT Correlation      Energy =  -5.20601968055255
 DFT Exchange         Energy = -155.89392555391876
 One-Electron (alpha) Energy = -4132.09791026987659
 One-Electron (beta)  Energy = -4132.09791026987659
 Total Coulomb        Energy = 2716.21750081029541
 ---------------------------------------
  Cycle       Energy         DIIS error
 ---------------------------------------
    1   -5272.6863288765      1.83e-01  
 Alpha HF Exchange    Energy = -19.72915430987477
 Beta HF Exchange     Energy = -19.72915430987477
 DFT Correlation      Energy =  -5.25431631653305
 DFT Exchange         Energy = -157.02753840830277
 One-Electron (alpha) Energy = -4141.85751589531719
 One-Electron (beta)  Energy = -4141.85751589531628
 Total Coulomb        Energy = 2744.23069296206450
    2   -5265.5860145646      1.03e-02  
 Alpha HF Exchange    Energy = -19.59710979389844
 Beta HF Exchange     Energy = -19.59710979389843
 DFT Correlation      Energy =  -5.22230851372287
 DFT Exchange         Energy = -155.98664563245140
 One-Electron (alpha) Energy = -4127.00458906175390
 One-Electron (beta)  Energy = -4127.00458906175209
 Total Coulomb        Energy = 2713.16964065163938
    3   -5265.6042235973      3.73e-03  
 Alpha HF Exchange    Energy = -19.70281716040094
 Beta HF Exchange     Energy = -19.70281716040098
 DFT Correlation      Energy =  -5.24386493923986
 DFT Exchange         Energy = -156.79829494006594
 One-Electron (alpha) Energy = -4139.37311738097833
 One-Electron (beta)  Energy = -4139.37311738098197
 Total Coulomb        Energy = 2738.93050829000822
    4   -5265.6250330635      3.10e-03  
 Alpha HF Exchange    Energy = -19.66640962735605
 Beta HF Exchange     Energy = -19.66640962735609
 DFT Correlation      Energy =  -5.23949259339781
 DFT Exchange         Energy = -156.53212282040022
 One-Electron (alpha) Energy = -4134.79168170396952
 One-Electron (beta)  Energy = -4134.79168170397134
 Total Coulomb        Energy = 2729.35762254336305
    5   -5265.6916879245      8.68e-04  
 Alpha HF Exchange    Energy = -19.66132309301302
 Beta HF Exchange     Energy = -19.66132309301302
 DFT Correlation      Energy =  -5.23699088355673
 DFT Exchange         Energy = -156.48614091963395
 One-Electron (alpha) Energy = -4134.53524655856108
 One-Electron (beta)  Energy = -4134.53524655856108
 Total Coulomb        Energy = 2728.77746167435907
    6   -5265.7003218234      7.98e-05  
 Alpha HF Exchange    Energy = -19.66053192784233
 Beta HF Exchange     Energy = -19.66053192784232
 DFT Correlation      Energy =  -5.23683817853214
 DFT Exchange         Energy = -156.48033569767270
 One-Electron (alpha) Energy = -4134.39629424047507
 One-Electron (beta)  Energy = -4134.39629424047325
 Total Coulomb        Energy = 2728.49193968290865
    7   -5265.7003989214      3.89e-05  
 Alpha HF Exchange    Energy = -19.66068300768116
 Beta HF Exchange     Energy = -19.66068300768116
 DFT Correlation      Energy =  -5.23681370715401
 DFT Exchange         Energy = -156.48133848093670
 One-Electron (alpha) Energy = -4134.42292793146862
 One-Electron (beta)  Energy = -4134.42292793146862
 Total Coulomb        Energy = 2728.54647208214647
    8   -5265.7004143757      1.15e-05  
 Alpha HF Exchange    Energy = -19.66075741195461
 Beta HF Exchange     Energy = -19.66075741195461
 DFT Correlation      Energy =  -5.23684989705893
 DFT Exchange         Energy = -156.48194195206344
 One-Electron (alpha) Energy = -4134.43238937004116
 One-Electron (beta)  Energy = -4134.43238937004116
 Total Coulomb        Energy = 2728.56618197625767
    9   -5265.7004158283      2.82e-06  
 Alpha HF Exchange    Energy = -19.66076095090852
 Beta HF Exchange     Energy = -19.66076095090850
 DFT Correlation      Energy =  -5.23684981905871
 DFT Exchange         Energy = -156.48196174130635
 One-Electron (alpha) Energy = -4134.43333781505498
 One-Electron (beta)  Energy = -4134.43333781505407
 Total Coulomb        Energy = 2728.56810557297604
   10   -5265.7004159107      4.95e-07  Convergence criterion met
 ---------------------------------------
 SCF time:   CPU 39.05s  wall 3.00s 
<S^2> =         -0.000000000
 Alpha HF Exchange    Energy = -19.66076095090852
 Beta HF Exchange     Energy = -19.66076095090850
 DFT Correlation      Energy =  -5.23684981905871
 DFT Exchange         Energy = -156.48196174130635
 One-Electron (alpha) Energy = -4134.43333781505498
 One-Electron (beta)  Energy = -4134.43333781505407
 Total Coulomb        Energy = 2728.56810557297604
 Nuclear repulsion Energy = 475.63848760857621
 SCF   energy in the final basis set =    -5265.7004159107
 Total energy in the final basis set =    -5265.7004159107
 
 --------------------------------------------------------------
 
                    Orbital Energies (a.u.)
 --------------------------------------------------------------
 
 Alpha MOs
 -- Occupied --
*******-482.853 -62.522 -62.510 -56.343 -56.340 -56.340 -56.332
-56.328 -56.328 -10.277 -10.266 -10.226  -8.709  -8.696  -6.540
 -6.526  -6.526  -6.526  -6.514  -6.513  -2.633  -2.629  -2.629
 -2.619  -2.619  -2.619  -2.616  -2.616  -2.606  -2.606  -0.850
 -0.793  -0.745  -0.678  -0.624  -0.513  -0.453  -0.450  -0.439
 -0.380  -0.378  -0.347  -0.292  -0.289  -0.280  -0.280
 -- Virtual --
 -0.084  -0.006   0.072   0.103   0.104   0.128   0.146   0.168
  0.186   0.202   0.228   0.241   0.324   0.334   0.340   0.346
  0.347   0.354   0.445   0.468   0.473   0.481   0.545   0.549
  0.569   0.570   0.611   0.624   0.625   0.653   0.686   0.758
  0.766   0.795   0.796   0.828   0.842   0.851   0.878   0.896
  0.900   0.932   1.071   1.094   1.294   1.326   1.358   1.534
  1.608   1.613   1.640   1.714   1.723   1.807   1.842   1.939
  2.009   2.048   2.050   2.092   2.179   2.185   2.195   2.269
  2.281   2.379   2.453   2.536   2.588   2.611   2.690   2.769
  2.782   2.789   2.848   3.175   3.213   3.307   3.319   3.452
  3.507   4.194   4.370   4.574   4.714   4.725   4.730   4.733
  4.764   4.767   4.799   4.804   4.913   4.973   6.286   6.288
 90.283  90.345
 
 Beta MOs
 -- Occupied --
*******-482.853 -62.522 -62.510 -56.343 -56.340 -56.340 -56.332
-56.328 -56.328 -10.277 -10.266 -10.226  -8.709  -8.696  -6.540
 -6.526  -6.526  -6.526  -6.514  -6.513  -2.633  -2.629  -2.629
 -2.619  -2.619  -2.619  -2.616  -2.616  -2.606  -2.606  -0.850
 -0.793  -0.745  -0.678  -0.624  -0.513  -0.453  -0.450  -0.439
 -0.380  -0.378  -0.347  -0.292  -0.289  -0.280  -0.280
 -- Virtual --
 -0.084  -0.006   0.072   0.103   0.104   0.128   0.146   0.168
  0.186   0.202   0.228   0.241   0.324   0.334   0.340   0.346
  0.347   0.354   0.445   0.468   0.473   0.481   0.545   0.549
  0.569   0.570   0.611   0.624   0.625   0.653   0.686   0.758
  0.766   0.795   0.796   0.828   0.842   0.851   0.878   0.896
  0.900   0.932   1.071   1.094   1.294   1.326   1.358   1.534
  1.608   1.613   1.640   1.714   1.723   1.807   1.842   1.939
  2.009   2.048   2.050   2.092   2.179   2.185   2.195   2.269
  2.281   2.379   2.453   2.536   2.588   2.611   2.690   2.769
  2.782   2.789   2.848   3.175   3.213   3.307   3.319   3.452
  3.507   4.194   4.370   4.574   4.714   4.725   4.730   4.733
  4.764   4.767   4.799   4.804   4.913   4.973   6.286   6.288
 90.283  90.345
 --------------------------------------------------------------
 
          Ground-State Mulliken Net Atomic Charges

     Atom                 Charge (a.u.)    Spin (a.u.)
  --------------------------------------------------------
      1 Br                   -0.168133       0.000000
      2 Br                   -0.087834       0.000000
      3 C                    -0.187289      -0.000000
      4 C                    -0.232986      -0.000000
      5 C                    -0.266380      -0.000000
      6 H                     0.151389       0.000000
      7 H                     0.153436      -0.000000
      8 H                     0.161415       0.000000
      9 H                     0.161792       0.000000
     10 H                     0.157046       0.000000
     11 H                     0.157543      -0.000000
  --------------------------------------------------------
  Sum of atomic charges =    -0.000000
  Sum of spin   charges =     0.000000

 -----------------------------------------------------------------
                    Cartesian Multipole Moments
 -----------------------------------------------------------------
    Charge (ESU x 10^10)
                -0.0000
    Dipole Moment (Debye)
         X       0.8591      Y      -2.3398      Z       0.0171
       Tot       2.4926
    Quadrupole Moments (Debye-Ang)
        XX     -69.5711     XY       0.6478     YY     -54.6798
        XZ      -0.0096     YZ      -0.0014     ZZ     -56.1008
    Octopole Moments (Debye-Ang^2)
       XXX      20.5190    XXY     -11.7549    XYY       3.9338
       YYY     -41.8567    XXZ       0.2745    XYZ      -0.0061
       YYZ       0.2148    XZZ       4.1033    YZZ     -15.7270
       ZZZ       0.6492
    Hexadecapole Moments (Debye-Ang^3)
      XXXX   -2234.4712   XXXY      26.9507   XXYY    -380.5026
      XYYY      25.6819   YYYY    -191.9744   XXXZ      -0.3224
      XXYZ      -0.2108   XYYZ      -0.0786   YYYZ      -0.0223
      XXZZ    -389.1386   XYZZ       8.6115   YYZZ     -43.2732
      XZZZ      -0.2464   YZZZ       0.4840   ZZZZ     -83.8899
 -----------------------------------------------------------------
 Calculating analytic gradient of the SCF energy
 Gradient of SCF Energy
            1           2           3           4           5           6
    1  -0.0371759  -0.0008961   0.0081804   0.0163930   0.0024374  -0.0002951
    2   0.0259249  -0.0005808  -0.0073747  -0.0140773   0.0036591   0.0010707
    3  -0.0001794  -0.0001329  -0.0000447  -0.0001158   0.0000284  -0.0001478
            7           8           9          10          11
    1  -0.0002948   0.0063968   0.0064008  -0.0006080  -0.0005386
    2   0.0012357  -0.0045931  -0.0044156  -0.0004767  -0.0003723
    3   0.0003588   0.0016840  -0.0015522  -0.0000094   0.0001109
 Max gradient component =       3.718E-02
 RMS gradient           =       9.203E-03
 Gradient time:  CPU 15.54 s  wall 1.37 s
 Geometry Optimization Parameters
   NAtoms,    NIC,     NZ,  NCons,   NDum,   NFix, NCnnct, MaxDiis
       11      68       0       1       0       0       0       0

 Cartesian Hessian Update
 Hessian Updated using BFGS Update


** CONSTRAINED OPTIMIZATION IN DELOCALIZED INTERNAL COORDINATES **
   Searching for a Minimum

   Optimization Cycle:   3

                       Coordinates (Angstroms)
     ATOM                X               Y               Z
      1  Br       -3.0818976153    0.6142300232   -0.0097107954
      2  Br        2.8958904180    0.5031176697   -0.0090903955
      3  C         0.0164505890    0.2309249437    0.0309333677
      4  C        -1.2226045763   -0.6523736523   -0.0040166227
      5  C         1.2808761669   -0.6254984933   -0.0038247309
      6  H         0.0102381270    0.8495258029    0.9332756510
      7  H         0.0096857763    0.9178950497   -0.8205035652
      8  H        -1.2963459292   -1.2588721055   -0.9072734612
      9  H        -1.3234125761   -1.2928711031    0.8727692201
     10  H         1.3418252748   -1.2372995415   -0.9052944939
     11  H         1.3691943447   -1.2700785937    0.8721358260
   Point Group: c1    Number of degrees of freedom:    27


   Energy is  -5265.700415911

              Constraints and their Current Values
                                        Value     Constraint
   Distance(Angs):        1   4             2.249731     3.400000
 Hessian Updated using BFGS Update
**WARNING** Constraint Gradient Reduced for constraint   1

   Using Lagrange Multiplier Algorithm


 27 Hessian modes will be used to form the next step
  Hessian Eigenvalues:
    -0.962819    0.095538    0.095542    0.147420    0.166677    0.177180
     0.178376    0.178397    0.182433    0.215448    0.277012    0.337072
     0.339705    0.340118    0.368421    0.465076    0.473456    0.478743
     0.645772    0.653763    0.720162    0.720378    0.730306    0.730530
     0.730815    0.730897    1.044936

 Minimum Search - Taking P-RFO Step
 Searching for Lamda that Maximizes Along the Constraint modes Only
 Value Taken    Lamda =   0.03982743
 Searching for Lamda that Minimizes Along All other modes
 Value Taken    Lamda =  -0.04966476
 Calculated Step too Large.  Step scaled by  0.962228
 Step Taken.  Stepsize is  0.300000

                             Maximum     Tolerance    Cnvgd?
         Gradient            0.300000       0.000300      NO
         Displacement        0.276033       0.001200      NO
         Energy change      0.009926       0.000001      NO


 New Cartesian Coordinates Obtained by Inverse Iteration

 Displacement from previous Coordinates is:  0.231797
 ----------------------------------------------------------------
             Standard Nuclear Orientation (Angstroms)
    I     Atom           X                Y                Z
 ----------------------------------------------------------------
    1      Br     -3.1795508856     0.6655183299    -0.0081039326
    2      Br      2.9139600050     0.5057599683    -0.0071835563
    3      C       0.0238563342     0.2287823100     0.0301972093
    4      C      -1.1926234263    -0.6731246674    -0.0039492843
    5      C       1.2929593612    -0.6266919639    -0.0039075335
    6      H       0.0129644138     0.8444811255     0.9325548190
    7      H       0.0119502674     0.9120063421    -0.8221279058
    8      H      -1.3026362378    -1.2680011460    -0.9090666551
    9      H      -1.3288766695    -1.3021659705     0.8740895379
   10      H       1.3607662988    -1.2377664854    -0.9042767296
   11      H       1.3871305389    -1.2700978426     0.8711740309
 ----------------------------------------------------------------
 Nuclear Repulsion Energy =   467.3545227360 hartrees
 There are       47 alpha and       47 beta electrons

                       Distance Matrix (Angstroms)
             Br(  1)   Br(  2)   C (  3)   C (  4)   C (  5)   H (  6)
   Br(  2)  6.095605
   C (  3)  3.233268  2.903586
   C (  4)  2.395801  4.272447  1.514736
   C (  5)  4.655446  1.977398  1.530889  2.486016
   H (  6)  3.333020  3.068162  1.092453  2.152582  2.163261
   H (  7)  3.302888  3.041518  1.092426  2.152453  2.162883  1.755982
   H (  8)  2.841310  4.662543  2.209561  1.088677  2.822713  3.095958
   H (  9)  2.841662  4.695413  2.210394  1.088674  2.846255  2.532202
   H ( 10)  5.004008  2.501414  2.193476  2.765720  1.090264  3.086466
   H ( 11)  5.037293  2.501278  2.193718  2.788790  1.090233  2.522607
             H (  7)   H (  8)   H (  9)   H ( 10)
   H (  8)  2.547181
   H (  9)  3.094758  1.783676
   H ( 10)  2.539208  2.663578  3.225045
   H ( 11)  3.085445  3.225540  2.716198  1.775941
 
 Applying Cartesian multipole field
    Component          Value
    ---------          -----
     (2,0,0)        1.00000E-11
     (0,2,0)        2.00000E-10
     (0,0,2)       -3.00000E-10
 Nucleus-field energy     =     0.0000000461 hartrees
 Requested basis set is 6-31G(d,p)
 There are 46 shells and 145 basis functions
 A cutoff of  1.0D-14 yielded    950 shell pairs
 There are      9174 function pairs
 Smallest overlap matrix eigenvalue = 7.23E-04
 Guess from superposition of atomic densities
 Warning:  Energy on first SCF cycle will be non-variational
 SAD guess density has 93.945746 electrons

 -----------------------------------------------------------------------
  General SCF calculation program by
  Eric Jon Sundstrom, Paul Horn, Yuezhi Mao, Dmitri Zuev, Alec White,
  David Stuck, Shaama M.S., Shane Yost, Joonho Lee, David Small,
  Daniel Levine, Susi Lehtola, Hugh Burton, Evgeny Epifanovsky
 -----------------------------------------------------------------------
 Exchange:     0.2000 Hartree-Fock + 0.0800 Slater + 0.7200 B88
 Correlation:  0.1900 VWN1RPA + 0.8100 LYP
 Using SG-1 standard quadrature grid
 using 12 threads for integral computing
 -------------------------------------------------------
 OpenMP Integral computing Module                
 Release: version 1.0, May 2013, Q-Chem Inc. Pittsburgh 
 -------------------------------------------------------
 -------------------------------------------------------
 OpenMP BLAS3 based DFT computing Module                
 Release: version 1.0, May 2013, Q-Chem Inc. Pittsburgh 
 -------------------------------------------------------
 A unrestricted SCF calculation will be
 performed using DIIS
 SCF converges when DIIS error is below 1.0e-06
 Alpha HF Exchange    Energy = -19.61775570886265
 Beta HF Exchange     Energy = -19.61775570886265
 DFT Correlation      Energy =  -5.20354040492574
 DFT Exchange         Energy = -155.88348266337357
 One-Electron (alpha) Energy = -4123.82201077172249
 One-Electron (beta)  Energy = -4123.82201077172249
 Total Coulomb        Energy = 2707.99384446352178
 ---------------------------------------
  Cycle       Energy         DIIS error
 ---------------------------------------
    1   -5272.6181887838      1.83e-01  
 Alpha HF Exchange    Energy = -19.72818166974027
 Beta HF Exchange     Energy = -19.72818166974027
 DFT Correlation      Energy =  -5.25178594368800
 DFT Exchange         Energy = -157.02059202776883
 One-Electron (alpha) Energy = -4133.86058485487411
 One-Electron (beta)  Energy = -4133.86058485487320
 Total Coulomb        Energy = 2736.53268192044243
    2   -5265.5627063181      1.03e-02  
 Alpha HF Exchange    Energy = -19.59285073685511
 Beta HF Exchange     Energy = -19.59285073685514
 DFT Correlation      Energy =  -5.22050992706048
 DFT Exchange         Energy = -155.96344305347475
 One-Electron (alpha) Energy = -4117.92760020097103
 One-Electron (beta)  Energy = -4117.92760020097467
 Total Coulomb        Energy = 2703.34547617214230
    3   -5265.5248559019      4.41e-03  
 Alpha HF Exchange    Energy = -19.70277489273523
 Beta HF Exchange     Energy = -19.70277489273521
 DFT Correlation      Energy =  -5.23959471227130
 DFT Exchange         Energy = -156.78663550851090
 One-Electron (alpha) Energy = -4131.72042521866388
 One-Electron (beta)  Energy = -4131.72042521866206
 Total Coulomb        Energy = 2732.00313991393068
    4   -5265.5149677475      4.07e-03  
 Alpha HF Exchange    Energy = -19.66682097225915
 Beta HF Exchange     Energy = -19.66682097225915
 DFT Correlation      Energy =  -5.23814044143997
 DFT Exchange         Energy = -156.54365313477507
 One-Electron (alpha) Energy = -4126.74300193026920
 One-Electron (beta)  Energy = -4126.74300193027011
 Total Coulomb        Energy = 2721.57216320797397
    5   -5265.6747533912      1.10e-03  
 Alpha HF Exchange    Energy = -19.65810200917199
 Beta HF Exchange     Energy = -19.65810200917197
 DFT Correlation      Energy =  -5.23433512300786
 DFT Exchange         Energy = -156.46617319989713
 One-Electron (alpha) Energy = -4126.22769547175903
 One-Electron (beta)  Energy = -4126.22769547175540
 Total Coulomb        Energy = 2720.42907203563209
    6   -5265.6885084670      1.36e-04  
 Alpha HF Exchange    Energy = -19.65766301770793
 Beta HF Exchange     Energy = -19.65766301770795
 DFT Correlation      Energy =  -5.23433879815116
 DFT Exchange         Energy = -156.46382837433288
 One-Electron (alpha) Energy = -4126.07402208036547
 One-Electron (beta)  Energy = -4126.07402208036820
 Total Coulomb        Energy = 2720.11829385147121
    7   -5265.6887207350      6.88e-05  
 Alpha HF Exchange    Energy = -19.65812270989862
 Beta HF Exchange     Energy = -19.65812270989862
 DFT Correlation      Energy =  -5.23437756930643
 DFT Exchange         Energy = -156.46711215968082
 One-Electron (alpha) Energy = -4126.15063378528339
 One-Electron (beta)  Energy = -4126.15063378528612
 Total Coulomb        Energy = 2720.27570308730810
    8   -5265.6887768499      2.00e-05  
 Alpha HF Exchange    Energy = -19.65821011318558
 Beta HF Exchange     Energy = -19.65821011318556
 DFT Correlation      Energy =  -5.23442344660395
 DFT Exchange         Energy = -156.46779048755837
 One-Electron (alpha) Energy = -4126.16357031118514
 One-Electron (beta)  Energy = -4126.16357031118241
 Total Coulomb        Energy = 2720.30247051336755
    9   -5265.6887814874      3.48e-06  
 Alpha HF Exchange    Energy = -19.65820863055270
 Beta HF Exchange     Energy = -19.65820863055274
 DFT Correlation      Energy =  -5.23442130357235
 DFT Exchange         Energy = -156.46776547529998
 One-Electron (alpha) Energy = -4126.16404412546945
 One-Electron (beta)  Energy = -4126.16404412547308
 Total Coulomb        Energy = 2720.30338790950873
   10   -5265.6887815993      1.50e-06  
 Alpha HF Exchange    Energy = -19.65820985033069
 Beta HF Exchange     Energy = -19.65820985033068
 DFT Correlation      Energy =  -5.23442178610880
 DFT Exchange         Energy = -156.46777740518760
 One-Electron (alpha) Energy = -4126.16394817940454
 One-Electron (beta)  Energy = -4126.16394817940272
 Total Coulomb        Energy = 2720.30321084699062
   11   -5265.6887816216      1.28e-07  Convergence criterion met
 ---------------------------------------
 SCF time:   CPU 43.75s  wall 4.00s 
<S^2> =         -0.000000000
 Alpha HF Exchange    Energy = -19.65820985033069
 Beta HF Exchange     Energy = -19.65820985033068
 DFT Correlation      Energy =  -5.23442178610880
 DFT Exchange         Energy = -156.46777740518760
 One-Electron (alpha) Energy = -4126.16394817940454
 One-Electron (beta)  Energy = -4126.16394817940272
 Total Coulomb        Energy = 2720.30321084699062
 Nuclear repulsion Energy = 467.35452278214319
 SCF   energy in the final basis set =    -5265.6887816216
 Total energy in the final basis set =    -5265.6887816216
 
 --------------------------------------------------------------
 
                    Orbital Energies (a.u.)
 --------------------------------------------------------------
 
 Alpha MOs
 -- Occupied --
*******-482.847 -62.525 -62.504 -56.346 -56.342 -56.342 -56.326
-56.322 -56.322 -10.285 -10.271 -10.231  -8.712  -8.690  -6.542
 -6.529  -6.529  -6.520  -6.507  -6.507  -2.636  -2.632  -2.632
 -2.621  -2.621  -2.613  -2.610  -2.610  -2.600  -2.600  -0.853
 -0.791  -0.738  -0.683  -0.629  -0.518  -0.457  -0.454  -0.442
 -0.384  -0.382  -0.332  -0.293  -0.292  -0.275  -0.275
 -- Virtual --
 -0.106  -0.012   0.070   0.101   0.101   0.125   0.143   0.168
  0.182   0.204   0.228   0.239   0.324   0.332   0.340   0.347
  0.350   0.356   0.449   0.465   0.476   0.488   0.542   0.546
  0.570   0.573   0.611   0.617   0.626   0.627   0.675   0.745
  0.752   0.781   0.791   0.824   0.833   0.845   0.874   0.892
  0.902   0.922   1.066   1.087   1.281   1.304   1.355   1.510
  1.593   1.612   1.630   1.715   1.737   1.798   1.835   1.907
  1.994   2.040   2.043   2.091   2.174   2.180   2.192   2.269
  2.274   2.385   2.444   2.524   2.589   2.606   2.691   2.759
  2.781   2.784   2.846   3.176   3.210   3.309   3.317   3.454
  3.497   4.189   4.362   4.562   4.712   4.727   4.731   4.735
  4.755   4.758   4.794   4.798   4.894   4.969   6.284   6.287
 90.258  90.342
 
 Beta MOs
 -- Occupied --
*******-482.847 -62.525 -62.504 -56.346 -56.342 -56.342 -56.326
-56.322 -56.322 -10.285 -10.271 -10.231  -8.712  -8.690  -6.542
 -6.529  -6.529  -6.520  -6.507  -6.507  -2.636  -2.632  -2.632
 -2.621  -2.621  -2.613  -2.610  -2.610  -2.600  -2.600  -0.853
 -0.791  -0.738  -0.683  -0.629  -0.518  -0.457  -0.454  -0.442
 -0.384  -0.382  -0.332  -0.293  -0.292  -0.275  -0.275
 -- Virtual --
 -0.106  -0.012   0.070   0.101   0.101   0.125   0.143   0.168
  0.182   0.204   0.228   0.239   0.324   0.332   0.340   0.347
  0.350   0.356   0.449   0.465   0.476   0.488   0.542   0.546
  0.570   0.573   0.611   0.617   0.626   0.627   0.675   0.745
  0.752   0.781   0.791   0.824   0.833   0.845   0.874   0.892
  0.902   0.922   1.066   1.087   1.281   1.304   1.355   1.510
  1.593   1.612   1.630   1.715   1.737   1.798   1.835   1.907
  1.994   2.040   2.043   2.091   2.174   2.180   2.192   2.269
  2.274   2.385   2.444   2.524   2.589   2.606   2.691   2.759
  2.781   2.784   2.846   3.176   3.210   3.309   3.317   3.454
  3.497   4.189   4.362   4.562   4.712   4.727   4.731   4.735
  4.755   4.758   4.794   4.798   4.894   4.969   6.284   6.287
 90.258  90.342
 --------------------------------------------------------------
 
          Ground-State Mulliken Net Atomic Charges

     Atom                 Charge (a.u.)    Spin (a.u.)
  --------------------------------------------------------
      1 Br                   -0.217318      -0.000000
      2 Br                   -0.084489      -0.000000
      3 C                    -0.190168       0.000000
      4 C                    -0.206965      -0.000000
      5 C                    -0.269208       0.000000
      6 H                     0.156613      -0.000000
      7 H                     0.158812       0.000000
      8 H                     0.166316      -0.000000
      9 H                     0.166716      -0.000000
     10 H                     0.159589      -0.000000
     11 H                     0.160102      -0.000000
  --------------------------------------------------------
  Sum of atomic charges =    -0.000000
  Sum of spin   charges =    -0.000000

 -----------------------------------------------------------------
                    Cartesian Multipole Moments
 -----------------------------------------------------------------
    Charge (ESU x 10^10)
                -0.0000
    Dipole Moment (Debye)
         X       1.4006      Y      -2.5678      Z       0.0152
       Tot       2.9250
    Quadrupole Moments (Debye-Ang)
        XX     -71.3880     XY       1.2503     YY     -54.6627
        XZ      -0.0127     YZ       0.0022     ZZ     -56.1249
    Octopole Moments (Debye-Ang^2)
       XXX      32.6997    XXY     -14.3514    XYY       5.8408
       YYY     -45.0786    XXZ       0.2283    XYZ      -0.0076
       YYZ       0.1581    XZZ       5.8229    YZZ     -16.7642
       ZZZ       0.4687
    Hexadecapole Moments (Debye-Ang^3)
      XXXX   -2341.0838   XXXY      43.9241   XXYY    -396.7503
      XYYY      38.7363   YYYY    -200.4959   XXXZ      -0.4385
      XXYZ      -0.1761   XYYZ      -0.1061   YYYZ      -0.0949
      XXZZ    -404.0275   XYZZ      12.9648   YYZZ     -44.6097
      XZZZ      -0.3215   YZZZ       0.4141   ZZZZ     -83.9079
 -----------------------------------------------------------------
 Calculating analytic gradient of the SCF energy
 Gradient of SCF Energy
            1           2           3           4           5           6
    1  -0.0405778   0.0009416   0.0082098   0.0205305   0.0000224  -0.0003337
    2   0.0276528   0.0000984  -0.0053490  -0.0151468   0.0023093   0.0007275
    3  -0.0001481  -0.0000978  -0.0001240  -0.0000549   0.0000096  -0.0007836
            7           8           9          10          11
    1  -0.0003077   0.0059036   0.0058761  -0.0002007  -0.0000640
    2   0.0008767  -0.0053057  -0.0051170  -0.0004480  -0.0002981
    3   0.0010127   0.0026124  -0.0025355   0.0005107  -0.0004015
 Max gradient component =       4.058E-02
 RMS gradient           =       1.001E-02
 Gradient time:  CPU 15.54 s  wall 1.37 s
 Geometry Optimization Parameters
   NAtoms,    NIC,     NZ,  NCons,   NDum,   NFix, NCnnct, MaxDiis
       11      68       0       1       0       0       0       0

 Cartesian Hessian Update
 Hessian Updated using BFGS Update


** CONSTRAINED OPTIMIZATION IN DELOCALIZED INTERNAL COORDINATES **
   Searching for a Minimum

   Optimization Cycle:   4

                       Coordinates (Angstroms)
     ATOM                X               Y               Z
      1  Br       -3.1795508856    0.6655183299   -0.0081039326
      2  Br        2.9139600050    0.5057599683   -0.0071835563
      3  C         0.0238563342    0.2287823100    0.0301972093
      4  C        -1.1926234263   -0.6731246674   -0.0039492843
      5  C         1.2929593612   -0.6266919639   -0.0039075335
      6  H         0.0129644138    0.8444811255    0.9325548190
      7  H         0.0119502674    0.9120063421   -0.8221279058
      8  H        -1.3026362378   -1.2680011460   -0.9090666551
      9  H        -1.3288766695   -1.3021659705    0.8740895379
     10  H         1.3607662988   -1.2377664854   -0.9042767296
     11  H         1.3871305389   -1.2700978426    0.8711740309
   Point Group: c1    Number of degrees of freedom:    27


   Energy is  -5265.688781622

              Constraints and their Current Values
                                        Value     Constraint
   Distance(Angs):        1   4             2.395801     3.400000
 Hessian Updated using BFGS Update
**WARNING** Constraint Gradient Reduced for constraint   1

   Using Lagrange Multiplier Algorithm


 28 Hessian modes will be used to form the next step
  Hessian Eigenvalues:
    -0.978259    0.095536    0.095542    0.147422    0.166450    0.175870
     0.177324    0.178398    0.178451    0.215432    0.277012    0.338730
     0.339705    0.339709    0.341090    0.371018    0.465620    0.473923
     0.478657    0.643994    0.651465    0.720328    0.721138    0.730496
     0.730736    0.730877    0.731304    1.032436

 Minimum Search - Taking P-RFO Step
 Searching for Lamda that Maximizes Along the Constraint modes Only
 Value Taken    Lamda =   0.04106474
 Searching for Lamda that Minimizes Along All other modes
 Value Taken    Lamda =  -0.04948713
 Calculated Step too Large.  Step scaled by  0.928051
 Step Taken.  Stepsize is  0.300000

                             Maximum     Tolerance    Cnvgd?
         Gradient            0.300000       0.000300      NO
         Displacement        0.265935       0.001200      NO
         Energy change      0.011634       0.000001      NO


 New Cartesian Coordinates Obtained by Inverse Iteration

 Displacement from previous Coordinates is:  0.215986
 ----------------------------------------------------------------
             Standard Nuclear Orientation (Angstroms)
    I     Atom           X                Y                Z
 ----------------------------------------------------------------
    1      Br     -3.2657626249     0.7174707397    -0.0062057257
    2      Br      2.9226289911     0.5133248463    -0.0051759192
    3      C       0.0303980429     0.2237011212     0.0293872144
    4      C      -1.1593130889    -0.6956247859    -0.0040032683
    5      C       1.3048116270    -0.6293068705    -0.0039887535
    6      H       0.0146042767     0.8364532486     0.9325888834
    7      H       0.0130953595     0.9029619281    -0.8248551800
    8      H      -1.3094386013    -1.2734102341    -0.9127355556
    9      H      -1.3346896595    -1.3076696591     0.8773080817
   10      H       1.3793214929    -1.2386621055    -0.9044038397
   11      H       1.4042441845    -1.2705382288     0.8714840627
 ----------------------------------------------------------------
 Nuclear Repulsion Energy =   460.7359871169 hartrees
 There are       47 alpha and       47 beta electrons

                       Distance Matrix (Angstroms)
             Br(  1)   Br(  2)   C (  3)   C (  4)   C (  5)   H (  6)
   Br(  2)  6.191758
   C (  3)  3.333129  2.906902
   C (  4)  2.536528  4.257207  1.503891
   C (  5)  4.764868  1.980642  1.533906  2.465017
   H (  6)  3.414132  3.072527  1.091553  2.145355  2.165702
   H (  7)  3.384598  3.047799  1.091524  2.145651  2.165687  1.758703
   H (  8)  2.934724  4.682572  2.219031  1.087276  2.841653  3.099974
   H (  9)  2.934422  4.713763  2.219804  1.087228  2.864232  2.533952
   H ( 10)  5.119572  2.501973  2.197741  2.747777  1.089777  3.089191
   H ( 11)  5.150872  2.501238  2.197574  2.769265  1.089733  2.524727
             H (  7)   H (  8)   H (  9)   H ( 10)
   H (  8)  2.548218
   H (  9)  3.098512  1.790550
   H ( 10)  2.541546  2.688998  3.247324
   H ( 11)  3.088198  3.247695  2.739192  1.776349
 
 Applying Cartesian multipole field
    Component          Value
    ---------          -----
     (2,0,0)        1.00000E-11
     (0,2,0)        2.00000E-10
     (0,0,2)       -3.00000E-10
 Nucleus-field energy     =     0.0000000490 hartrees
 Requested basis set is 6-31G(d,p)
 There are 46 shells and 145 basis functions
 A cutoff of  1.0D-14 yielded    946 shell pairs
 There are      9110 function pairs
 Smallest overlap matrix eigenvalue = 7.23E-04
 Guess from superposition of atomic densities
 Warning:  Energy on first SCF cycle will be non-variational
 SAD guess density has 93.945746 electrons

 -----------------------------------------------------------------------
  General SCF calculation program by
  Eric Jon Sundstrom, Paul Horn, Yuezhi Mao, Dmitri Zuev, Alec White,
  David Stuck, Shaama M.S., Shane Yost, Joonho Lee, David Small,
  Daniel Levine, Susi Lehtola, Hugh Burton, Evgeny Epifanovsky
 -----------------------------------------------------------------------
 Exchange:     0.2000 Hartree-Fock + 0.0800 Slater + 0.7200 B88
 Correlation:  0.1900 VWN1RPA + 0.8100 LYP
 Using SG-1 standard quadrature grid
 using 12 threads for integral computing
 -------------------------------------------------------
 OpenMP Integral computing Module                
 Release: version 1.0, May 2013, Q-Chem Inc. Pittsburgh 
 -------------------------------------------------------
 -------------------------------------------------------
 OpenMP BLAS3 based DFT computing Module                
 Release: version 1.0, May 2013, Q-Chem Inc. Pittsburgh 
 -------------------------------------------------------
 A unrestricted SCF calculation will be
 performed using DIIS
 SCF converges when DIIS error is below 1.0e-06
 Alpha HF Exchange    Energy = -19.61467453942882
 Beta HF Exchange     Energy = -19.61467453942882
 DFT Correlation      Energy =  -5.20171379111881
 DFT Exchange         Energy = -155.87782866829741
 One-Electron (alpha) Energy = -4117.20535199345977
 One-Electron (beta)  Energy = -4117.20535199345977
 Total Coulomb        Energy = 2701.40606699239152
 ---------------------------------------
  Cycle       Energy         DIIS error
 ---------------------------------------
    1   -5272.5775413670      1.83e-01  
 Alpha HF Exchange    Energy = -19.72865615328854
 Beta HF Exchange     Energy = -19.72865615328856
 DFT Correlation      Energy =  -5.25000915652644
 DFT Exchange         Energy = -157.02217055602529
 One-Electron (alpha) Energy = -4127.57052943082999
 One-Electron (beta)  Energy = -4127.57052943083181
 Total Coulomb        Energy = 2730.60015440556163
    2   -5265.5344093094      1.04e-02  
 Alpha HF Exchange    Energy = -19.59056913434753
 Beta HF Exchange     Energy = -19.59056913434751
 DFT Correlation      Energy =  -5.21949173900700
 DFT Exchange         Energy = -155.95071350406937
 One-Electron (alpha) Energy = -4110.30228877244372
 One-Electron (beta)  Energy = -4110.30228877244281
 Total Coulomb        Energy = 2694.84105330272587
[...]
   10      H       1.5279159802    -1.2410473500    -0.9083125584
   11      H       1.5417174296    -1.2774062339     0.8748011972
 ----------------------------------------------------------------
 Nuclear Repulsion Energy =   427.7479761273 hartrees
 There are       47 alpha and       47 beta electrons

                       Distance Matrix (Angstroms)
             Br(  1)   Br(  2)   C (  3)   C (  4)   C (  5)   H (  6)
   Br(  2)  6.781787
   C (  3)  4.012043  2.899694
   C (  4)  3.400000  4.211062  1.470648
   C (  5)  5.521072  1.966355  1.558463  2.444639
   H (  6)  3.990445  3.045198  1.092007  2.125045  2.171647
   H (  7)  3.967212  3.032119  1.092261  2.124052  2.170536  1.783645
   H (  8)  3.524922  4.787473  2.233897  1.085333  3.003377  3.087717
   H (  9)  3.521437  4.808663  2.235045  1.085204  3.021073  2.492928
   H ( 10)  5.902205  2.500106  2.210650  2.727025  1.089207  3.090018
   H ( 11)  5.922122  2.500417  2.210073  2.737572  1.089213  2.519014
             H (  7)   H (  8)   H (  9)   H ( 10)
   H (  8)  2.496775
   H (  9)  3.083630  1.848784
   H ( 10)  2.525893  2.890044  3.430480
   H ( 11)  3.088587  3.424562  2.924017  1.783538
 
 Applying Cartesian multipole field
    Component          Value
    ---------          -----
     (2,0,0)        1.00000E-11
     (0,2,0)        2.00000E-10
     (0,0,2)       -3.00000E-10
 Nucleus-field energy     =     0.0000000728 hartrees
 Requested basis set is 6-31G(d,p)
 There are 46 shells and 145 basis functions
 A cutoff of  1.0D-14 yielded    925 shell pairs
 There are      8825 function pairs
 Smallest overlap matrix eigenvalue = 7.23E-04
 Guess from superposition of atomic densities
 Warning:  Energy on first SCF cycle will be non-variational
 SAD guess density has 93.945746 electrons

 -----------------------------------------------------------------------
  General SCF calculation program by
  Eric Jon Sundstrom, Paul Horn, Yuezhi Mao, Dmitri Zuev, Alec White,
  David Stuck, Shaama M.S., Shane Yost, Joonho Lee, David Small,
  Daniel Levine, Susi Lehtola, Hugh Burton, Evgeny Epifanovsky
 -----------------------------------------------------------------------
 Exchange:     0.2000 Hartree-Fock + 0.0800 Slater + 0.7200 B88
 Correlation:  0.1900 VWN1RPA + 0.8100 LYP
 Using SG-1 standard quadrature grid
 using 12 threads for integral computing
 -------------------------------------------------------
 OpenMP Integral computing Module                
 Release: version 1.0, May 2013, Q-Chem Inc. Pittsburgh 
 -------------------------------------------------------
 -------------------------------------------------------
 OpenMP BLAS3 based DFT computing Module                
 Release: version 1.0, May 2013, Q-Chem Inc. Pittsburgh 
 -------------------------------------------------------
 A unrestricted SCF calculation will be
 performed using DIIS
 SCF converges when DIIS error is below 1.0e-06
 Alpha HF Exchange    Energy = -19.60840516438803
 Beta HF Exchange     Energy = -19.60840516438803
 DFT Correlation      Energy =  -5.19513822816468
 DFT Exchange         Energy = -155.86791024369069
 One-Electron (alpha) Energy = -4084.22594521920701
 One-Electron (beta)  Energy = -4084.22594521920701
 Total Coulomb        Energy = 2668.52283974108423
 ---------------------------------------
  Cycle       Energy         DIIS error
 ---------------------------------------
    1   -5272.4609332979      1.83e-01  
 Alpha HF Exchange    Energy = -19.73577213786514
 Beta HF Exchange     Energy = -19.73577213786513
 DFT Correlation      Energy =  -5.24467039407178
 DFT Exchange         Energy = -157.05446521665522
 One-Electron (alpha) Energy = -4095.96959406775159
 One-Electron (beta)  Energy = -4095.96959406775022
 Total Coulomb        Energy = 2700.57685641642638
    2   -5265.3850354054      1.05e-02  
 Alpha HF Exchange    Energy = -19.58887765300657
 Beta HF Exchange     Energy = -19.58887765300652
 DFT Correlation      Energy =  -5.21732860807135
 DFT Exchange         Energy = -155.95048796391137
 One-Electron (alpha) Energy = -4073.05029463781557
 One-Electron (beta)  Energy = -4073.05029463780829
 Total Coulomb        Energy = 2654.51427116985997
    3   -5264.1839137837      9.34e-03  
 Alpha HF Exchange    Energy = -19.68830793148296
 Beta HF Exchange     Energy = -19.68830793148298
 DFT Correlation      Energy =  -5.22394468933563
 DFT Exchange         Energy = -156.64340768218347
 One-Electron (alpha) Energy = -4092.24359061573659
 One-Electron (beta)  Energy = -4092.24359061573568
 Total Coulomb        Energy = 2692.91171263822025
    4   -5265.0714606276      6.15e-03  
 Alpha HF Exchange    Energy = -19.67515239504944
 Beta HF Exchange     Energy = -19.67515239504940
 DFT Correlation      Energy =  -5.23057315484289
 DFT Exchange         Energy = -156.58302687214581
 One-Electron (alpha) Energy = -4089.39428811671996
 One-Electron (beta)  Energy = -4089.39428811671451
 Total Coulomb        Energy = 2686.66211462418551
    5   -5265.5423902263      1.61e-03  
 Alpha HF Exchange    Energy = -19.64552415817655
 Beta HF Exchange     Energy = -19.64552415817656
 DFT Correlation      Energy =  -5.22624956724559
 DFT Exchange         Energy = -156.39352143248590
 One-Electron (alpha) Energy = -4082.82181523367217
 One-Electron (beta)  Energy = -4082.82181523367308
 Total Coulomb        Energy = 2673.51700579295266
    6   -5265.2894677904      3.99e-03  
 Alpha HF Exchange    Energy = -19.64477061032245
 Beta HF Exchange     Energy = -19.64477061032244
 DFT Correlation      Energy =  -5.22444994592453
 DFT Exchange         Energy = -156.39192060077244
 One-Electron (alpha) Energy = -4085.96725232055360
 One-Electron (beta)  Energy = -4085.96725232055223
 Total Coulomb        Energy = 2679.47471754477374
    7   -5265.6177226636      4.16e-04  
 Alpha HF Exchange    Energy = -19.64846228738374
 Beta HF Exchange     Energy = -19.64846228738372
 DFT Correlation      Energy =  -5.22703695313802
 DFT Exchange         Energy = -156.43648227674146
 One-Electron (alpha) Energy = -4085.84279008546036
 One-Electron (beta)  Energy = -4085.84279008545900
 Total Coulomb        Energy = 2679.29600983293903
    8   -5265.6020379425      9.73e-04  
 Alpha HF Exchange    Energy = -19.64940614864143
 Beta HF Exchange     Energy = -19.64940614864144
 DFT Correlation      Energy =  -5.22673281442982
 DFT Exchange         Energy = -156.43846351286876
 One-Electron (alpha) Energy = -4086.19651271186331
 One-Electron (beta)  Energy = -4086.19651271186285
 Total Coulomb        Energy = 2679.99527653176619
    9   -5265.6137813165      5.61e-04  
 Alpha HF Exchange    Energy = -19.64950076598629
 Beta HF Exchange     Energy = -19.64950076598626
 DFT Correlation      Energy =  -5.22660584068084
 DFT Exchange         Energy = -156.43651628469036
 One-Electron (alpha) Energy = -4086.29101991650941
 One-Electron (beta)  Energy = -4086.29101991650668
 Total Coulomb        Energy = 2680.17920008892133
   10   -5265.6169872014      3.72e-04  
 Alpha HF Exchange    Energy = -19.65079060499569
 Beta HF Exchange     Energy = -19.65079060499568
 DFT Correlation      Energy =  -5.22644471809684
 DFT Exchange         Energy = -156.44035141295768
 One-Electron (alpha) Energy = -4086.58803187698504
 One-Electron (beta)  Energy = -4086.58803187698504
 Total Coulomb        Energy = 2680.77686657540926
   11   -5265.6195983195      3.03e-05  
 Alpha HF Exchange    Energy = -19.65105423632160
 Beta HF Exchange     Energy = -19.65105423632157
 DFT Correlation      Energy =  -5.22647618467767
 DFT Exchange         Energy = -156.44197242952933
 One-Electron (alpha) Energy = -4086.62848096066818
 One-Electron (beta)  Energy = -4086.62848096066546
 Total Coulomb        Energy = 2680.85993774779081
   12   -5265.6196050603      1.13e-05  
 Alpha HF Exchange    Energy = -19.65100505290556
 Beta HF Exchange     Energy = -19.65100505290556
 DFT Correlation      Energy =  -5.22648533995164
 DFT Exchange         Energy = -156.44180664381918
 One-Electron (alpha) Energy = -4086.61916308192349
 One-Electron (beta)  Energy = -4086.61916308192349
 Total Coulomb        Energy = 2680.84104479553571
   13   -5265.6196072578      9.05e-07  Convergence criterion met
 ---------------------------------------
 SCF time:   CPU 48.20s  wall 4.00s 
<S^2> =         -0.000000000
 Alpha HF Exchange    Energy = -19.65100505290556
 Beta HF Exchange     Energy = -19.65100505290556
 DFT Correlation      Energy =  -5.22648533995164
 DFT Exchange         Energy = -156.44180664381918
 One-Electron (alpha) Energy = -4086.61916308192349
 One-Electron (beta)  Energy = -4086.61916308192349
 Total Coulomb        Energy = 2680.84104479553571
 Nuclear repulsion Energy = 427.74797620008650
 SCF   energy in the final basis set =    -5265.6196072578
 Total energy in the final basis set =    -5265.6196072578
 
 --------------------------------------------------------------
 
                    Orbital Energies (a.u.)
 --------------------------------------------------------------
 
 Alpha MOs
 -- Occupied --
*******-482.809 -62.542 -62.466 -56.363 -56.359 -56.359 -56.287
-56.283 -56.283 -10.317 -10.295 -10.258  -8.729  -8.651  -6.560
 -6.546  -6.546  -6.480  -6.469  -6.469  -2.653  -2.649  -2.649
 -2.638  -2.638  -2.573  -2.570  -2.570  -2.562  -2.562  -0.877
 -0.812  -0.711  -0.692  -0.650  -0.548  -0.492  -0.484  -0.458
 -0.411  -0.406  -0.310  -0.308  -0.258  -0.241  -0.241
 -- Virtual --
 -0.180  -0.029   0.054   0.083   0.083   0.109   0.116   0.145
  0.172   0.202   0.219   0.229   0.311   0.321   0.326   0.358
  0.363   0.366   0.444   0.445   0.456   0.501   0.520   0.556
  0.578   0.583   0.588   0.638   0.646   0.661   0.662   0.665
  0.695   0.741   0.767   0.771   0.785   0.797   0.817   0.838
  0.870   0.891   0.968   1.121   1.183   1.254   1.365   1.446
  1.452   1.598   1.630   1.698   1.749   1.782   1.815   1.872
  1.938   1.984   2.014   2.059   2.124   2.156   2.191   2.288
  2.294   2.385   2.417   2.453   2.547   2.548   2.637   2.713
  2.730   2.799   2.823   3.150   3.202   3.323   3.331   3.389
  3.490   4.158   4.315   4.525   4.695   4.711   4.756   4.757
  4.767   4.767   4.768   4.780   4.780   4.952   6.268   6.311
 90.248  90.325
 
 Beta MOs
 -- Occupied --
*******-482.809 -62.542 -62.466 -56.363 -56.359 -56.359 -56.287
-56.283 -56.283 -10.317 -10.295 -10.258  -8.729  -8.651  -6.560
 -6.546  -6.546  -6.480  -6.469  -6.469  -2.653  -2.649  -2.649
 -2.638  -2.638  -2.573  -2.570  -2.570  -2.562  -2.562  -0.877
 -0.812  -0.711  -0.692  -0.650  -0.548  -0.492  -0.484  -0.458
 -0.411  -0.406  -0.310  -0.308  -0.258  -0.241  -0.241
 -- Virtual --
 -0.180  -0.029   0.054   0.083   0.083   0.109   0.116   0.145
  0.172   0.202   0.219   0.229   0.311   0.321   0.326   0.358
  0.363   0.366   0.444   0.445   0.456   0.501   0.520   0.556
  0.578   0.583   0.588   0.638   0.646   0.661   0.662   0.665
  0.695   0.741   0.767   0.771   0.785   0.797   0.817   0.838
  0.870   0.891   0.968   1.121   1.183   1.254   1.365   1.446
  1.452   1.598   1.630   1.698   1.749   1.782   1.815   1.872
  1.938   1.984   2.014   2.059   2.124   2.156   2.191   2.288
  2.294   2.385   2.417   2.453   2.547   2.548   2.637   2.713
  2.730   2.799   2.823   3.150   3.202   3.323   3.331   3.389
  3.490   4.158   4.315   4.525   4.695   4.711   4.756   4.757
  4.767   4.767   4.768   4.780   4.780   4.952   6.268   6.311
 90.248  90.325
 --------------------------------------------------------------
 
          Ground-State Mulliken Net Atomic Charges

     Atom                 Charge (a.u.)    Spin (a.u.)
  --------------------------------------------------------
      1 Br                   -0.433389       0.000000
      2 Br                   -0.053452       0.000000
      3 C                    -0.223297       0.000000
      4 C                    -0.104726      -0.000000
      5 C                    -0.278464       0.000000
      6 H                     0.181221      -0.000000
      7 H                     0.183283      -0.000000
      8 H                     0.192968      -0.000000
      9 H                     0.193353      -0.000000
     10 H                     0.171112      -0.000000
     11 H                     0.171391      -0.000000
  --------------------------------------------------------
  Sum of atomic charges =     0.000000
  Sum of spin   charges =    -0.000000

 -----------------------------------------------------------------
                    Cartesian Multipole Moments
 -----------------------------------------------------------------
    Charge (ESU x 10^10)
                -0.0000
    Dipole Moment (Debye)
         X       5.1317      Y      -4.2739      Z      -0.0229
       Tot       6.6784
    Quadrupole Moments (Debye-Ang)
        XX     -85.5513     XY       6.9992     YY     -55.7658
        XZ       0.0280     YZ      -0.0093     ZZ     -55.7698
    Octopole Moments (Debye-Ang^2)
       XXX     140.2409    XXY     -44.2206    XYY      24.4900
       YYY     -73.0885    XXZ      -0.5059    XYZ       0.0651
       YYZ      -0.3453    XZZ      18.2298    YZZ     -26.1088
       ZZZ      -1.2337
    Hexadecapole Moments (Debye-Ang^3)
      XXXX   -3190.5707   XXXY     223.9394   XXYY    -525.0461
      XYYY     151.1492   YYYY    -302.1813   XXXZ       0.2233
      XXYZ      -0.2746   XYYZ      -0.0334   YYYZ      -1.1972
      XXZZ    -502.5909   XYZZ      49.0424   YYZZ     -61.2468
      XZZZ      -0.2760   YZZZ      -0.7498   ZZZZ     -83.6488
 -----------------------------------------------------------------
 Calculating analytic gradient of the SCF energy
 Gradient of SCF Energy
            1           2           3           4           5           6
    1  -0.0220759   0.0000296  -0.0001787   0.0220818   0.0000182   0.0000657
    2   0.0151001  -0.0000255   0.0002329  -0.0152712  -0.0000170  -0.0000835
    3   0.0000560  -0.0000090  -0.0000039  -0.0001160  -0.0000459   0.0000549
            7           8           9          10          11
    1   0.0000777   0.0000040  -0.0000182  -0.0000187   0.0000144
    2   0.0000237   0.0000322   0.0000536  -0.0000590   0.0000138
    3   0.0000145  -0.0000200   0.0000161   0.0000328   0.0000206
 Max gradient component =       2.208E-02
 RMS gradient           =       6.597E-03
 Gradient time:  CPU 14.20 s  wall 1.26 s
 Geometry Optimization Parameters
   NAtoms,    NIC,     NZ,  NCons,   NDum,   NFix, NCnnct, MaxDiis
       11      68       0       1       0       0       0       0

 Cartesian Hessian Update
 Hessian Updated using BFGS Update


** CONSTRAINED OPTIMIZATION IN DELOCALIZED INTERNAL COORDINATES **
   Searching for a Minimum

   Optimization Cycle:  15

                       Coordinates (Angstroms)
     ATOM                X               Y               Z
      1  Br       -3.8273825015    1.0656014747    0.0061154992
      2  Br        2.9388998081    0.6072916498    0.0100010580
      3  C         0.0768335881    0.1418742685    0.0238134858
      4  C        -1.0142092027   -0.8438317852   -0.0047167953
      5  C         1.4222634761   -0.6441831033   -0.0033469134
      6  H         0.0404377772    0.7445023409    0.9337552020
      7  H         0.0372440419    0.7972181210   -0.8491078692
      8  H        -1.3618113067   -1.2687168738   -0.9409825358
      9  H        -1.3820090903   -1.3026025088    0.9073802299
     10  H         1.5279159802   -1.2410473500   -0.9083125584
     11  H         1.5417174296   -1.2774062339    0.8748011972
   Point Group: c1    Number of degrees of freedom:    27


   Energy is  -5265.619607258

              Constraints and their Current Values
                                        Value     Constraint
   Distance(Angs):        1   4             3.400000     3.400000
 Hessian Updated using BFGS Update

 26 Hessian modes will be used to form the next step
  Hessian Eigenvalues:
     0.023795    0.069832    0.095550    0.142485    0.147421    0.174539
     0.178279    0.178423    0.205640    0.276999    0.307827    0.337756
     0.339709    0.340770    0.367327    0.395730    0.453664    0.483276
     0.629258    0.662082    0.720356    0.721731    0.730367    0.730658
     0.730818    0.732263

 Minimum Search - Taking Simple RFO Step
 Searching for Lamda that Minimizes Along All modes
 Value Taken    Lamda =   0.00000000
 Step Taken.  Stepsize is  0.002482

                             Maximum     Tolerance    Cnvgd?
         Gradient           0.000145      0.000300     YES
         Displacement       0.001186      0.001200     YES
         Energy change     -0.000002      0.000001      NO


                       Distance Matrix (Angstroms)
             Br(  1)   Br(  2)   C (  3)   C (  4)   C (  5)   H (  6)
   Br(  2)  6.781787
   C (  3)  4.012043  2.899694
   C (  4)  3.400000  4.211062  1.470648
   C (  5)  5.521072  1.966355  1.558463  2.444639
   H (  6)  3.990445  3.045198  1.092007  2.125045  2.171647
   H (  7)  3.967212  3.032119  1.092261  2.124052  2.170536  1.783645
   H (  8)  3.524922  4.787473  2.233897  1.085333  3.003377  3.087717
   H (  9)  3.521437  4.808663  2.235045  1.085204  3.021073  2.492928
   H ( 10)  5.902205  2.500106  2.210650  2.727025  1.089207  3.090018
   H ( 11)  5.922122  2.500417  2.210073  2.737572  1.089213  2.519014
             H (  7)   H (  8)   H (  9)   H ( 10)
   H (  8)  2.496775
   H (  9)  3.083630  1.848784
   H ( 10)  2.525893  2.890044  3.430480
   H ( 11)  3.088587  3.424562  2.924017  1.783538
 
 Final energy is   -5265.61960725781     


 ******************************
 **  OPTIMIZATION CONVERGED  **
 ******************************

                       Coordinates (Angstroms)
     ATOM                X               Y               Z
      1  Br       -3.8273825015    1.0656014747    0.0061154992
      2  Br        2.9388998081    0.6072916498    0.0100010580
      3  C         0.0768335881    0.1418742685    0.0238134858
      4  C        -1.0142092027   -0.8438317852   -0.0047167953
      5  C         1.4222634761   -0.6441831033   -0.0033469134
      6  H         0.0404377772    0.7445023409    0.9337552020
      7  H         0.0372440419    0.7972181210   -0.8491078692
      8  H        -1.3618113067   -1.2687168738   -0.9409825358
      9  H        -1.3820090903   -1.3026025088    0.9073802299
     10  H         1.5279159802   -1.2410473500   -0.9083125584
     11  H         1.5417174296   -1.2774062339    0.8748011972

Z-matrix Print:
$molecule
0 1
Br
C  1 1.966355
H  2 1.089207 1 106.235363
H  2 1.089213 1 106.256715 3 117.031165 0
C  2 1.558463 1 110.165561 3 -121.506120 0
H  5 1.092007 2 108.762098 1 -60.175234 0
H  5 1.092261 2 108.662019 1 58.944322 0
C  5 1.470648 2 107.581870 1 179.298391 0
H  8 1.085204 5 121.230612 2 85.595332 0
H  8 1.085333 5 121.113062 2 -83.521821 0
Br 8 3.400000 5 103.730726 2 -179.059520 0
$end

PES scan, value:    3.4000 energy: -5265.6196072578
------- Summary of potential scan: ------ 
    3.4000     -5265.6196072578
----------------------------------------- 
Archival summary:
1\1\hpc0242\JobtypUnspecified\ProcedureUnspecified\6-31G**\r236\knomura\ThuMar1403:33:082019ThuMar1403:33:082019\0\\#,JobtypUnspecified,ProcedureUnspecified,6-31G**,\\0,1\Br\C,1,1.96636\H,2,1.08921,1,106.235\H,2,1.08921,1,106.257,3,117.031,0\C,2,1.55846,1,110.166,3,-121.506,0\H,5,1.09201,2,108.762,1,-60.1752,0\H,5,1.09226,2,108.662,1,58.9443,0\C,5,1.47065,2,107.582,1,179.298,0\H,8,1.0852,5,121.231,2,85.5953,0\H,8,1.08533,5,121.113,2,-83.5218,0\Br,8,3.4,5,103.731,2,-179.06,0\\\@

 Total job time:  83.26s(wall), 969.67s(cpu) 
 Thu Mar 14 03:33:08 2019

        *************************************************************
        *                                                           *
        *  Thank you very much for using Q-Chem.  Have a nice day.  *
        *                                                           *
        *************************************************************


