
Running Job 1 of 1 halogens/Bromine/04/Br_1_4.xyz.data/inputs/bond_triplet_5.0.in
qchem halogens/Bromine/04/Br_1_4.xyz.data/inputs/bond_triplet_5.0.in_21479.0 /staging/scratch/2868759/qchem21479/ 1
/usr/usc/qchem/5.1.1/exe/qcprog.exe_s halogens/Bromine/04/Br_1_4.xyz.data/inputs/bond_triplet_5.0.in_21479.0 /staging/scratch/2868759/qchem21479/
Check license passed

                  Welcome to Q-Chem
     A Quantum Leap Into The Future Of Chemistry


 Q-Chem 5.1, Q-Chem, Inc., Pleasanton, CA (2018)

 Yihan Shao,  Zhengting Gan,  E. Epifanovsky,  A. T. B. Gilbert,  M. Wormit,  
 J. Kussmann,  A. W. Lange,  A. Behn,  Jia Deng,  Xintian Feng,  D. Ghosh,  
 M. Goldey,  P. R. Horn,  L. D. Jacobson,  I. Kaliman,  T. Kus,  A. Landau,  
 Jie Liu,  E. I. Proynov,  R. M. Richard,  R. P. Steele,  E. J. Sundstrom,  
 H. L. Woodcock III,  P. M. Zimmerman,  D. Zuev,  B. Albrecht,  E. Alguire,  
 S. A. Baeppler,  D. Barton,  Z. Benda,  Y. A. Bernard,  E. J. Berquist,  
 K. B. Bravaya,  H. Burton,  D. Casanova,  Chun-Min Chang,  Yunqing Chen,  
 A. Chien,  K. D. Closser,  M. P. Coons,  S. Coriani,  S. Dasgupta,  
 A. L. Dempwolff,  M. Diedenhofen,  Hainam Do,  R. G. Edgar,  Po-Tung Fang,  
 S. Faraji,  S. Fatehi,  Qingguo Feng,  K. D. Fenk,  J. Fosso-Tande,  
 Qinghui Ge,  A. Ghysels,  G. Gidofalvi,  J. Gomes,  J. Gonthier,  A. Gunina,  
 D. Hait,  M. W. D. Hanson-Heine,  P. H. P. Harbach,  A. W. Hauser,  
 J. E. Herr,  E. G. Hohenstein,  Z. C. Holden,  Kerwin Hui,  B. C. Huynh,  
 T.-C. Jagau,  Hyunjun Ji,  B. Kaduk,  K. Khistyaev,  Jaehoon Kim,  
 P. Klunzinger,  K. Koh,  D. Kosenkov,  L. Koulias,  T. Kowalczyk,  
 C. M. Krauter,  A. Kunitsa,  Ka Un Lao,  A. Laurent,  K. V. Lawler,  
 Joonho Lee,  D. Lefrancois,  S. Lehtola,  D. S. Levine,  Yi-Pei Li,  
 You-Sheng Lin,  Fenglai Liu,  E. Livshits,  A. Luenser,  P. Manohar,  
 E. Mansoor,  S. F. Manzer,  Shan-Ping Mao,  Yuezhi Mao,  N. Mardirossian,  
 A. V. Marenich,  T. Markovich,  L. A. Martinez-Martinez,  S. A. Maurer,  
 N. J. Mayhall,  S. C. McKenzie,  J.-M. Mewes,  A. F. Morrison,  
 J. W. Mullinax,  K. Nanda,  T. S. Nguyen-Beck,  R. Olivares-Amaya,  
 J. A. Parkhill,  T. M. Perrine,  F. Plasser,  P. Pokhilko,  S. Prager,  
 A. Prociuk,  E. Ramos,  D. R. Rehn,  F. Rob,  M. Schneider,  N. Sergueev,  
 S. M. Sharada,  S. Sharma,  D. W. Small,  T. Stauch,  T. Stein,  
 Yu-Chuan Su,  A. J. W. Thom,  A. Tkatchenko,  T. Tsuchimochi,  N. M. Tubman,  
 L. Vogt,  M. L. Vidal,  O. Vydrov,  M. A. Watson,  J. Wenzel,  
 M. de Wergifosse,  T. A. Wesolowski,  A. White,  J. Witte,  A. Yamada,  
 Jun Yang,  K. Yao,  S. Yeganeh,  S. R. Yost,  Zhi-Qiang You,  A. Zech,  
 Igor Ying Zhang,  Xing Zhang,  Yan Zhao,  Ying Zhu,  B. R. Brooks,  
 G. K. L. Chan,  C. J. Cramer,  M. S. Gordon,  W. J. Hehre,  A. Klamt,  
 M. W. Schmidt,  C. D. Sherrill,  D. G. Truhlar,  A. Aspuru-Guzik,  R. Baer,  
 A. T. Bell,  N. A. Besley,  Jeng-Da Chai,  A. E. DePrince, III,  
 R. A. DiStasio Jr.,  A. Dreuw,  B. D. Dunietz,  T. R. Furlani,  
 Chao-Ping Hsu,  Yousung Jung,  Jing Kong,  D. S. Lambrecht,  WanZhen Liang,  
 C. Ochsenfeld,  V. A. Rassolov,  L. V. Slipchenko,  J. E. Subotnik,  
 T. Van Voorhis,  J. M. Herbert,  A. I. Krylov,  P. M. W. Gill,  M. Head-Gordon

 Contributors to earlier versions of Q-Chem not listed above: 
 R. D. Adamson,  B. Austin,  J. Baker,  G. J. O. Beran,  K. Brandhorst,  
 S. T. Brown,  E. F. C. Byrd,  A. K. Chakraborty,  C.-L. Cheng,  
 Siu Hung Chien,  D. M. Chipman,  D. L. Crittenden,  H. Dachsel,  
 R. J. Doerksen,  A. D. Dutoi,  L. Fusti-Molnar,  W. A. Goddard III,  
 A. Golubeva-Zadorozhnaya,  S. R. Gwaltney,  G. Hawkins,  A. Heyden,  
 S. Hirata,  G. Kedziora,  F. J. Keil,  C. Kelley,  Jihan Kim,  R. A. King,  
 R. Z. Khaliullin,  P. P. Korambath,  W. Kurlancheek,  A. M. Lee,  M. S. Lee,  
 S. V. Levchenko,  Ching Yeh Lin,  D. Liotard,  R. C. Lochan,  I. Lotan,  
 P. E. Maslen,  N. Nair,  D. P. O'Neill,  D. Neuhauser,  E. Neuscamman,  
 C. M. Oana,  R. Olson,  B. Peters,  R. Peverati,  P. A. Pieniazek,  
 Y. M. Rhee,  J. Ritchie,  M. A. Rohrdanz,  E. Rosta,  N. J. Russ,  
 H. F. Schaefer III,  N. E. Schultz,  N. Shenvi,  A. C. Simmonett,  A. Sodt,  
 D. Stuck,  K. S. Thanthiriwatte,  V. Vanovschi,  Tao Wang,  A. Warshel,  
 C. F. Williams,  Q. Wu,  X. Xu,  W. Zhang

 Please cite Q-Chem as follows:
 Y. Shao et al., Mol. Phys. 113, 184-215 (2015)
 DOI: 10.1080/00268976.2014.952696

 Q-Chem 5.1.1 for Intel X86 EM64T Linux

 Parts of Q-Chem use Armadillo 8.300.2 (Tropical Shenanigans).
 http://arma.sourceforge.net/

 Q-Chem begins on Thu Mar 14 05:46:47 2019  

Host: 
0

     Scratch files written to /staging/scratch/2868759/qchem21479//
 Aug318 |scratch|qcdevops|jenkins|workspace|build_RNUM 6013   
Processing $rem in /usr/usc/qchem/5.1.1/config/preferences.
 MEM_TOTAL  2000 
Input Ideriv = 2
Curr. Ideriv = -1
Max.  Ideriv = 2

Checking the input file for inconsistencies... 	...done.

--------------------------------------------------------------
User input:
--------------------------------------------------------------

$comment
potential surface scanner
$end

$rem
JOBTYPE  PES_SCAN
UNRESTRICTED TRUE
SYM_IGNORE  TRUE
GEOM_OPT_MAX_CYCLES 400
SCF_MAX_CYCLES 400
METHOD   B3LYP
BASIS   6-31G**
PDB_PRINT 2
SCF_CONVERGENCE 6
THRESH 14
SCF_PRINT 1
$end
$molecule
0 3
Br -4.859557 2.055102 0.004904
Br 2.933261 0.820599 0.013503
C 0.126358 -0.021587 0.020314
C -0.875174 -1.128390 -0.003404
C 1.550214 -0.599291 -0.001700
H 0.009095 0.592505 0.919936
H 0.000018 0.637135 -0.845845
H -1.194784 -1.568613 -0.942229
H -1.186145 -1.617938 0.913563
H 1.741293 -1.178146 -0.904647
H 1.755325 -1.212677 0.875003
$end
$scan
stre 1 4 5.000000 5.001000 0.100000
$end
--------------------------------------------------------------
 ----------------------------------------------------------------
             Standard Nuclear Orientation (Angstroms)
    I     Atom           X                Y                Z
 ----------------------------------------------------------------
    1      Br     -4.8595570000     2.0551020000     0.0049040000
    2      Br      2.9332610000     0.8205990000     0.0135030000
    3      C       0.1263580000    -0.0215870000     0.0203140000
    4      C      -0.8751740000    -1.1283900000    -0.0034040000
    5      C       1.5502140000    -0.5992910000    -0.0017000000
    6      H       0.0090950000     0.5925050000     0.9199360000
    7      H       0.0000180000     0.6371350000    -0.8458450000
    8      H      -1.1947840000    -1.5686130000    -0.9422290000
    9      H      -1.1861450000    -1.6179380000     0.9135630000
   10      H       1.7412930000    -1.1781460000    -0.9046470000
   11      H       1.7553250000    -1.2126770000     0.8750030000
 ----------------------------------------------------------------
 Nuclear Repulsion Energy =   383.6053478774 hartrees
 There are       48 alpha and       46 beta electrons
 Requested basis set is 6-31G(d,p)
 There are 46 shells and 145 basis functions

 Total QAlloc Memory Limit   2000 MB
 Mega-Array Size       188 MB
 MEM_STATIC part       192 MB
A total of 1 constraints
  
            1
    1   1.0100000
    2   1.0100000
    3   4.0100000
    4   5.0000000
    5   5.0010000
    6   0.1000000
    7   0.0000000
    8   0.0000000
    9   0.0000000
   10   0.0000000

                       Distance Matrix (Angstroms)
             Br(  1)   Br(  2)   C (  3)   C (  4)   C (  5)   H (  6)
   Br(  2)  7.889999
   C (  3)  5.401132  2.930534
   C (  4)  5.100000  4.278203  1.492864
   C (  5)  6.937652  1.982205  1.536747  2.482429
   H (  6)  5.165292  3.069918  1.095527  2.143821  2.155189
   H (  7)  5.133213  3.062034  1.095494  2.143069  2.155096  1.766368
   H (  8)  5.240127  4.864413  2.250599  1.085053  3.059280  3.096355
   H (  9)  5.273598  4.870942  2.251421  1.084983  3.059903  2.512906
   H ( 10)  7.406240  2.501753  2.191163  2.767781  1.089448  3.076494
   H ( 11)  7.429140  2.502784  2.191511  2.774568  1.089459  2.511975
             H (  7)   H (  8)   H (  9)   H ( 10)
   H (  8)  2.510412
   H (  9)  3.096426  1.856467
   H ( 10)  2.516096  2.962166  3.474075
   H ( 11)  3.076398  3.483126  2.969507  1.780040
 
 A cutoff of  1.0D-14 yielded    871 shell pairs
 There are      8114 function pairs
 
 -------------------------------------------------------
 OpenMP Integral Computing Module                       
 Release: version 1.0, May 2013, Q-Chem Inc. Pittsburgh 
 -------------------------------------------------------
 Integral Job Info:
 Integral job number is                      11
 Integral operator is                         1
 short-range coefficients                     0
 long-range coefficients              100000000
 Omega coefficients                           0
 if combine SR and LR in K                    0
 Integral screening is                        0
 Integral computing path is                   2
 max size of driver memory is            800000
 size of driver memory is                593474
 size of scratch memory is             15267112
 max col of scratch BK array               1296
 max len of scratch array in speh3          155
 max len of scratch index in speh4           18
 max int batch size is                      520
 min int batch size is                       52
 fixed nKL is                                52
 max L of basis functions is                  2
 order of int derivative is                   0
 number of shells is                         46
 number of basis is                         145
 number of cartesian basis is               145
 number of contracted shell pairs           871
 number of primitive shell pairs           3703
 maxK2 (contraction) of shell pair           36
 max number of K2 of shell pair               1
 max number of CS2 of shell pair             61
 max number of PS2 of shell pair            366
 mem total for path MDJ                  524076
 -------------------------------------------------------
 Smallest overlap matrix eigenvalue = 7.23E-04

 Scale SEOQF with 1.000000e-01/1.000000e-01/1.000000e+00

 Standard Electronic Orientation quadrupole field applied
 Nucleus-field energy     =     0.0000000496 hartrees
 Guess from superposition of atomic densities
 Warning:  Energy on first SCF cycle will be non-variational
 SAD guess density has 93.945746 electrons

 -----------------------------------------------------------------------
  General SCF calculation program by
  Eric Jon Sundstrom, Paul Horn, Yuezhi Mao, Dmitri Zuev, Alec White,
  David Stuck, Shaama M.S., Shane Yost, Joonho Lee, David Small,
  Daniel Levine, Susi Lehtola, Hugh Burton, Evgeny Epifanovsky
 -----------------------------------------------------------------------
 Exchange:     0.2000 Hartree-Fock + 0.0800 Slater + 0.7200 B88
 Correlation:  0.1900 VWN1RPA + 0.8100 LYP
 Using SG-1 standard quadrature grid
 using 12 threads for integral computing
 -------------------------------------------------------
 OpenMP Integral computing Module                
 Release: version 1.0, May 2013, Q-Chem Inc. Pittsburgh 
 -------------------------------------------------------
 -------------------------------------------------------
 OpenMP BLAS3 based DFT computing Module                
 Release: version 1.0, May 2013, Q-Chem Inc. Pittsburgh 
 -------------------------------------------------------
 A unrestricted SCF calculation will be
 performed using DIIS
 SCF converges when DIIS error is below 1.0e-06
 Alpha HF Exchange    Energy = -19.60522506312433
 Beta HF Exchange     Energy = -19.60522506312433
 DFT Correlation      Energy =  -5.19175266365514
 DFT Exchange         Energy = -155.86308845788437
 One-Electron (alpha) Energy = -4040.11603123402892
 One-Electron (beta)  Energy = -4040.11603123402892
 Total Coulomb        Energy = 2624.55829909502245
 ---------------------------------------
  Cycle       Energy         DIIS error
 ---------------------------------------
    1   -5272.3337066938      1.83e-01  
 Alpha HF Exchange    Energy = -19.82771881480467
 Beta HF Exchange     Energy = -19.63025299388095
 DFT Correlation      Energy =  -5.23440954886046
 DFT Exchange         Energy = -157.02487922868124
 One-Electron (alpha) Energy = -4069.45924119423444
 One-Electron (beta)  Energy = -4027.25619589152484
 Total Coulomb        Energy = 2649.58130185413529
    2   -5265.2460478908      1.05e-02  
 Alpha HF Exchange    Energy = -19.68900566075963
 Beta HF Exchange     Energy = -19.54646077001245
 DFT Correlation      Energy =  -5.21257619345270
 DFT Exchange         Energy = -156.16833348233217
 One-Electron (alpha) Energy = -4045.59604848868548
 One-Electron (beta)  Energy = -4012.26958961697710
 Total Coulomb        Energy = 2617.59752152991996
    3   -5257.2791447553      1.12e-02  
 Alpha HF Exchange    Energy = -19.74675488936809
 Beta HF Exchange     Energy = -19.49145254903505
 DFT Correlation      Energy =  -5.16206145774664
 DFT Exchange         Energy = -156.21699372811941
 One-Electron (alpha) Energy = -4051.57074216722140
 One-Electron (beta)  Energy = -4003.30918253587106
 Total Coulomb        Energy = 2640.94485335331410
    4   -5230.9469860470      2.01e-02  
 Alpha HF Exchange    Energy = -19.79332984209507
 Beta HF Exchange     Energy = -19.59952635426762
 DFT Correlation      Energy =  -5.22715239461471
 DFT Exchange         Energy = -156.77025932560409
 One-Electron (alpha) Energy = -4068.44595151850854
 One-Electron (beta)  Energy = -4027.18599640851562
 Total Coulomb        Energy = 2648.18192043975114
    5   -5265.2349474769      3.62e-03  
 Alpha HF Exchange    Energy = -19.74774456229705
 Beta HF Exchange     Energy = -19.55520518406826
 DFT Correlation      Energy =  -5.21130189183813
 DFT Exchange         Energy = -156.39379853749412
 One-Electron (alpha) Energy = -4061.07298138122087
 One-Electron (beta)  Energy = -4019.15679445604974
 Total Coulomb        Energy = 2632.18253187506252
    6   -5265.3499462109      2.16e-03  
 Alpha HF Exchange    Energy = -19.76153974364283
 Beta HF Exchange     Energy = -19.57884842629587
 DFT Correlation      Energy =  -5.21361561081971
 DFT Exchange         Energy = -156.53375484009854
 One-Electron (alpha) Energy = -4064.02940631585898
 One-Electron (beta)  Energy = -4023.22709293012394
 Total Coulomb        Energy = 2639.20378740999831
    7   -5265.5351225298      2.11e-03  
 Alpha HF Exchange    Energy = -19.76137007488421
 Beta HF Exchange     Energy = -19.57460569508934
 DFT Correlation      Energy =  -5.21446963748046
 DFT Exchange         Energy = -156.51813611523946
 One-Electron (alpha) Energy = -4062.87946813831149
 One-Electron (beta)  Energy = -4022.14026167599877
 Total Coulomb        Energy = 2636.90060896352588
    8   -5265.5823544465      1.10e-03  
 Alpha HF Exchange    Energy = -19.75868413778570
 Beta HF Exchange     Energy = -19.57126812638431
 DFT Correlation      Energy =  -5.21278404833230
 DFT Exchange         Energy = -156.49112686458093
 One-Electron (alpha) Energy = -4062.54760322699849
 One-Electron (beta)  Energy = -4021.84082405521985
 Total Coulomb        Energy = 2636.22680099633271
    9   -5265.5901415360      8.62e-04  
 Alpha HF Exchange    Energy = -19.75919980848751
 Beta HF Exchange     Energy = -19.57079636799958
 DFT Correlation      Energy =  -5.21277529378863
 DFT Exchange         Energy = -156.49081620988147
 One-Electron (alpha) Energy = -4062.48236490830686
 One-Electron (beta)  Energy = -4021.73065756638789
 Total Coulomb        Energy = 2636.04353857479009
   10   -5265.5977236531      5.56e-04  
 Alpha HF Exchange    Energy = -19.76114179599431
 Beta HF Exchange     Energy = -19.57152671745152
 DFT Correlation      Energy =  -5.21306491210240
 DFT Exchange         Energy = -156.50046433344323
 One-Electron (alpha) Energy = -4062.59804691529644
 One-Electron (beta)  Energy = -4021.80545721330463
 Total Coulomb        Energy = 2636.24328194697864
   11   -5265.6010720136      3.18e-04  
 Alpha HF Exchange    Energy = -19.76135595378640
 Beta HF Exchange     Energy = -19.57117317178419
 DFT Correlation      Energy =  -5.21297807494120
 DFT Exchange         Energy = -156.49950909977164
 One-Electron (alpha) Energy = -4062.61666670107843
 One-Electron (beta)  Energy = -4021.77839022786156
 Total Coulomb        Energy = 2636.23204861310114
   12   -5265.6026766891      7.77e-05  
 Alpha HF Exchange    Energy = -19.76144402394062
 Beta HF Exchange     Energy = -19.57110340809665
 DFT Correlation      Energy =  -5.21298496726783
 DFT Exchange         Energy = -156.49956067930529
 One-Electron (alpha) Energy = -4062.60427999461353
 One-Electron (beta)  Energy = -4021.75658254482187
 Total Coulomb        Energy = 2636.19783655753145
   13   -5265.6027711335      2.24e-05  
 Alpha HF Exchange    Energy = -19.76160190473302
 Beta HF Exchange     Energy = -19.57120360648326
 DFT Correlation      Energy =  -5.21301712879534
 DFT Exchange         Energy = -156.50058207679302
 One-Electron (alpha) Energy = -4062.61942427441181
 One-Electron (beta)  Energy = -4021.76669890383437
 Total Coulomb        Energy = 2636.22440106834119
   14   -5265.6027788997      5.30e-06  
 Alpha HF Exchange    Energy = -19.76156055970329
 Beta HF Exchange     Energy = -19.57116731226344
 DFT Correlation      Energy =  -5.21301339969576
 DFT Exchange         Energy = -156.50028672111279
 One-Electron (alpha) Energy = -4062.61688624409862
 One-Electron (beta)  Energy = -4021.76366041447000
 Total Coulomb        Energy = 2636.21844749321417
   15   -5265.6027792311      8.13e-07  Convergence criterion met
 ---------------------------------------
 SCF time:   CPU 51.68s  wall 5.00s 
<S^2> =          2.005383244
 Alpha HF Exchange    Energy = -19.76156055970329
 Beta HF Exchange     Energy = -19.57116731226344
 DFT Correlation      Energy =  -5.21301339969576
 DFT Exchange         Energy = -156.50028672111279
 One-Electron (alpha) Energy = -4062.61688624409862
 One-Electron (beta)  Energy = -4021.76366041447000
 Total Coulomb        Energy = 2636.21844749321417
 Nuclear repulsion Energy = 383.60534792700253
 SCF   energy in the final basis set =    -5265.6027792311
 Total energy in the final basis set =    -5265.6027792311
 
 --------------------------------------------------------------
 
                    Orbital Energies (a.u.)
 --------------------------------------------------------------
 
 Alpha MOs
 -- Occupied --
*******-482.846 -62.559 -62.505 -56.384 -56.376 -56.376 -56.326
-56.322 -56.322 -10.248 -10.210 -10.208  -8.747  -8.692  -6.583
 -6.561  -6.561  -6.522  -6.509  -6.509  -2.674  -2.669  -2.669
 -2.652  -2.652  -2.616  -2.612  -2.612  -2.602  -2.602  -0.827
 -0.799  -0.763  -0.666  -0.602  -0.493  -0.433  -0.430  -0.418
 -0.374  -0.361  -0.360  -0.325  -0.325  -0.277  -0.274  -0.222
 -- Virtual --
  0.001   0.093   0.120   0.122   0.141   0.154   0.165   0.195
  0.208   0.242   0.254   0.284   0.309   0.309   0.340   0.349
  0.358   0.475   0.484   0.500   0.531   0.540   0.542   0.542
  0.548   0.572   0.579   0.579   0.608   0.618   0.623   0.678
  0.729   0.785   0.814   0.815   0.841   0.856   0.883   0.904
  0.927   0.991   1.149   1.213   1.309   1.421   1.480   1.495
  1.654   1.665   1.674   1.735   1.809   1.854   1.929   1.973
  2.007   2.057   2.107   2.171   2.202   2.235   2.327   2.336
  2.424   2.462   2.510   2.590   2.594   2.688   2.763   2.772
  2.842   2.873   3.197   3.258   3.368   3.370   3.446   3.539
  4.205   4.365   4.572   4.646   4.654   4.654   4.679   4.679
  4.730   4.745   4.812   4.814   4.984   6.203   6.304  90.120
 90.359
 
 Beta MOs
 -- Occupied --
*******-482.846 -62.558 -62.505 -56.378 -56.375 -56.375 -56.326
-56.322 -56.322 -10.247 -10.209 -10.197  -8.743  -8.692  -6.573
 -6.559  -6.559  -6.522  -6.509  -6.509  -2.666  -2.663  -2.663
 -2.651  -2.651  -2.616  -2.612  -2.612  -2.602  -2.602  -0.822
 -0.756  -0.753  -0.650  -0.590  -0.490  -0.427  -0.424  -0.408
 -0.358  -0.355  -0.311  -0.311  -0.275  -0.274
 -- Virtual --
 -0.238  -0.073   0.013   0.095   0.124   0.128   0.147   0.156
  0.174   0.199   0.212   0.246   0.261   0.312   0.313   0.313
  0.343   0.350   0.359   0.478   0.485   0.510   0.543   0.581
  0.586   0.587   0.587   0.588   0.588   0.593   0.618   0.625
  0.636   0.687   0.732   0.788   0.816   0.820   0.844   0.858
  0.890   0.908   0.930   1.006   1.152   1.221   1.321   1.455
  1.485   1.504   1.654   1.684   1.693   1.743   1.818   1.859
  1.932   2.009   2.029   2.058   2.107   2.177   2.203   2.236
  2.335   2.338   2.441   2.471   2.525   2.595   2.603   2.695
  2.764   2.774   2.845   2.877   3.199   3.261   3.370   3.375
  3.451   3.542   4.219   4.385   4.575   4.665   4.668   4.668
  4.682   4.682   4.730   4.745   4.812   4.814   4.985   6.219
  6.304  90.126  90.360
 --------------------------------------------------------------
 
          Ground-State Mulliken Net Atomic Charges

     Atom                 Charge (a.u.)    Spin (a.u.)
  --------------------------------------------------------
      1 Br                   -0.000325       1.000240
      2 Br                   -0.129665       0.032157
      3 C                    -0.195205      -0.073977
      4 C                    -0.229676       1.065065
      5 C                    -0.242972       0.042974
      6 H                     0.130276       0.013636
      7 H                     0.130566       0.013679
      8 H                     0.115778      -0.046951
      9 H                     0.115776      -0.046942
     10 H                     0.152714       0.000044
     11 H                     0.152734       0.000074
  --------------------------------------------------------
  Sum of atomic charges =    -0.000000
  Sum of spin   charges =     2.000000

 -----------------------------------------------------------------
                    Cartesian Multipole Moments
 -----------------------------------------------------------------
    Charge (ESU x 10^10)
                -0.0000
    Dipole Moment (Debye)
         X      -1.7373      Y      -1.5493      Z      -0.0160
       Tot       2.3278
    Quadrupole Moments (Debye-Ang)
        XX     -63.6733     XY      -3.3521     YY     -54.1423
        XZ      -0.0212     YZ      -0.0248     ZZ     -56.1351
    Octopole Moments (Debye-Ang^2)
       XXX      73.2717    XXY     -34.8870    XYY      17.9055
       YYY    -110.9620    XXZ      -0.5128    XYZ      -0.0200
       YYZ      -0.2964    XZZ      30.9389    YZZ     -44.3418
       ZZZ      -1.3529
    Hexadecapole Moments (Debye-Ang^3)
      XXXX   -3830.8310   XXXY     349.7853   XXYY    -643.9068
      XYYY     350.3020   YYYY    -641.6738   XXXZ      -1.0617
      XXYZ      -0.1230   XYYZ      -0.3713   YYYZ      -1.4492
      XXZZ    -657.1214   XYZZ     140.9975   YYZZ    -128.4238
      XZZZ      -1.0362   YZZZ      -1.1928   ZZZZ     -84.7273
 -----------------------------------------------------------------
 Calculating analytic gradient of the SCF energy
 Gradient of SCF Energy
            1           2           3           4           5           6
    1  -0.0000684  -0.0000221  -0.0000861   0.0000958   0.0001011  -0.0000569
    2   0.0000100   0.0000200   0.0000758  -0.0000294  -0.0000347  -0.0001052
    3  -0.0000056   0.0000344   0.0000236  -0.0000027  -0.0000182   0.0000957
            7           8           9          10          11
    1  -0.0000388   0.0000538   0.0000340  -0.0000020  -0.0000103
    2  -0.0000654   0.0000271   0.0000106   0.0000554   0.0000357
    3  -0.0000804   0.0000023  -0.0000518  -0.0000117   0.0000145
 Max gradient component =       1.052E-04
 RMS gradient           =       5.236E-05
 Gradient time:  CPU 13.63 s  wall 1.22 s
 Geometry Optimization Parameters
   NAtoms,    NIC,     NZ,  NCons,   NDum,   NFix, NCnnct, MaxDiis
       11     156       0       1       0       0       0       0


** CONSTRAINED OPTIMIZATION IN DELOCALIZED INTERNAL COORDINATES **
   Searching for a Minimum

   Optimization Cycle:   1

                       Coordinates (Angstroms)
     ATOM                X               Y               Z
      1  Br       -4.8595570000    2.0551020000    0.0049040000
      2  Br        2.9332610000    0.8205990000    0.0135030000
      3  C         0.1263580000   -0.0215870000    0.0203140000
      4  C        -0.8751740000   -1.1283900000   -0.0034040000
      5  C         1.5502140000   -0.5992910000   -0.0017000000
      6  H         0.0090950000    0.5925050000    0.9199360000
      7  H         0.0000180000    0.6371350000   -0.8458450000
      8  H        -1.1947840000   -1.5686130000   -0.9422290000
      9  H        -1.1861450000   -1.6179380000    0.9135630000
     10  H         1.7412930000   -1.1781460000   -0.9046470000
     11  H         1.7553250000   -1.2126770000    0.8750030000
   Point Group: c1    Number of degrees of freedom:    27


   Energy is  -5265.602779231

              Constraints and their Current Values
                                        Value     Constraint
   Distance(Angs):        1   4             5.100000     5.000000

 Attempting to Generate Delocalized Internal Coordinates

   Using Lagrange Multiplier Algorithm


 28 Hessian modes will be used to form the next step
  Hessian Eigenvalues:
    -0.998379    0.028279    0.045005    0.048594    0.048655    0.050973
     0.056846    0.061963    0.062485    0.062792    0.068725    0.068807
     0.086011    0.121880    0.134113    0.157669    0.159972    0.160000
     0.221466    0.248799    0.272041    0.282698    0.288073    0.296947
     0.318013    0.348752    0.348765    1.001623

 Minimum Search - Taking P-RFO Step
 Searching for Lamda that Maximizes Along the Constraint modes Only
 Value Taken    Lamda =   0.01758316
 Searching for Lamda that Minimizes Along All other modes
 Value Taken    Lamda =  -0.01751179
 Step Taken.  Stepsize is  0.185718

                             Maximum     Tolerance    Cnvgd?
         Gradient            0.188972       0.000300      NO
         Displacement        0.185713       0.001200      NO
         Energy change     *********       0.000001      NO


 New Cartesian Coordinates Obtained by Inverse Iteration

 Displacement from previous Coordinates is:  0.176575
 ----------------------------------------------------------------
             Standard Nuclear Orientation (Angstroms)
    I     Atom           X                Y                Z
 ----------------------------------------------------------------
    1      Br     -4.8257636455     2.0137986172     0.0046513627
    2      Br      2.9364006779     0.8287096367     0.0137993817
    3      C       0.1318562490    -0.0201792033     0.0201938034
    4      C      -0.9184132666    -1.1086667413    -0.0037779356
    5      C       1.5569215101    -0.5947067756    -0.0016422598
    6      H       0.0297312575     0.5871893405     0.9229410146
    7      H       0.0206516704     0.6317202761    -0.8489738007
    8      H      -1.2267692071    -1.5644756425    -0.9529481701
    9      H      -1.2182654930    -1.6144937690     0.9246790270
   10      H       1.7498580774    -1.1728008867    -0.9046939261
   11      H       1.7636961700    -1.2073958521     0.8751695030
 ----------------------------------------------------------------
 Nuclear Repulsion Energy =   384.1843404141 hartrees
 There are       48 alpha and       46 beta electrons

                       Distance Matrix (Angstroms)
             Br(  1)   Br(  2)   C (  3)   C (  4)   C (  5)   H (  6)
   Br(  2)  7.852115
   C (  3)  5.358666  2.930209
   C (  4)  5.001724  4.314316  1.512761
   C (  5)  6.895144  1.982250  1.536675  2.528130
   H (  6)  5.143374  3.055094  1.092831  2.152606  2.141038
   H (  7)  5.111414  3.047093  1.092150  2.150615  2.140612  1.772498
   H (  8)  5.164669  4.898359  2.275460  1.097164  3.097478  3.118881
   H (  9)  5.198557  4.905119  2.276568  1.099002  3.098338  2.530792
   H ( 10)  7.363432  2.501511  2.191320  2.816990  1.089458  3.065396
   H ( 11)  7.386127  2.502583  2.191659  2.824183  1.089469  2.495887
             H (  7)   H (  8)   H (  9)   H ( 10)
   H (  8)  2.527874
   H (  9)  3.118692  1.878313
   H ( 10)  2.499911  3.002673  3.514464
   H ( 11)  3.064836  3.523124  3.010029  1.780253
 
 Applying Cartesian multipole field
    Component          Value
    ---------          -----
     (2,0,0)        1.00000E-11
     (0,2,0)        2.00000E-11
     (0,0,2)       -3.00000E-10
 Nucleus-field energy     =     0.0000000488 hartrees
 Requested basis set is 6-31G(d,p)
 There are 46 shells and 145 basis functions
 A cutoff of  1.0D-14 yielded    871 shell pairs
 There are      8114 function pairs
 Smallest overlap matrix eigenvalue = 7.23E-04
 Guess from superposition of atomic densities
 Warning:  Energy on first SCF cycle will be non-variational
 SAD guess density has 93.945746 electrons

 -----------------------------------------------------------------------
  General SCF calculation program by
  Eric Jon Sundstrom, Paul Horn, Yuezhi Mao, Dmitri Zuev, Alec White,
  David Stuck, Shaama M.S., Shane Yost, Joonho Lee, David Small,
  Daniel Levine, Susi Lehtola, Hugh Burton, Evgeny Epifanovsky
 -----------------------------------------------------------------------
 Exchange:     0.2000 Hartree-Fock + 0.0800 Slater + 0.7200 B88
 Correlation:  0.1900 VWN1RPA + 0.8100 LYP
 Using SG-1 standard quadrature grid
 using 12 threads for integral computing
 -------------------------------------------------------
 OpenMP Integral computing Module                
 Release: version 1.0, May 2013, Q-Chem Inc. Pittsburgh 
 -------------------------------------------------------
 -------------------------------------------------------
 OpenMP BLAS3 based DFT computing Module                
 Release: version 1.0, May 2013, Q-Chem Inc. Pittsburgh 
 -------------------------------------------------------
 A unrestricted SCF calculation will be
 performed using DIIS
 SCF converges when DIIS error is below 1.0e-06
 Alpha HF Exchange    Energy = -19.60178755014272
 Beta HF Exchange     Energy = -19.60178755014272
 DFT Correlation      Energy =  -5.19092366040353
 DFT Exchange         Energy = -155.85601607106287
 One-Electron (alpha) Energy = -4040.71348192013284
 One-Electron (beta)  Energy = -4040.71348192013284
 Total Coulomb        Energy = 2625.18582388513005
 ---------------------------------------
  Cycle       Energy         DIIS error
 ---------------------------------------
    1   -5272.3073143240      1.83e-01  
 Alpha HF Exchange    Energy = -19.82546313957397
 Beta HF Exchange     Energy = -19.62849688390138
 DFT Correlation      Energy =  -5.23319152873924
 DFT Exchange         Energy = -157.00978185226094
 One-Electron (alpha) Energy = -4069.98371845674410
 One-Electron (beta)  Energy = -4027.86064918112379
 Total Coulomb        Energy = 2650.11132788603118
    2   -5265.2456326934      1.05e-02  
 Alpha HF Exchange    Energy = -19.68749637291835
 Beta HF Exchange     Energy = -19.54439225156551
 DFT Correlation      Energy =  -5.21162398664781
 DFT Exchange         Energy = -156.15648571957979
 One-Electron (alpha) Energy = -4046.12983665508136
 One-Electron (beta)  Energy = -4012.79196721055450
 Total Coulomb        Energy = 2618.02866839751823
    3   -5257.3087933359      1.12e-02  
 Alpha HF Exchange    Energy = -19.74460874979432
 Beta HF Exchange     Energy = -19.48993796667763
 DFT Correlation      Energy =  -5.16162694810026
 DFT Exchange         Energy = -156.20652555923880
 One-Electron (alpha) Energy = -4052.41153377316687
 One-Electron (beta)  Energy = -4004.08189110310241
 Total Coulomb        Energy = 2641.74079187454436
    4   -5231.1709917626      2.05e-02  
 Alpha HF Exchange    Energy = -19.79125343269260
 Beta HF Exchange     Energy = -19.59785709945384
 DFT Correlation      Energy =  -5.22533081075620
 DFT Exchange         Energy = -156.75210490358620
 One-Electron (alpha) Energy = -4068.76268116057827
 One-Electron (beta)  Energy = -4027.72327133561748
 Total Coulomb        Energy = 2648.45090001592416
    5   -5265.2172582639      3.78e-03  
 Alpha HF Exchange    Energy = -19.74817331699129
 Beta HF Exchange     Energy = -19.55637995953099
 DFT Correlation      Energy =  -5.21078463139857
 DFT Exchange         Energy = -156.40027181908590
 One-Electron (alpha) Energy = -4061.95866503611751
 One-Electron (beta)  Energy = -4020.16124637351095
 Total Coulomb        Energy = 2633.50996387945997
    6   -5265.3412167943      2.22e-03  
 Alpha HF Exchange    Energy = -19.76142278793254
 Beta HF Exchange     Energy = -19.57840352924116
 DFT Correlation      Energy =  -5.21268046388202
 DFT Exchange         Energy = -156.53098634869704
 One-Electron (alpha) Energy = -4064.73303404925991
 One-Electron (beta)  Energy = -4023.96001838944630
 Total Coulomb        Energy = 2640.05598351722256
    7   -5265.5362215883      2.11e-03  
 Alpha HF Exchange    Energy = -19.76048277380816
 Beta HF Exchange     Energy = -19.57362471230539
 DFT Correlation      Energy =  -5.21352755752909
 DFT Exchange         Energy = -156.51129026665180
 One-Electron (alpha) Energy = -4063.51186228817460
 One-Electron (beta)  Energy = -4022.78104025407083
 Total Coulomb        Energy = 2637.58414092207113
    8   -5265.5833464676      1.06e-03  
 Alpha HF Exchange    Energy = -19.75735267370668
 Beta HF Exchange     Energy = -19.56983859258277
 DFT Correlation      Energy =  -5.21168217296006
 DFT Exchange         Energy = -156.48072465798168
 One-Electron (alpha) Energy = -4063.12960191659204
 One-Electron (beta)  Energy = -4022.42896254072366
 Total Coulomb        Energy = 2636.80268289589367
    9   -5265.5911391958      8.04e-04  
 Alpha HF Exchange    Energy = -19.75783709385832
 Beta HF Exchange     Energy = -19.56944834247069
 DFT Correlation      Energy =  -5.21170091628336
 DFT Exchange         Energy = -156.48080318267930
 One-Electron (alpha) Energy = -4063.07166705699501
 One-Electron (beta)  Energy = -4022.32321360276728
 Total Coulomb        Energy = 2636.63243808522066
   10   -5265.5978916469      5.09e-04  
 Alpha HF Exchange    Energy = -19.75960444577764
 Beta HF Exchange     Energy = -19.57006903742768
 DFT Correlation      Energy =  -5.21198210488092
 DFT Exchange         Energy = -156.48948999078743
 One-Electron (alpha) Energy = -4063.17514277354940
 One-Electron (beta)  Energy = -4022.38564835758370
 Total Coulomb        Energy = 2636.80682270993884
   11   -5265.6007735372      2.85e-04  
 Alpha HF Exchange    Energy = -19.75966610511003
 Beta HF Exchange     Energy = -19.56966851974511
 DFT Correlation      Energy =  -5.21187678005281
 DFT Exchange         Energy = -156.48781884821221
 One-Electron (alpha) Energy = -4063.18171502796213
 One-Electron (beta)  Energy = -4022.35162363864447
 Total Coulomb        Energy = 2636.77596731788890
   12   -5265.6020611389      6.85e-05  
 Alpha HF Exchange    Energy = -19.75978245738872
 Beta HF Exchange     Energy = -19.56963359002574
 DFT Correlation      Energy =  -5.21189242421839
 DFT Exchange         Energy = -156.48812833240598
 One-Electron (alpha) Energy = -4063.17219616741249
 One-Electron (beta)  Energy = -4022.33345133482726
 Total Coulomb        Energy = 2636.74860797952851
   13   -5265.6021358639      1.77e-05  
 Alpha HF Exchange    Energy = -19.75992187604788
 Beta HF Exchange     Energy = -19.56972963467667
 DFT Correlation      Energy =  -5.21192183477254
 DFT Exchange         Energy = -156.48906162580022
 One-Electron (alpha) Energy = -4063.18615638848178
 One-Electron (beta)  Energy = -4022.34346344748792
 Total Coulomb        Energy = 2636.77377371323109
   14   -5265.6021406311      5.06e-06  
 Alpha HF Exchange    Energy = -19.75988732570076
 Beta HF Exchange     Energy = -19.56969679827003
 DFT Correlation      Energy =  -5.21191884597724
 DFT Exchange         Energy = -156.48880547937958
 One-Electron (alpha) Energy = -4063.18375629858747
 One-Electron (beta)  Energy = -4022.34050295863017
 Total Coulomb        Energy = 2636.76808626410639
   15   -5265.6021409795      6.82e-07  Convergence criterion met
 ---------------------------------------
 SCF time:   CPU 51.51s  wall 5.00s 
<S^2> =          2.005426883
 Alpha HF Exchange    Energy = -19.75988732570076
 Beta HF Exchange     Energy = -19.56969679827003
 DFT Correlation      Energy =  -5.21191884597724
 DFT Exchange         Energy = -156.48880547937958
 One-Electron (alpha) Energy = -4063.18375629858747
 One-Electron (beta)  Energy = -4022.34050295863017
 Total Coulomb        Energy = 2636.76808626410639
 Nuclear repulsion Energy = 384.18434046289474
 SCF   energy in the final basis set =    -5265.6021409795
 Total energy in the final basis set =    -5265.6021409795
 
 --------------------------------------------------------------
 
                    Orbital Energies (a.u.)
 --------------------------------------------------------------
 
 Alpha MOs
 -- Occupied --
*******-482.848 -62.559 -62.506 -56.383 -56.376 -56.376 -56.327
-56.324 -56.324 -10.249 -10.215 -10.209  -8.746  -8.693  -6.583
 -6.561  -6.561  -6.523  -6.511  -6.510  -2.674  -2.668  -2.668
 -2.652  -2.652  -2.617  -2.613  -2.613  -2.603  -2.603  -0.826
 -0.799  -0.762  -0.666  -0.601  -0.493  -0.431  -0.429  -0.416
 -0.373  -0.362  -0.359  -0.325  -0.325  -0.278  -0.275  -0.225
 -- Virtual --
 -0.001   0.092   0.116   0.124   0.141   0.153   0.165   0.196
  0.204   0.236   0.252   0.284   0.309   0.309   0.340   0.349
  0.357   0.475   0.484   0.501   0.531   0.538   0.542   0.543
  0.545   0.571   0.579   0.579   0.603   0.617   0.621   0.678
  0.722   0.785   0.812   0.816   0.844   0.853   0.876   0.905
  0.925   0.987   1.138   1.207   1.312   1.414   1.480   1.506
  1.652   1.656   1.675   1.737   1.803   1.842   1.922   1.957
  1.998   2.056   2.113   2.168   2.199   2.232   2.329   2.332
  2.405   2.462   2.487   2.583   2.592   2.680   2.759   2.766
  2.833   2.855   3.194   3.243   3.360   3.360   3.432   3.528
  4.195   4.361   4.570   4.646   4.654   4.654   4.680   4.680
  4.729   4.744   4.811   4.813   4.982   6.203   6.303  90.120
 90.358
 
 Beta MOs
 -- Occupied --
*******-482.848 -62.558 -62.506 -56.378 -56.375 -56.375 -56.327
-56.324 -56.324 -10.247 -10.210 -10.201  -8.742  -8.693  -6.572
 -6.559  -6.559  -6.523  -6.511  -6.510  -2.666  -2.662  -2.662
 -2.651  -2.651  -2.617  -2.613  -2.613  -2.603  -2.603  -0.821
 -0.755  -0.752  -0.650  -0.589  -0.490  -0.425  -0.423  -0.406
 -0.359  -0.355  -0.311  -0.310  -0.276  -0.275
 -- Virtual --
 -0.237  -0.073   0.010   0.095   0.125   0.126   0.146   0.155
  0.174   0.200   0.208   0.242   0.257   0.312   0.314   0.314
  0.342   0.349   0.358   0.479   0.485   0.513   0.541   0.574
  0.583   0.587   0.587   0.589   0.589   0.593   0.617   0.621
  0.637   0.686   0.726   0.788   0.815   0.820   0.846   0.855
  0.883   0.908   0.928   1.002   1.141   1.215   1.324   1.442
  1.485   1.520   1.656   1.672   1.693   1.744   1.812   1.847
  1.926   2.005   2.009   2.057   2.113   2.174   2.201   2.233
  2.331   2.339   2.422   2.470   2.502   2.593   2.597   2.687
  2.760   2.768   2.836   2.859   3.197   3.247   3.362   3.364
  3.438   3.531   4.209   4.380   4.573   4.665   4.669   4.669
  4.682   4.682   4.729   4.744   4.811   4.813   4.982   6.219
  6.303  90.126  90.358
 --------------------------------------------------------------
 
          Ground-State Mulliken Net Atomic Charges

     Atom                 Charge (a.u.)    Spin (a.u.)
  --------------------------------------------------------
      1 Br                   -0.000491       1.000330
      2 Br                   -0.126482       0.027422
      3 C                    -0.195861      -0.073090
      4 C                    -0.229895       1.070166
      5 C                    -0.243493       0.042463
      6 H                     0.130918       0.012889
      7 H                     0.131267       0.012902
      8 H                     0.114976      -0.046640
      9 H                     0.114659      -0.046702
     10 H                     0.152182       0.000114
     11 H                     0.152219       0.000147
  --------------------------------------------------------
  Sum of atomic charges =    -0.000000
  Sum of spin   charges =     2.000000

 -----------------------------------------------------------------
                    Cartesian Multipole Moments
 -----------------------------------------------------------------
    Charge (ESU x 10^10)
                 0.0000
    Dipole Moment (Debye)
         X      -1.6383      Y      -1.5632      Z      -0.0181
       Tot       2.2646
    Quadrupole Moments (Debye-Ang)
        XX     -63.2424     XY      -3.5375     YY     -54.5409
        XZ      -0.0147     YZ      -0.0283     ZZ     -56.1268
    Octopole Moments (Debye-Ang^2)
       XXX      67.0451    XXY     -31.0424    XYY      18.4870
       YYY    -112.1776    XXZ      -0.5391    XYZ       0.0067
       YYZ      -0.3244    XZZ      30.4845    YZZ     -43.8370
       ZZZ      -1.3542
    Hexadecapole Moments (Debye-Ang^3)
      XXXX   -3744.1327   XXXY     303.9465   XXYY    -634.7129
      XYYY     343.5117   YYYY    -635.2639   XXXZ      -1.0343
      XXYZ      -0.2662   XYYZ      -0.2914   YYYZ      -1.5014
      XXZZ    -651.7614   XYZZ     135.1609   YYZZ    -125.3884
      XZZZ      -1.1649   YZZZ      -1.1701   ZZZZ     -84.9584
 -----------------------------------------------------------------
 Calculating analytic gradient of the SCF energy
 Gradient of SCF Energy
            1           2           3           4           5           6
    1  -0.0001054   0.0008466   0.0047590  -0.0055638   0.0013927   0.0015781
    2   0.0000565   0.0004119   0.0069747   0.0016009   0.0029659  -0.0020673
    3  -0.0000044   0.0000316  -0.0000092  -0.0011449   0.0000566  -0.0002880
            7           8           9          10          11
    1   0.0015606  -0.0018577  -0.0020871  -0.0002586  -0.0002644
    2  -0.0023645  -0.0035357  -0.0043782   0.0001812   0.0001545
    3   0.0005126  -0.0068788   0.0077104  -0.0000440   0.0000581
 Max gradient component =       7.710E-03
 RMS gradient           =       2.909E-03
 Gradient time:  CPU 12.82 s  wall 1.14 s
 Geometry Optimization Parameters
   NAtoms,    NIC,     NZ,  NCons,   NDum,   NFix, NCnnct, MaxDiis
       11     156       0       1       0       0       0       0

 Cartesian Hessian Update
 Hessian Updated using BFGS Update


** CONSTRAINED OPTIMIZATION IN DELOCALIZED INTERNAL COORDINATES **
   Searching for a Minimum

   Optimization Cycle:   2

                       Coordinates (Angstroms)
     ATOM                X               Y               Z
      1  Br       -4.8257636455    2.0137986172    0.0046513627
      2  Br        2.9364006779    0.8287096367    0.0137993817
      3  C         0.1318562490   -0.0201792033    0.0201938034
      4  C        -0.9184132666   -1.1086667413   -0.0037779356
      5  C         1.5569215101   -0.5947067756   -0.0016422598
      6  H         0.0297312575    0.5871893405    0.9229410146
      7  H         0.0206516704    0.6317202761   -0.8489738007
      8  H        -1.2267692071   -1.5644756425   -0.9529481701
      9  H        -1.2182654930   -1.6144937690    0.9246790270
     10  H         1.7498580774   -1.1728008867   -0.9046939261
     11  H         1.7636961700   -1.2073958521    0.8751695030
   Point Group: c1    Number of degrees of freedom:    27


   Energy is  -5265.602140980

              Constraints and their Current Values
                                        Value     Constraint
   Distance(Angs):        1   4             5.001724     5.000000
 Hessian Updated using BFGS Update

   Using Lagrange Multiplier Algorithm


 28 Hessian modes will be used to form the next step
  Hessian Eigenvalues:
    -0.984183    0.029461    0.045005    0.048604    0.048723    0.050973
     0.057128    0.061964    0.062486    0.062793    0.068733    0.068810
     0.086223    0.121883    0.136149    0.157943    0.159983    0.160107
     0.221817    0.252940    0.272061    0.288046    0.296814    0.299964
     0.348750    0.348763    0.470532    1.024386

 Minimum Search - Taking P-RFO Step
 Searching for Lamda that Maximizes Along the Constraint modes Only
 Value Taken    Lamda =   0.00003749
 Searching for Lamda that Minimizes Along All other modes
 Value Taken    Lamda =  -0.00053995
 Step Taken.  Stepsize is  0.047408

                             Maximum     Tolerance    Cnvgd?
         Gradient            0.011680       0.000300      NO
         Displacement        0.024962       0.001200      NO
         Energy change      0.000638       0.000001      NO


 New Cartesian Coordinates Obtained by Inverse Iteration

 Displacement from previous Coordinates is:  0.047873
 ----------------------------------------------------------------
             Standard Nuclear Orientation (Angstroms)
    I     Atom           X                Y                Z
 ----------------------------------------------------------------
    1      Br     -4.8207581700     2.0111695087     0.0047649476
    2      Br      2.9295571082     0.8254034266     0.0137639472
    3      C       0.1289487722    -0.0206347547     0.0202162960
    4      C      -0.9110974497    -1.1056378292    -0.0035199112
    5      C       1.5525492737    -0.5980272318    -0.0016400082
    6      H       0.0241953572     0.5886996683     0.9229340207
    7      H       0.0151634603     0.6334527918    -0.8491009998
    8      H      -1.2168578161    -1.5594227498    -0.9470688162
    9      H      -1.2081394216    -1.6087631537     0.9185534662
   10      H       1.7462692722    -1.1765086205    -0.9043808706
   11      H       1.7600736136    -1.2110320558     0.8748759282
 ----------------------------------------------------------------
 Nuclear Repulsion Energy =   384.8322661460 hartrees
 There are       48 alpha and       46 beta electrons

                       Distance Matrix (Angstroms)
             Br(  1)   Br(  2)   C (  3)   C (  4)   C (  5)   H (  6)
   Br(  2)  7.840504
   C (  3)  5.350520  2.925616
   C (  4)  5.000000  4.298819  1.503160
   C (  5)  6.886726  1.980541  1.536391  2.515398
   H (  6)  5.132254  3.053481  1.094149  2.145663  2.144533
   H (  7)  5.100326  3.045500  1.093842  2.144156  2.144362  1.772623
   H (  8)  5.161707  4.878868  2.261571  1.090731  3.080216  3.106695
   H (  9)  5.195184  4.885114  2.262071  1.091599  3.080543  2.519427
   H ( 10)  7.356201  2.500162  2.192407  2.806808  1.089545  3.069296
   H ( 11)  7.378823  2.501255  2.192728  2.813866  1.089551  2.500923
             H (  7)   H (  8)   H (  9)   H ( 10)
   H (  8)  2.517176
   H (  9)  3.106220  1.866295
   H ( 10)  2.505143  2.988071  3.498352
   H ( 11)  3.069028  3.507560  2.995060  1.779645
 
 Applying Cartesian multipole field
    Component          Value
    ---------          -----
     (2,0,0)        1.00000E-11
     (0,2,0)        2.00000E-11
     (0,0,2)       -3.00000E-10
 Nucleus-field energy     =     0.0000000486 hartrees
 Requested basis set is 6-31G(d,p)
 There are 46 shells and 145 basis functions
 A cutoff of  1.0D-14 yielded    871 shell pairs
 There are      8114 function pairs
 Smallest overlap matrix eigenvalue = 7.23E-04
 Guess from superposition of atomic densities
 Warning:  Energy on first SCF cycle will be non-variational
 SAD guess density has 93.945746 electrons

 -----------------------------------------------------------------------
  General SCF calculation program by
  Eric Jon Sundstrom, Paul Horn, Yuezhi Mao, Dmitri Zuev, Alec White,
  David Stuck, Shaama M.S., Shane Yost, Joonho Lee, David Small,
  Daniel Levine, Susi Lehtola, Hugh Burton, Evgeny Epifanovsky
 -----------------------------------------------------------------------
 Exchange:     0.2000 Hartree-Fock + 0.0800 Slater + 0.7200 B88
 Correlation:  0.1900 VWN1RPA + 0.8100 LYP
 Using SG-1 standard quadrature grid
 using 12 threads for integral computing
 -------------------------------------------------------
 OpenMP Integral computing Module                
 Release: version 1.0, May 2013, Q-Chem Inc. Pittsburgh 
 -------------------------------------------------------
 -------------------------------------------------------
 OpenMP BLAS3 based DFT computing Module                
 Release: version 1.0, May 2013, Q-Chem Inc. Pittsburgh 
 -------------------------------------------------------
 A unrestricted SCF calculation will be
 performed using DIIS
 SCF converges when DIIS error is below 1.0e-06
 Alpha HF Exchange    Energy = -19.60365730329393
 Beta HF Exchange     Energy = -19.60365730329393
 DFT Correlation      Energy =  -5.19138490812346
 DFT Exchange         Energy = -155.85985153699042
 One-Electron (alpha) Energy = -4041.35114706855666
 One-Electron (beta)  Energy = -4041.35114706855666
 Total Coulomb        Energy = 2625.80438812372131
 ---------------------------------------
  Cycle       Energy         DIIS error
 ---------------------------------------
    1   -5272.3241908704      1.83e-01  
 Alpha HF Exchange    Energy = -19.82671062558538
 Beta HF Exchange     Energy = -19.62942267664875
 DFT Correlation      Energy =  -5.23382337113111
 DFT Exchange         Energy = -157.01773368477939
 One-Electron (alpha) Energy = -4070.66269070360886
 One-Electron (beta)  Energy = -4028.48160702199903
 Total Coulomb        Energy = 2650.77441166263634
    2   -5265.2453102264      1.05e-02  
 Alpha HF Exchange    Energy = -19.68826874091919
 Beta HF Exchange     Energy = -19.54476792212007
 DFT Correlation      Energy =  -5.21211438440069
 DFT Exchange         Energy = -156.16100597266981
 One-Electron (alpha) Energy = -4046.79777129501963
 One-Electron (beta)  Energy = -4013.44642056770772
 Total Coulomb        Energy = 2618.71692926503420
    3   -5257.3011534231      1.12e-02  
 Alpha HF Exchange    Energy = -19.74522401665347
 Beta HF Exchange     Energy = -19.49067072037819
 DFT Correlation      Energy =  -5.16215128316162
 DFT Exchange         Energy = -156.21197932527966
 One-Electron (alpha) Energy = -4053.00282289267807
 One-Electron (beta)  Energy = -4004.65968554873825
 Total Coulomb        Energy = 2642.25397160300599
    4   -5231.1862959892      2.06e-02  
 Alpha HF Exchange    Energy = -19.79206809311597
 Beta HF Exchange     Energy = -19.59850765904966
 DFT Correlation      Energy =  -5.22573183890705
 DFT Exchange         Energy = -156.75645813241982
 One-Electron (alpha) Energy = -4069.37607614442686
 One-Electron (beta)  Energy = -4028.30524075447647
 Total Coulomb        Energy = 2649.00619864887040
    5   -5265.2156177789      3.80e-03  
 Alpha HF Exchange    Energy = -19.74935164967799
 Beta HF Exchange     Energy = -19.55758844020336
 DFT Correlation      Energy =  -5.21140439187711
 DFT Exchange         Energy = -156.40896263361816
 One-Electron (alpha) Energy = -4062.67160028584840
 One-Electron (beta)  Energy = -4020.82204606406276
 Total Coulomb        Energy = 2634.24758086907286
    6   -5265.3411064015      2.22e-03  
 Alpha HF Exchange    Energy = -19.76263716594244
 Beta HF Exchange     Energy = -19.57946298156928
 DFT Correlation      Energy =  -5.21328642114753
 DFT Exchange         Energy = -156.53918585820998
 One-Electron (alpha) Energy = -4065.43805249395655
 One-Electron (beta)  Energy = -4024.60875541734913
 Total Coulomb        Energy = 2640.77288929349470
    7   -5265.5362248500      2.12e-03  
 Alpha HF Exchange    Energy = -19.76150485678652
 Beta HF Exchange     Energy = -19.57455363424998
 DFT Correlation      Energy =  -5.21411298749570
 DFT Exchange         Energy = -156.51833176499770
 One-Electron (alpha) Energy = -4064.20101290736102
 One-Electron (beta)  Energy = -4023.41307555509184
 Total Coulomb        Energy = 2638.26663676171484
    8   -5265.5836887496      1.06e-03  
 Alpha HF Exchange    Energy = -19.75828794623457
 Beta HF Exchange     Energy = -19.57067111028483
 DFT Correlation      Energy =  -5.21224529787076
 DFT Exchange         Energy = -156.48706857860364
 One-Electron (alpha) Energy = -4063.80485954336928
 One-Electron (beta)  Energy = -4023.04708612610102
 Total Coulomb        Energy = 2637.45636105715130
    9   -5265.5915913506      8.02e-04  
 Alpha HF Exchange    Energy = -19.75882469592859
 Beta HF Exchange     Energy = -19.57032513433856
 DFT Correlation      Energy =  -5.21227867836856
 DFT Exchange         Energy = -156.48753339082367
 One-Electron (alpha) Energy = -4063.75165846350365
 One-Electron (beta)  Energy = -4022.94563768183934
 Total Coulomb        Energy = 2637.29564457768083
   10   -5265.5983472724      5.05e-04  
 Alpha HF Exchange    Energy = -19.76053945597047
 Beta HF Exchange     Energy = -19.57089292080069
 DFT Correlation      Energy =  -5.21254834211935
 DFT Exchange         Energy = -156.49580814573994
 One-Electron (alpha) Energy = -4063.84975576358693
 One-Electron (beta)  Energy = -4023.00297570870134
 Total Coulomb        Energy = 2637.45904294049433
   11   -5265.6012112018      2.80e-04  
 Alpha HF Exchange    Energy = -19.76058389788712
 Beta HF Exchange     Energy = -19.57048883111646
 DFT Correlation      Energy =  -5.21244149569774
 DFT Exchange         Energy = -156.49406790576518
 One-Electron (alpha) Energy = -4063.85438788497640
 One-Electron (beta)  Energy = -4022.96818486818347
 Total Coulomb        Energy = 2637.42543449893446
   12   -5265.6024541900      6.71e-05  
 Alpha HF Exchange    Energy = -19.76070503921265
 Beta HF Exchange     Energy = -19.57045929289472
 DFT Correlation      Energy =  -5.21245839946062
 DFT Exchange         Energy = -156.49441814057013
 One-Electron (alpha) Energy = -4063.84514473398804
 One-Electron (beta)  Energy = -4022.95056763069033
 Total Coulomb        Energy = 2637.39896113358100
   13   -5265.6025259086      1.71e-05  
 Alpha HF Exchange    Energy = -19.76084200143110
 Beta HF Exchange     Energy = -19.57055424170720
 DFT Correlation      Energy =  -5.21248748364479
 DFT Exchange         Energy = -156.49533806260737
 One-Electron (alpha) Energy = -4063.85892103409697
 One-Electron (beta)  Energy = -4022.96053946014854
 Total Coulomb        Energy = 2637.42388569243440
   14   -5265.6025303965      5.04e-06  
 Alpha HF Exchange    Energy = -19.76080819669211
 Beta HF Exchange     Energy = -19.57052159737926
 DFT Correlation      Energy =  -5.21248457225740
 DFT Exchange         Energy = -156.49508574423135
 One-Electron (alpha) Energy = -4063.85653553747852
 One-Electron (beta)  Energy = -4022.95758986908550
 Total Coulomb        Energy = 2637.41822857022407
   15   -5265.6025307522      6.88e-07  Convergence criterion met
 ---------------------------------------
 SCF time:   CPU 51.40s  wall 5.00s 
<S^2> =          2.005367162
 Alpha HF Exchange    Energy = -19.76080819669211
 Beta HF Exchange     Energy = -19.57052159737926
 DFT Correlation      Energy =  -5.21248457225740
 DFT Exchange         Energy = -156.49508574423135
 One-Electron (alpha) Energy = -4063.85653553747852
 One-Electron (beta)  Energy = -4022.95758986908550
 Total Coulomb        Energy = 2637.41822857022407
 Nuclear repulsion Energy = 384.83226619467183
 SCF   energy in the final basis set =    -5265.6025307522
 Total energy in the final basis set =    -5265.6025307522
 
 --------------------------------------------------------------
 
                    Orbital Energies (a.u.)
 --------------------------------------------------------------
 
 Alpha MOs
 -- Occupied --
*******-482.848 -62.559 -62.506 -56.383 -56.376 -56.376 -56.327
-56.323 -56.323 -10.249 -10.213 -10.208  -8.746  -8.693  -6.583
 -6.561  -6.561  -6.523  -6.510  -6.510  -2.674  -2.668  -2.668
 -2.652  -2.652  -2.617  -2.613  -2.613  -2.603  -2.603  -0.827
 -0.799  -0.763  -0.667  -0.601  -0.493  -0.432  -0.430  -0.417
 -0.373  -0.362  -0.359  -0.325  -0.325  -0.278  -0.275  -0.224
 -- Virtual --
 -0.000   0.092   0.118   0.123   0.141   0.154   0.165   0.196
  0.205   0.239   0.254   0.284   0.309   0.309   0.340   0.349
  0.357   0.475   0.484   0.500   0.531   0.539   0.542   0.543
  0.545   0.572   0.579   0.579   0.604   0.617   0.622   0.678
  0.722   0.786   0.813   0.817   0.843   0.854   0.880   0.904
  0.925   0.990   1.141   1.209   1.311   1.415   1.481   1.507
  1.654   1.655   1.675   1.737   1.807   1.846   1.928   1.964
  2.002   2.056   2.110   2.169   2.200   2.234   2.331   2.332
  2.413   2.463   2.493   2.591   2.592   2.685   2.762   2.771
  2.835   2.862   3.196   3.251   3.362   3.365   3.443   3.531
  4.198   4.363   4.571   4.646   4.654   4.654   4.680   4.680
  4.729   4.744   4.812   4.813   4.983   6.203   6.303  90.120
 90.359
 
 Beta MOs
 -- Occupied --
*******-482.847 -62.558 -62.506 -56.378 -56.375 -56.375 -56.327
-56.323 -56.323 -10.247 -10.209 -10.199  -8.742  -8.693  -6.572
 -6.559  -6.559  -6.523  -6.510  -6.510  -2.666  -2.662  -2.662
 -2.651  -2.651  -2.617  -2.613  -2.613  -2.603  -2.603  -0.822
 -0.755  -0.753  -0.650  -0.589  -0.490  -0.426  -0.424  -0.407
 -0.359  -0.355  -0.311  -0.311  -0.276  -0.274
 -- Virtual --
 -0.237  -0.073   0.010   0.095   0.125   0.127   0.146   0.155
  0.174   0.200   0.209   0.243   0.259   0.312   0.314   0.314
  0.342   0.349   0.359   0.478   0.485   0.511   0.542   0.575
  0.585   0.587   0.587   0.589   0.589   0.593   0.617   0.622
  0.637   0.687   0.726   0.788   0.815   0.822   0.845   0.857
  0.887   0.908   0.928   1.005   1.144   1.217   1.323   1.443
  1.486   1.521   1.655   1.674   1.693   1.745   1.817   1.851
  1.931   2.010   2.016   2.057   2.111   2.174   2.202   2.235
  2.332   2.340   2.430   2.471   2.507   2.593   2.605   2.693
  2.763   2.773   2.838   2.865   3.198   3.255   3.364   3.369
  3.448   3.533   4.212   4.383   4.574   4.665   4.669   4.669
  4.682   4.682   4.729   4.745   4.812   4.814   4.983   6.219
  6.303  90.126  90.359
 --------------------------------------------------------------
 
          Ground-State Mulliken Net Atomic Charges

     Atom                 Charge (a.u.)    Spin (a.u.)
  --------------------------------------------------------
      1 Br                   -0.000496       1.000326
      2 Br                   -0.126735       0.028565
      3 C                    -0.195971      -0.073244
      4 C                    -0.229338       1.067118
      5 C                    -0.243365       0.043317
      6 H                     0.130550       0.013243
      7 H                     0.130848       0.013270
      8 H                     0.115084      -0.046382
      9 H                     0.114906      -0.046408
     10 H                     0.152244       0.000081
     11 H                     0.152273       0.000114
  --------------------------------------------------------
  Sum of atomic charges =     0.000000
  Sum of spin   charges =     2.000000

 -----------------------------------------------------------------
                    Cartesian Multipole Moments
 -----------------------------------------------------------------
    Charge (ESU x 10^10)
                 0.0000
    Dipole Moment (Debye)
         X      -1.6433      Y      -1.5654      Z      -0.0175
       Tot       2.2696
    Quadrupole Moments (Debye-Ang)
        XX     -63.2001     XY      -3.5753     YY     -54.5460
        XZ      -0.0163     YZ      -0.0279     ZZ     -56.1270
    Octopole Moments (Debye-Ang^2)
       XXX      66.6475    XXY     -30.7599    XYY      18.6604
       YYY    -112.1006    XXZ      -0.5366    XYZ       0.0035
       YYZ      -0.3250    XZZ      30.5146    YZZ     -43.7246
       ZZZ      -1.3596
    Hexadecapole Moments (Debye-Ang^3)
      XXXX   -3728.9247   XXXY     302.1799   XXYY    -632.8032
      XYYY     344.2521   YYYY    -634.0101   XXXZ      -1.0230
      XXYZ      -0.2467   XYYZ      -0.2887   YYYZ      -1.4976
      XXZZ    -649.8840   XYZZ     135.0815   YYZZ    -125.0679
      XZZZ      -1.1239   YZZZ      -1.1785   ZZZZ     -84.8475
 -----------------------------------------------------------------
 Calculating analytic gradient of the SCF energy
 Gradient of SCF Energy
            1           2           3           4           5           6
    1  -0.0001032   0.0000740   0.0029225  -0.0043454   0.0008865   0.0009204
    2   0.0000583   0.0000183   0.0032745   0.0011900   0.0023558  -0.0015577
    3  -0.0000042   0.0000295   0.0000703  -0.0006291   0.0000500   0.0001997
            7           8           9          10          11
    1   0.0008869  -0.0005677  -0.0006716   0.0000039  -0.0000064
    2  -0.0016712  -0.0017401  -0.0021293   0.0001125   0.0000888
    3  -0.0001326  -0.0032190   0.0036327  -0.0000112   0.0000140
 Max gradient component =       4.345E-03
 RMS gradient           =       1.606E-03
 Gradient time:  CPU 12.87 s  wall 1.14 s
 Geometry Optimization Parameters
   NAtoms,    NIC,     NZ,  NCons,   NDum,   NFix, NCnnct, MaxDiis
       11     156       0       1       0       0       0       0

 Cartesian Hessian Update
 Hessian Updated using BFGS Update


** CONSTRAINED OPTIMIZATION IN DELOCALIZED INTERNAL COORDINATES **
   Searching for a Minimum

   Optimization Cycle:   3

                       Coordinates (Angstroms)
     ATOM                X               Y               Z
      1  Br       -4.8207581700    2.0111695087    0.0047649476
      2  Br        2.9295571082    0.8254034266    0.0137639472
      3  C         0.1289487722   -0.0206347547    0.0202162960
      4  C        -0.9110974497   -1.1056378292   -0.0035199112
      5  C         1.5525492737   -0.5980272318   -0.0016400082
      6  H         0.0241953572    0.5886996683    0.9229340207
      7  H         0.0151634603    0.6334527918   -0.8491009998
      8  H        -1.2168578161   -1.5594227498   -0.9470688162
      9  H        -1.2081394216   -1.6087631537    0.9185534662
     10  H         1.7462692722   -1.1765086205   -0.9043808706
     11  H         1.7600736136   -1.2110320558    0.8748759282
   Point Group: c1    Number of degrees of freedom:    27


   Energy is  -5265.602530752

              Constraints and their Current Values
                                        Value     Constraint
   Distance(Angs):        1   4             5.000000     5.000000
 Hessian Updated using BFGS Update

 26 Hessian modes will be used to form the next step
  Hessian Eigenvalues:
     0.025216    0.045005    0.048211    0.048615    0.050973    0.055154
     0.061961    0.062492    0.062813    0.068630    0.068806    0.086087
     0.121860    0.127331    0.158412    0.159983    0.160649    0.222020
     0.243371    0.272022    0.286058    0.291766    0.296977    0.321121
     0.348753    0.348768

 Minimum Search - Taking Simple RFO Step
 Searching for Lamda that Minimizes Along All modes
 Value Taken    Lamda =  -0.00036102
 Step Taken.  Stepsize is  0.079556

                             Maximum     Tolerance    Cnvgd?
         Gradient           0.005796      0.000300      NO
         Displacement       0.043842      0.001200      NO
         Energy change     -0.000390      0.000001      NO


 New Cartesian Coordinates Obtained by Inverse Iteration

 Displacement from previous Coordinates is:  0.070519
 ----------------------------------------------------------------
             Standard Nuclear Orientation (Angstroms)
    I     Atom           X                Y                Z
 ----------------------------------------------------------------
    1      Br     -4.8123402827     2.0068732149     0.0049424244
    2      Br      2.9285821472     0.8178565745     0.0136253758
    3      C       0.1239970840    -0.0187046646     0.0202303359
    4      C      -0.8981867268    -1.1042904452    -0.0031936265
    5      C       1.5458734936    -0.6012317838    -0.0016675062
    6      H       0.0143290487     0.5946554606     0.9215278507
    7      H       0.0055079483     0.6395104014    -0.8477033902
    8      H      -1.2023559954    -1.5558509457    -0.9410624691
    9      H      -1.1935684964    -1.6046879562     0.9121757067
   10      H       1.7371694473    -1.1804904821    -0.9045053436
   11      H       1.7508963322    -1.2149403737     0.8750286420
 ----------------------------------------------------------------
 Nuclear Repulsion Energy =   385.3632069508 hartrees
 There are       48 alpha and       46 beta electrons

                       Distance Matrix (Angstroms)
             Br(  1)   Br(  2)   C (  3)   C (  4)   C (  5)   H (  6)
   Br(  2)  7.831712
   C (  3)  5.335787  2.926700
   C (  4)  5.000000  4.282417  1.491276
   C (  5)  6.872346  1.981396  1.536734  2.495296
   H (  6)  5.111871  3.060552  1.095708  2.138741  2.151294
   H (  7)  5.080192  3.052549  1.095717  2.137920  2.151266  1.769822
   H (  8)  5.159449  4.859071  2.246356  1.084446  3.057209  3.094227
   H (  9)  5.192490  4.865002  2.246528  1.084227  3.057217  2.509226
   H ( 10)  7.340467  2.501164  2.192534  2.786265  1.089610  3.074690
   H ( 11)  7.362962  2.502244  2.192820  2.793055  1.089619  2.508479
             H (  7)   H (  8)   H (  9)   H ( 10)
   H (  8)  2.507441
   H (  9)  3.093766  1.853902
   H ( 10)  2.512823  2.963620  3.474118
   H ( 11)  3.074601  3.483691  2.970380  1.779920
 
 Applying Cartesian multipole field
    Component          Value
    ---------          -----
     (2,0,0)        1.00000E-11
     (0,2,0)        2.00000E-11
     (0,0,2)       -3.00000E-10
 Nucleus-field energy     =     0.0000000485 hartrees
 Requested basis set is 6-31G(d,p)
 There are 46 shells and 145 basis functions
 A cutoff of  1.0D-14 yielded    871 shell pairs
 There are      8114 function pairs
 Smallest overlap matrix eigenvalue = 7.23E-04
 Guess from superposition of atomic densities
 Warning:  Energy on first SCF cycle will be non-variational
 SAD guess density has 93.945746 electrons

 -----------------------------------------------------------------------
  General SCF calculation program by
  Eric Jon Sundstrom, Paul Horn, Yuezhi Mao, Dmitri Zuev, Alec White,
  David Stuck, Shaama M.S., Shane Yost, Joonho Lee, David Small,
  Daniel Levine, Susi Lehtola, Hugh Burton, Evgeny Epifanovsky
 -----------------------------------------------------------------------
 Exchange:     0.2000 Hartree-Fock + 0.0800 Slater + 0.7200 B88
 Correlation:  0.1900 VWN1RPA + 0.8100 LYP
 Using SG-1 standard quadrature grid
 using 12 threads for integral computing
 -------------------------------------------------------
 OpenMP Integral computing Module                
 Release: version 1.0, May 2013, Q-Chem Inc. Pittsburgh 
 -------------------------------------------------------
 -------------------------------------------------------
 OpenMP BLAS3 based DFT computing Module                
 Release: version 1.0, May 2013, Q-Chem Inc. Pittsburgh 
 -------------------------------------------------------
 A unrestricted SCF calculation will be
 performed using DIIS
 SCF converges when DIIS error is below 1.0e-06
 Alpha HF Exchange    Energy = -19.60550232684913
 Beta HF Exchange     Energy = -19.60550232684913
 DFT Correlation      Energy =  -5.19182554579884
 DFT Exchange         Energy = -155.86361752554637
 One-Electron (alpha) Energy = -4041.87165045031361
 One-Electron (beta)  Energy = -4041.87165045031361
 Total Coulomb        Energy = 2626.30616762513091
 ---------------------------------------
  Cycle       Energy         DIIS error
 ---------------------------------------
    1   -5272.3403740012      1.83e-01  
 Alpha HF Exchange    Energy = -19.82793804512021
 Beta HF Exchange     Energy = -19.63033292286311
 DFT Correlation      Energy =  -5.23445997072862
 DFT Exchange         Energy = -157.02576714677369
 One-Electron (alpha) Energy = -4071.24571064782185
 One-Electron (beta)  Energy = -4028.98110583247808
 Total Coulomb        Energy = 2651.33700497569089
    2   -5265.2451025908      1.05e-02  
 Alpha HF Exchange    Energy = -19.68908071956928
 Beta HF Exchange     Energy = -19.54546463536993
 DFT Correlation      Energy =  -5.21260986626659
 DFT Exchange         Energy = -156.16643607871373
 One-Electron (alpha) Energy = -4047.33777315928000
 One-Electron (beta)  Energy = -4013.97609937317793
 Total Coulomb        Energy = 2619.26935417482719
    3   -5257.2949026582      1.12e-02  
 Alpha HF Exchange    Energy = -19.74597671637856
 Beta HF Exchange     Energy = -19.49146668409756
 DFT Correlation      Energy =  -5.16262741756472
 DFT Exchange         Energy = -156.21770118174067
 One-Electron (alpha) Energy = -4053.49343653434971
 One-Electron (beta)  Energy = -4005.13486458582520
 Total Coulomb        Energy = 2642.69112506376632
    4   -5231.1917410569      2.07e-02  
 Alpha HF Exchange    Energy = -19.79280931839712
 Beta HF Exchange     Energy = -19.59909476521641
 DFT Correlation      Energy =  -5.22618817901751
 DFT Exchange         Energy = -156.76103536248058
 One-Electron (alpha) Energy = -4069.92049032273781
 One-Electron (beta)  Energy = -4028.78797746496366
 Total Coulomb        Energy = 2649.50977154718248
    5   -5265.2146168663      3.82e-03  
 Alpha HF Exchange    Energy = -19.75036870876512
 Beta HF Exchange     Energy = -19.55861083256092
 DFT Correlation      Energy =  -5.21200543556919
 DFT Exchange         Energy = -156.41646272899681
 One-Electron (alpha) Energy = -4063.24645432785383
 One-Electron (beta)  Energy = -4021.32251785266180
 Total Coulomb        Energy = 2634.80260623108097
    6   -5265.3406066560      2.24e-03  
 Alpha HF Exchange    Energy = -19.76362183634751
 Beta HF Exchange     Energy = -19.58031107446805
 DFT Correlation      Energy =  -5.21386548370975
 DFT Exchange         Energy = -156.54594843063956
 One-Electron (alpha) Energy = -4066.02893965260455
 One-Electron (beta)  Energy = -4025.11570076388216
 Total Coulomb        Energy = 2641.34937422850544
    7   -5265.5358060138      2.13e-03  
 Alpha HF Exchange    Energy = -19.76246631790390
 Beta HF Exchange     Energy = -19.57540505521252
 DFT Correlation      Energy =  -5.21469750424811
 DFT Exchange         Energy = -156.52503710045133
 One-Electron (alpha) Energy = -4064.78570675473202
 One-Electron (beta)  Energy = -4023.91816829244226
 Total Coulomb        Energy = 2638.83438410874669
    8   -5265.5838899169      1.06e-03  
 Alpha HF Exchange    Energy = -19.75917837485154
 Beta HF Exchange     Energy = -19.57143149937183
 DFT Correlation      Energy =  -5.21281244082020
 DFT Exchange         Energy = -156.49314324904270
 One-Electron (alpha) Energy = -4064.37381886273806
 One-Electron (beta)  Energy = -4023.53832238794666
 Total Coulomb        Energy = 2637.99362102026453
    9   -5265.5918787952      7.98e-04  
 Alpha HF Exchange    Energy = -19.75976745199455
 Beta HF Exchange     Energy = -19.57112645444694
 DFT Correlation      Energy =  -5.21285599540486
 DFT Exchange         Energy = -156.49396654212913
 One-Electron (alpha) Energy = -4064.32327075376315
 One-Electron (beta)  Energy = -4023.44055212252852
 Total Coulomb        Energy = 2637.83971476270244
   10   -5265.5986175583      5.00e-04  
 Alpha HF Exchange    Energy = -19.76144117221390
 Beta HF Exchange     Energy = -19.57165749763723
 DFT Correlation      Energy =  -5.21311377712271
 DFT Exchange         Energy = -156.50192140565261
 One-Electron (alpha) Energy = -4064.41683199723866
 One-Electron (beta)  Energy = -4023.49500348279298
 Total Coulomb        Energy = 2637.99532526498388
   11   -5265.6014370684      2.76e-04  
 Alpha HF Exchange    Energy = -19.76148194226525
 Beta HF Exchange     Energy = -19.57125450396832
 DFT Correlation      Energy =  -5.21300611438284
 DFT Exchange         Energy = -156.50017492826765
 One-Electron (alpha) Energy = -4064.42019228982281
 One-Electron (beta)  Energy = -4023.46023213428225
 Total Coulomb        Energy = 2637.96048696929347
   12   -5265.6026479444      6.65e-05  
 Alpha HF Exchange    Energy = -19.76160460000108
 Beta HF Exchange     Energy = -19.57122680067451
 DFT Correlation      Energy =  -5.21302298881355
 DFT Exchange         Energy = -156.50053685915054
 One-Electron (alpha) Energy = -4064.41075468503186
 One-Electron (beta)  Energy = -4023.44274477018007
 Total Coulomb        Energy = 2637.93396550282750
   13   -5265.6027182017      1.71e-05  
 Alpha HF Exchange    Energy = -19.76174127450393
 Beta HF Exchange     Energy = -19.57132116718447
 DFT Correlation      Energy =  -5.21305202737574
 DFT Exchange         Energy = -156.50145409728037
 One-Electron (alpha) Energy = -4064.42440891488286
 One-Electron (beta)  Energy = -4023.45263576494199
 Total Coulomb        Energy = 2637.95868357410336
   14   -5265.6027226728      5.08e-06  
 Alpha HF Exchange    Energy = -19.76170770907282
 Beta HF Exchange     Energy = -19.57128834123424
 DFT Correlation      Energy =  -5.21304917403593
 DFT Exchange         Energy = -156.50120240670651
 One-Electron (alpha) Energy = -4064.42203643543371
 One-Electron (beta)  Energy = -4023.44968195780120
 Total Coulomb        Energy = 2637.95303598103419
   15   -5265.6027230439      7.08e-07  Convergence criterion met
 ---------------------------------------
 SCF time:   CPU 51.17s  wall 4.00s 
<S^2> =          2.005323373
 Alpha HF Exchange    Energy = -19.76170770907282
 Beta HF Exchange     Energy = -19.57128834123424
 DFT Correlation      Energy =  -5.21304917403593
 DFT Exchange         Energy = -156.50120240670651
 One-Electron (alpha) Energy = -4064.42203643543371
 One-Electron (beta)  Energy = -4023.44968195780120
 Total Coulomb        Energy = 2637.95303598103419
 Nuclear repulsion Energy = 385.36320699930712
 SCF   energy in the final basis set =    -5265.6027230439
 Total energy in the final basis set =    -5265.6027230439
 
 --------------------------------------------------------------
 
                    Orbital Energies (a.u.)
 --------------------------------------------------------------
 
 Alpha MOs
 -- Occupied --
*******-482.847 -62.559 -62.506 -56.384 -56.376 -56.376 -56.327
-56.323 -56.323 -10.249 -10.210 -10.208  -8.746  -8.693  -6.583
 -6.561  -6.561  -6.523  -6.510  -6.510  -2.674  -2.669  -2.669
 -2.652  -2.652  -2.616  -2.613  -2.612  -2.603  -2.603  -0.828
 -0.799  -0.764  -0.667  -0.602  -0.494  -0.433  -0.431  -0.418
 -0.373  -0.361  -0.360  -0.325  -0.325  -0.278  -0.275  -0.223
 -- Virtual --
  0.000   0.092   0.120   0.122   0.141   0.154   0.165   0.196
  0.207   0.241   0.255   0.284   0.309   0.309   0.340   0.349
  0.357   0.474   0.484   0.499   0.531   0.540   0.542   0.542
  0.547   0.573   0.579   0.579   0.607   0.617   0.623   0.678
  0.723   0.785   0.814   0.817   0.841   0.856   0.884   0.903
  0.926   0.992   1.144   1.212   1.310   1.415   1.481   1.506
  1.653   1.659   1.675   1.737   1.810   1.852   1.933   1.972
  2.007   2.055   2.107   2.169   2.201   2.235   2.332   2.333
  2.421   2.463   2.500   2.593   2.597   2.692   2.764   2.774
  2.838   2.872   3.196   3.258   3.364   3.371   3.452   3.535
  4.203   4.365   4.572   4.646   4.654   4.654   4.679   4.680
  4.730   4.745   4.812   4.813   4.983   6.203   6.303  90.120
 90.359
 
 Beta MOs
 -- Occupied --
*******-482.847 -62.558 -62.506 -56.378 -56.375 -56.375 -56.327
-56.323 -56.323 -10.247 -10.209 -10.197  -8.743  -8.693  -6.572
 -6.559  -6.559  -6.522  -6.510  -6.510  -2.666  -2.662  -2.662
 -2.651  -2.651  -2.616  -2.612  -2.612  -2.603  -2.603  -0.822
 -0.755  -0.754  -0.651  -0.590  -0.491  -0.427  -0.425  -0.408
 -0.358  -0.356  -0.311  -0.311  -0.276  -0.274
 -- Virtual --
 -0.237  -0.073   0.011   0.095   0.124   0.128   0.147   0.156
  0.174   0.199   0.210   0.245   0.262   0.312   0.314   0.314
  0.343   0.349   0.359   0.478   0.485   0.509   0.543   0.578
  0.587   0.587   0.587   0.588   0.589   0.593   0.617   0.625
  0.636   0.687   0.727   0.788   0.816   0.822   0.843   0.859
  0.891   0.908   0.929   1.007   1.147   1.220   1.322   1.445
  1.485   1.519   1.653   1.678   1.693   1.745   1.820   1.857
  1.936   2.014   2.023   2.057   2.107   2.175   2.203   2.236
  2.334   2.340   2.438   2.471   2.515   2.594   2.611   2.700
  2.765   2.776   2.841   2.875   3.198   3.261   3.366   3.375
  3.458   3.539   4.217   4.385   4.575   4.665   4.669   4.669
  4.682   4.682   4.730   4.745   4.812   4.814   4.984   6.219
  6.304  90.126  90.359
 --------------------------------------------------------------
 
          Ground-State Mulliken Net Atomic Charges

     Atom                 Charge (a.u.)    Spin (a.u.)
  --------------------------------------------------------
      1 Br                   -0.000495       1.000316
      2 Br                   -0.127829       0.030813
      3 C                    -0.196013      -0.073571
      4 C                    -0.228681       1.063216
      5 C                    -0.243185       0.044209
      6 H                     0.130150       0.013641
      7 H                     0.130410       0.013679
      8 H                     0.115316      -0.046214
      9 H                     0.115303      -0.046201
     10 H                     0.152502       0.000041
     11 H                     0.152522       0.000073
  --------------------------------------------------------
  Sum of atomic charges =     0.000000
  Sum of spin   charges =     2.000000

 -----------------------------------------------------------------
                    Cartesian Multipole Moments
 -----------------------------------------------------------------
    Charge (ESU x 10^10)
                 0.0000
    Dipole Moment (Debye)
         X      -1.6729      Y      -1.5638      Z      -0.0167
       Tot       2.2901
    Quadrupole Moments (Debye-Ang)
        XX     -63.2368     XY      -3.5998     YY     -54.5195
        XZ      -0.0186     YZ      -0.0273     ZZ     -56.1341
    Octopole Moments (Debye-Ang^2)
       XXX      65.8818    XXY     -30.5090    XYY      18.5428
       YYY    -111.5941    XXZ      -0.5311    XYZ       0.0000
       YYZ      -0.3230    XZZ      30.3495    YZZ     -43.5137
       ZZZ      -1.3637
    Hexadecapole Moments (Debye-Ang^3)
      XXXX   -3717.0607   XXXY     301.8928   XXYY    -630.7516
      XYYY     344.0176   YYYY    -630.9024   XXXZ      -0.9865
      XXYZ      -0.2236   XYYZ      -0.2829   YYYZ      -1.4958
      XXZZ    -647.9679   XYZZ     134.8789   YYZZ    -124.4970
      XZZZ      -1.0519   YZZZ      -1.1865   ZZZZ     -84.7366
 -----------------------------------------------------------------
 Calculating analytic gradient of the SCF energy
 Gradient of SCF Energy
            1           2           3           4           5           6
    1  -0.0001016  -0.0000534  -0.0000591  -0.0016100   0.0002614   0.0000342
    2   0.0000572   0.0000833  -0.0016415   0.0014363   0.0009205  -0.0006185
    3  -0.0000038   0.0000343   0.0000505   0.0000669   0.0000086   0.0004957
            7           8           9          10          11
    1   0.0000232   0.0006526   0.0006832   0.0000920   0.0000776
    2  -0.0005638   0.0000894   0.0001903   0.0000337   0.0000130
    3  -0.0005281   0.0005087  -0.0006317  -0.0000418   0.0000408
 Max gradient component =       1.641E-03
 RMS gradient           =       5.810E-04
 Gradient time:  CPU 12.82 s  wall 1.15 s
 Geometry Optimization Parameters
   NAtoms,    NIC,     NZ,  NCons,   NDum,   NFix, NCnnct, MaxDiis
       11     156       0       1       0       0       0       0

 Cartesian Hessian Update
 Hessian Updated using BFGS Update


** CONSTRAINED OPTIMIZATION IN DELOCALIZED INTERNAL COORDINATES **
   Searching for a Minimum

   Optimization Cycle:   4

                       Coordinates (Angstroms)
     ATOM                X               Y               Z
      1  Br       -4.8123402827    2.0068732149    0.0049424244
      2  Br        2.9285821472    0.8178565745    0.0136253758
      3  C         0.1239970840   -0.0187046646    0.0202303359
      4  C        -0.8981867268   -1.1042904452   -0.0031936265
      5  C         1.5458734936   -0.6012317838   -0.0016675062
      6  H         0.0143290487    0.5946554606    0.9215278507
[...]
   H (  9)  5.172633  4.870108  2.251417  1.085017  3.059390  2.513294
   H ( 10)  7.319241  2.501867  2.191213  2.768334  1.089450  3.076434
   H ( 11)  7.341341  2.502925  2.191564  2.775183  1.089466  2.511816
             H (  7)   H (  8)   H (  9)   H ( 10)
   H (  8)  2.510352
   H (  9)  3.096724  1.856444
   H ( 10)  2.516123  2.963299  3.473379
   H ( 11)  3.076375  3.484203  2.968821  1.780080
 
 Applying Cartesian multipole field
    Component          Value
    ---------          -----
     (2,0,0)        1.00000E-11
     (0,2,0)        2.00000E-11
     (0,0,2)       -3.00000E-10
 Nucleus-field energy     =     0.0000000482 hartrees
 Requested basis set is 6-31G(d,p)
 There are 46 shells and 145 basis functions
 A cutoff of  1.0D-14 yielded    871 shell pairs
 There are      8114 function pairs
 Smallest overlap matrix eigenvalue = 7.23E-04
 Guess from superposition of atomic densities
 Warning:  Energy on first SCF cycle will be non-variational
 SAD guess density has 93.945746 electrons

 -----------------------------------------------------------------------
  General SCF calculation program by
  Eric Jon Sundstrom, Paul Horn, Yuezhi Mao, Dmitri Zuev, Alec White,
  David Stuck, Shaama M.S., Shane Yost, Joonho Lee, David Small,
  Daniel Levine, Susi Lehtola, Hugh Burton, Evgeny Epifanovsky
 -----------------------------------------------------------------------
 Exchange:     0.2000 Hartree-Fock + 0.0800 Slater + 0.7200 B88
 Correlation:  0.1900 VWN1RPA + 0.8100 LYP
 Using SG-1 standard quadrature grid
 using 12 threads for integral computing
 -------------------------------------------------------
 OpenMP Integral computing Module                
 Release: version 1.0, May 2013, Q-Chem Inc. Pittsburgh 
 -------------------------------------------------------
 -------------------------------------------------------
 OpenMP BLAS3 based DFT computing Module                
 Release: version 1.0, May 2013, Q-Chem Inc. Pittsburgh 
 -------------------------------------------------------
 A unrestricted SCF calculation will be
 performed using DIIS
 SCF converges when DIIS error is below 1.0e-06
 Alpha HF Exchange    Energy = -19.60522423192610
 Beta HF Exchange     Energy = -19.60522423192610
 DFT Correlation      Energy =  -5.19177111607922
 DFT Exchange         Energy = -155.86306007247504
 One-Electron (alpha) Energy = -4042.09805632555026
 One-Electron (beta)  Energy = -4042.09805632555026
 Total Coulomb        Energy = 2626.53463724718722
 ---------------------------------------
  Cycle       Energy         DIIS error
 ---------------------------------------
    1   -5272.3383874472      1.83e-01  
 Alpha HF Exchange    Energy = -19.82771448057635
 Beta HF Exchange     Energy = -19.63024975899932
 DFT Correlation      Energy =  -5.23441657451026
 DFT Exchange         Energy = -157.02477981242890
 One-Electron (alpha) Energy = -4071.50150900169865
 One-Electron (beta)  Energy = -4029.20558935432928
 Total Coulomb        Energy = 2651.58933602686920
    2   -5265.2465553465      1.05e-02  
 Alpha HF Exchange    Energy = -19.68890694921364
 Beta HF Exchange     Energy = -19.54597381315469
 DFT Correlation      Energy =  -5.21257750575908
 DFT Exchange         Energy = -156.16689938643106
 One-Electron (alpha) Energy = -4047.56256710184834
 One-Electron (beta)  Energy = -4014.17303757419768
 Total Coulomb        Energy = 2619.46194069860212
    3   -5257.2996540229      1.12e-02  
 Alpha HF Exchange    Energy = -19.74607268213428
 Beta HF Exchange     Energy = -19.49130160241655
 DFT Correlation      Energy =  -5.16238966081093
 DFT Exchange         Energy = -156.21617472348430
 One-Electron (alpha) Energy = -4053.73344993465389
 One-Electron (beta)  Energy = -4005.35779675520416
 Total Coulomb        Energy = 2642.95914694760086
    4   -5231.1596708020      2.06e-02  
 Alpha HF Exchange    Energy = -19.79272500021476
 Beta HF Exchange     Energy = -19.59923150626092
 DFT Correlation      Energy =  -5.22635996433361
 DFT Exchange         Energy = -156.76249473267222
 One-Electron (alpha) Energy = -4070.25569519215742
 One-Electron (beta)  Energy = -4029.02937799153642
 Total Coulomb        Energy = 2649.85834126889949
    5   -5265.2191755091      3.79e-03  
 Alpha HF Exchange    Energy = -19.74977815352976
 Beta HF Exchange     Energy = -19.55790370265307
 DFT Correlation      Energy =  -5.21185908248523
 DFT Exchange         Energy = -156.41160574180859
 One-Electron (alpha) Energy = -4063.42353248496192
 One-Electron (beta)  Energy = -4021.46558026312459
 Total Coulomb        Energy = 2634.88940581914858
    6   -5265.3424860003      2.23e-03  
 Alpha HF Exchange    Energy = -19.76304037799849
 Beta HF Exchange     Energy = -19.57990272364545
 DFT Correlation      Energy =  -5.21382768220334
 DFT Exchange         Energy = -156.54265478860069
 One-Electron (alpha) Energy = -4066.24416256390441
 One-Electron (beta)  Energy = -4025.29111400919237
 Total Coulomb        Energy = 2641.51013430526291
    7   -5265.5362002311      2.12e-03  
 Alpha HF Exchange    Energy = -19.76215741514591
 Beta HF Exchange     Energy = -19.57514354188856
 DFT Correlation      Energy =  -5.21466116093511
 DFT Exchange         Energy = -156.52303556935340
 One-Electron (alpha) Energy = -4065.01020499396509
 One-Electron (beta)  Energy = -4024.11391205219888
 Total Coulomb        Energy = 2639.02666011428255
    8   -5265.5840870101      1.05e-03  
 Alpha HF Exchange    Energy = -19.75898674736951
 Beta HF Exchange     Energy = -19.57131007883006
 DFT Correlation      Energy =  -5.21280218846218
 DFT Exchange         Energy = -156.49211741433061
 One-Electron (alpha) Energy = -4064.61663456341921
 One-Electron (beta)  Energy = -4023.75428157934630
 Total Coulomb        Energy = 2638.22586354764826
    9   -5265.5919014150      7.99e-04  
 Alpha HF Exchange    Energy = -19.75952800824913
 Beta HF Exchange     Energy = -19.57094861313589
 DFT Correlation      Energy =  -5.21282604830520
 DFT Exchange         Energy = -156.49250136710452
 One-Electron (alpha) Energy = -4064.55885254856503
 One-Electron (beta)  Energy = -4023.65148420543528
 Total Coulomb        Energy = 2638.05913904791987
   10   -5265.5986341337      5.03e-04  
 Alpha HF Exchange    Energy = -19.76125376855917
 Beta HF Exchange     Energy = -19.57153597492490
 DFT Correlation      Energy =  -5.21308527499414
 DFT Exchange         Energy = -156.50084865160909
 One-Electron (alpha) Energy = -4064.65706954131883
 One-Electron (beta)  Energy = -4023.71197642233619
 Total Coulomb        Energy = 2638.22595937271581
   11   -5265.6014426519      2.82e-04  
 Alpha HF Exchange    Energy = -19.76133539252224
 Beta HF Exchange     Energy = -19.57114584531873
 DFT Correlation      Energy =  -5.21298162035444
 DFT Exchange         Energy = -156.49929837960889
 One-Electron (alpha) Energy = -4064.66324472144561
 One-Electron (beta)  Energy = -4023.67904838181812
 Total Coulomb        Energy = 2638.19597934277726
   12   -5265.6027073892      6.81e-05  
 Alpha HF Exchange    Energy = -19.76144659345489
 Beta HF Exchange     Energy = -19.57110651153570
 DFT Correlation      Energy =  -5.21299479643549
 DFT Exchange         Energy = -156.49956682937545
 One-Electron (alpha) Energy = -4064.65295216217146
 One-Electron (beta)  Energy = -4023.66054801394830
 Total Coulomb        Energy = 2638.16746628091323
   13   -5265.6027810169      1.81e-05  
 Alpha HF Exchange    Energy = -19.76158729222755
 Beta HF Exchange     Energy = -19.57120102143485
 DFT Correlation      Energy =  -5.21302404831263
 DFT Exchange         Energy = -156.50050016268341
 One-Electron (alpha) Energy = -4064.66674234821858
 One-Electron (beta)  Energy = -4023.67029517073206
 Total Coulomb        Energy = 2638.19219633268631
   14   -5265.6027861018      5.09e-06  
 Alpha HF Exchange    Energy = -19.76155224020308
 Beta HF Exchange     Energy = -19.57116732311077
 DFT Correlation      Energy =  -5.21302094997069
 DFT Exchange         Energy = -156.50023945665245
 One-Electron (alpha) Energy = -4064.66435800860245
 One-Electron (beta)  Energy = -4023.66732054688055
 Total Coulomb        Energy = 2638.18650444178866
   15   -5265.6027864745      7.41e-07  Convergence criterion met
 ---------------------------------------
 SCF time:   CPU 50.79s  wall 4.00s 
<S^2> =          2.005380123
 Alpha HF Exchange    Energy = -19.76155224020308
 Beta HF Exchange     Energy = -19.57116732311077
 DFT Correlation      Energy =  -5.21302094997069
 DFT Exchange         Energy = -156.50023945665245
 One-Electron (alpha) Energy = -4064.66435800860245
 One-Electron (beta)  Energy = -4023.66732054688055
 Total Coulomb        Energy = 2638.18650444178866
 Nuclear repulsion Energy = 385.58836760913994
 SCF   energy in the final basis set =    -5265.6027864745
 Total energy in the final basis set =    -5265.6027864745
 
 --------------------------------------------------------------
 
                    Orbital Energies (a.u.)
 --------------------------------------------------------------
 
 Alpha MOs
 -- Occupied --
*******-482.847 -62.559 -62.505 -56.384 -56.376 -56.376 -56.326
-56.323 -56.323 -10.249 -10.211 -10.208  -8.747  -8.692  -6.583
 -6.561  -6.561  -6.522  -6.510  -6.509  -2.674  -2.669  -2.669
 -2.652  -2.652  -2.616  -2.612  -2.612  -2.602  -2.602  -0.827
 -0.799  -0.764  -0.666  -0.602  -0.494  -0.433  -0.430  -0.418
 -0.374  -0.361  -0.360  -0.325  -0.325  -0.277  -0.274  -0.223
 -- Virtual --
  0.001   0.093   0.119   0.122   0.140   0.154   0.165   0.195
  0.208   0.242   0.254   0.283   0.309   0.309   0.340   0.349
  0.358   0.474   0.484   0.499   0.531   0.540   0.542   0.542
  0.549   0.572   0.579   0.579   0.608   0.617   0.623   0.678
  0.728   0.785   0.814   0.815   0.841   0.856   0.883   0.904
  0.927   0.991   1.148   1.213   1.308   1.420   1.480   1.494
  1.653   1.664   1.675   1.735   1.808   1.854   1.928   1.973
  2.007   2.056   2.107   2.171   2.201   2.234   2.327   2.336
  2.424   2.461   2.509   2.589   2.594   2.687   2.762   2.771
  2.842   2.873   3.196   3.257   3.368   3.370   3.445   3.538
  4.205   4.364   4.572   4.646   4.654   4.654   4.679   4.679
  4.730   4.745   4.812   4.814   4.984   6.203   6.304  90.120
 90.359
 
 Beta MOs
 -- Occupied --
*******-482.847 -62.558 -62.505 -56.378 -56.375 -56.375 -56.326
-56.323 -56.323 -10.247 -10.209 -10.197  -8.743  -8.692  -6.573
 -6.559  -6.559  -6.522  -6.510  -6.509  -2.666  -2.663  -2.663
 -2.651  -2.651  -2.616  -2.612  -2.612  -2.602  -2.602  -0.822
 -0.756  -0.754  -0.650  -0.590  -0.490  -0.427  -0.425  -0.408
 -0.358  -0.356  -0.311  -0.311  -0.275  -0.274
 -- Virtual --
 -0.238  -0.073   0.012   0.095   0.124   0.128   0.146   0.156
  0.174   0.199   0.212   0.246   0.261   0.312   0.313   0.313
  0.343   0.349   0.359   0.478   0.485   0.510   0.542   0.581
  0.586   0.587   0.588   0.588   0.588   0.593   0.618   0.625
  0.636   0.687   0.732   0.788   0.816   0.820   0.843   0.858
  0.890   0.908   0.930   1.006   1.151   1.221   1.320   1.455
  1.484   1.504   1.653   1.683   1.693   1.743   1.818   1.858
  1.932   2.009   2.029   2.058   2.107   2.177   2.203   2.235
  2.335   2.337   2.441   2.470   2.524   2.594   2.603   2.695
  2.763   2.774   2.845   2.876   3.198   3.261   3.370   3.374
  3.450   3.542   4.219   4.384   4.575   4.665   4.668   4.668
  4.682   4.682   4.730   4.745   4.812   4.814   4.985   6.219
  6.304  90.126  90.359
 --------------------------------------------------------------
 
          Ground-State Mulliken Net Atomic Charges

     Atom                 Charge (a.u.)    Spin (a.u.)
  --------------------------------------------------------
      1 Br                   -0.000485       1.000307
      2 Br                   -0.129223       0.032101
      3 C                    -0.195503      -0.073903
      4 C                    -0.230466       1.064873
      5 C                    -0.242942       0.043044
      6 H                     0.130277       0.013681
      7 H                     0.130530       0.013593
      8 H                     0.116090      -0.046911
      9 H                     0.116068      -0.046902
     10 H                     0.152822       0.000048
     11 H                     0.152832       0.000069
  --------------------------------------------------------
  Sum of atomic charges =     0.000000
  Sum of spin   charges =     2.000000

 -----------------------------------------------------------------
                    Cartesian Multipole Moments
 -----------------------------------------------------------------
    Charge (ESU x 10^10)
                 0.0000
    Dipole Moment (Debye)
         X      -1.7314      Y      -1.5432      Z      -0.0160
       Tot       2.3193
    Quadrupole Moments (Debye-Ang)
        XX     -63.3382     XY      -3.5516     YY     -54.4780
        XZ      -0.0184     YZ      -0.0289     ZZ     -56.1332
    Octopole Moments (Debye-Ang^2)
       XXX      65.4726    XXY     -30.8711    XYY      17.8561
       YYY    -110.1780    XXZ      -0.5309    XYZ      -0.0043
       YYZ      -0.3139    XZZ      29.9017    YZZ     -43.2337
       ZZZ      -1.3668
    Hexadecapole Moments (Debye-Ang^3)
      XXXX   -3717.6635   XXXY     304.1222   XXYY    -628.5311
      XYYY     338.8318   YYYY    -624.8939   XXXZ      -0.9537
      XXYZ      -0.2080   XYYZ      -0.2921   YYYZ      -1.5166
      XXZZ    -645.9789   XYZZ     133.7145   YYZZ    -123.6881
      XZZZ      -0.9882   YZZZ      -1.2076   ZZZZ     -84.7207
 -----------------------------------------------------------------
 Calculating analytic gradient of the SCF energy
 Gradient of SCF Energy
            1           2           3           4           5           6
    1  -0.0001113  -0.0000196  -0.0000743   0.0001354   0.0001031  -0.0000548
    2   0.0000513   0.0000170   0.0000821  -0.0000589  -0.0000445  -0.0001011
    3  -0.0000033   0.0000338   0.0000178  -0.0000052  -0.0000140   0.0000885
            7           8           9          10          11
    1  -0.0000346   0.0000514   0.0000240  -0.0000056  -0.0000137
    2  -0.0000633   0.0000214   0.0000095   0.0000529   0.0000335
    3  -0.0000730  -0.0000042  -0.0000437  -0.0000118   0.0000152
 Max gradient component =       1.354E-04
 RMS gradient           =       5.664E-05
 Gradient time:  CPU 12.69 s  wall 1.15 s
 Geometry Optimization Parameters
   NAtoms,    NIC,     NZ,  NCons,   NDum,   NFix, NCnnct, MaxDiis
       11     156       0       1       0       0       0       0

 Cartesian Hessian Update
 Hessian Updated using BFGS Update


** CONSTRAINED OPTIMIZATION IN DELOCALIZED INTERNAL COORDINATES **
   Searching for a Minimum

   Optimization Cycle:  12

                       Coordinates (Angstroms)
     ATOM                X               Y               Z
      1  Br       -4.7988322063    1.9972032675    0.0051795802
      2  Br        2.9340003336    0.8129314754    0.0135192635
      3  C         0.1233323202   -0.0138831133    0.0200712277
      4  C        -0.8850877674   -1.1144734252   -0.0035498695
      5  C         1.5439092072   -0.5998009012   -0.0014600872
      6  H         0.0096537565    0.6011209051    0.9195586555
      7  H         0.0011722121    0.6454365243   -0.8462375369
      8  H        -1.2077178830   -1.5525649756   -0.9423710393
      9  H        -1.1976553778   -1.6031963172    0.9133548526
     10  H         1.7318240021   -1.1800388106   -0.9041855237
     11  H         1.7453054027   -1.2140356291    0.8755184770
   Point Group: c1    Number of degrees of freedom:    27


   Energy is  -5265.602786474

              Constraints and their Current Values
                                        Value     Constraint
   Distance(Angs):        1   4             5.000000     5.000000
 Hessian Updated using BFGS Update

 26 Hessian modes will be used to form the next step
  Hessian Eigenvalues:
     0.002630    0.010083    0.020180    0.045003    0.048600    0.050975
     0.060013    0.061975    0.062559    0.063757    0.068854    0.075049
     0.110317    0.121958    0.159672    0.159988    0.165246    0.222824
     0.255514    0.272063    0.289366    0.296934    0.298686    0.341802
     0.348758    0.348854

 Minimum Search - Taking Simple RFO Step
 Searching for Lamda that Minimizes Along All modes
 Value Taken    Lamda =   0.00000000
 Step Taken.  Stepsize is  0.004091

                             Maximum     Tolerance    Cnvgd?
         Gradient           0.000091      0.000300     YES
         Displacement       0.002322      0.001200      NO
         Energy change     -0.000001      0.000001     YES


                       Distance Matrix (Angstroms)
             Br(  1)   Br(  2)   C (  3)   C (  4)   C (  5)   H (  6)
   Br(  2)  7.822996
   C (  3)  5.317179  2.929764
   C (  4)  5.000000  4.277922  1.492906
   C (  5)  6.853820  1.982017  1.536816  2.482925
   H (  6)  5.089860  3.068807  1.095550  2.143818  2.155094
   H (  7)  5.058876  3.060836  1.095498  2.143096  2.155064  1.766373
   H (  8)  5.137588  4.864476  2.250674  1.085080  3.060151  3.096311
   H (  9)  5.172633  4.870108  2.251417  1.085017  3.059390  2.513294
   H ( 10)  7.319241  2.501867  2.191213  2.768334  1.089450  3.076434
   H ( 11)  7.341341  2.502925  2.191564  2.775183  1.089466  2.511816
             H (  7)   H (  8)   H (  9)   H ( 10)
   H (  8)  2.510352
   H (  9)  3.096724  1.856444
   H ( 10)  2.516123  2.963299  3.473379
   H ( 11)  3.076375  3.484203  2.968821  1.780080
 
 Final energy is   -5265.60278647449     


 ******************************
 **  OPTIMIZATION CONVERGED  **
 ******************************

                       Coordinates (Angstroms)
     ATOM                X               Y               Z
      1  Br       -4.7988322063    1.9972032675    0.0051795802
      2  Br        2.9340003336    0.8129314754    0.0135192635
      3  C         0.1233323202   -0.0138831133    0.0200712277
      4  C        -0.8850877674   -1.1144734252   -0.0035498695
      5  C         1.5439092072   -0.5998009012   -0.0014600872
      6  H         0.0096537565    0.6011209051    0.9195586555
      7  H         0.0011722121    0.6454365243   -0.8462375369
      8  H        -1.2077178830   -1.5525649756   -0.9423710393
      9  H        -1.1976553778   -1.6031963172    0.9133548526
     10  H         1.7318240021   -1.1800388106   -0.9041855237
     11  H         1.7453054027   -1.2140356291    0.8755184770

Z-matrix Print:
$molecule
0 3
Br
C  1 1.982017
H  2 1.089450 1 105.361664
H  2 1.089466 1 105.433793 3 115.853980 0
C  2 1.536816 1 112.113945 3 -122.032714 0
H  5 1.095498 2 108.750846 1 57.928700 0
H  5 1.095550 2 108.750135 1 -58.791273 0
C  5 1.492906 2 110.065662 1 179.535123 0
H  8 1.085017 5 120.882517 2 85.039450 0
H  8 1.085080 5 120.808729 2 -85.241022 0
Br 8 5.000000 5 94.008555 2 -178.977852 0
$end

PES scan, value:    5.0000 energy: -5265.6027864745
------- Summary of potential scan: ------ 
    5.0000     -5265.6027864745
----------------------------------------- 
Archival summary:
1\1\hpc0242\JobtypUnspecified\ProcedureUnspecified\6-31G**\r236(3)\knomura\ThuMar1405:47:592019ThuMar1405:47:592019\0\\#,JobtypUnspecified,ProcedureUnspecified,6-31G**,\\0,3\Br\C,1,1.98202\H,2,1.08945,1,105.362\H,2,1.08947,1,105.434,3,115.854,0\C,2,1.53682,1,112.114,3,-122.033,0\H,5,1.0955,2,108.751,1,57.9287,0\H,5,1.09555,2,108.75,1,-58.7913,0\C,5,1.49291,2,110.066,1,179.535,0\H,8,1.08502,5,120.883,2,85.0395,0\H,8,1.08508,5,120.809,2,-85.241,0\Br,8,5,5,94.0086,2,-178.978,0\\\@

 Total job time:  71.85s(wall), 836.34s(cpu) 
 Thu Mar 14 05:47:59 2019

        *************************************************************
        *                                                           *
        *  Thank you very much for using Q-Chem.  Have a nice day.  *
        *                                                           *
        *************************************************************


