
Running Job 1 of 1 halogens/Bromine/04/Br_1_4.xyz.data/inputs/bond_triplet_3.7.in
qchem halogens/Bromine/04/Br_1_4.xyz.data/inputs/bond_triplet_3.7.in_22220.0 /staging/scratch/2868759/qchem22220/ 1
/usr/usc/qchem/5.1.1/exe/qcprog.exe_s halogens/Bromine/04/Br_1_4.xyz.data/inputs/bond_triplet_3.7.in_22220.0 /staging/scratch/2868759/qchem22220/
Check license passed

                  Welcome to Q-Chem
     A Quantum Leap Into The Future Of Chemistry


 Q-Chem 5.1, Q-Chem, Inc., Pleasanton, CA (2018)

 Yihan Shao,  Zhengting Gan,  E. Epifanovsky,  A. T. B. Gilbert,  M. Wormit,  
 J. Kussmann,  A. W. Lange,  A. Behn,  Jia Deng,  Xintian Feng,  D. Ghosh,  
 M. Goldey,  P. R. Horn,  L. D. Jacobson,  I. Kaliman,  T. Kus,  A. Landau,  
 Jie Liu,  E. I. Proynov,  R. M. Richard,  R. P. Steele,  E. J. Sundstrom,  
 H. L. Woodcock III,  P. M. Zimmerman,  D. Zuev,  B. Albrecht,  E. Alguire,  
 S. A. Baeppler,  D. Barton,  Z. Benda,  Y. A. Bernard,  E. J. Berquist,  
 K. B. Bravaya,  H. Burton,  D. Casanova,  Chun-Min Chang,  Yunqing Chen,  
 A. Chien,  K. D. Closser,  M. P. Coons,  S. Coriani,  S. Dasgupta,  
 A. L. Dempwolff,  M. Diedenhofen,  Hainam Do,  R. G. Edgar,  Po-Tung Fang,  
 S. Faraji,  S. Fatehi,  Qingguo Feng,  K. D. Fenk,  J. Fosso-Tande,  
 Qinghui Ge,  A. Ghysels,  G. Gidofalvi,  J. Gomes,  J. Gonthier,  A. Gunina,  
 D. Hait,  M. W. D. Hanson-Heine,  P. H. P. Harbach,  A. W. Hauser,  
 J. E. Herr,  E. G. Hohenstein,  Z. C. Holden,  Kerwin Hui,  B. C. Huynh,  
 T.-C. Jagau,  Hyunjun Ji,  B. Kaduk,  K. Khistyaev,  Jaehoon Kim,  
 P. Klunzinger,  K. Koh,  D. Kosenkov,  L. Koulias,  T. Kowalczyk,  
 C. M. Krauter,  A. Kunitsa,  Ka Un Lao,  A. Laurent,  K. V. Lawler,  
 Joonho Lee,  D. Lefrancois,  S. Lehtola,  D. S. Levine,  Yi-Pei Li,  
 You-Sheng Lin,  Fenglai Liu,  E. Livshits,  A. Luenser,  P. Manohar,  
 E. Mansoor,  S. F. Manzer,  Shan-Ping Mao,  Yuezhi Mao,  N. Mardirossian,  
 A. V. Marenich,  T. Markovich,  L. A. Martinez-Martinez,  S. A. Maurer,  
 N. J. Mayhall,  S. C. McKenzie,  J.-M. Mewes,  A. F. Morrison,  
 J. W. Mullinax,  K. Nanda,  T. S. Nguyen-Beck,  R. Olivares-Amaya,  
 J. A. Parkhill,  T. M. Perrine,  F. Plasser,  P. Pokhilko,  S. Prager,  
 A. Prociuk,  E. Ramos,  D. R. Rehn,  F. Rob,  M. Schneider,  N. Sergueev,  
 S. M. Sharada,  S. Sharma,  D. W. Small,  T. Stauch,  T. Stein,  
 Yu-Chuan Su,  A. J. W. Thom,  A. Tkatchenko,  T. Tsuchimochi,  N. M. Tubman,  
 L. Vogt,  M. L. Vidal,  O. Vydrov,  M. A. Watson,  J. Wenzel,  
 M. de Wergifosse,  T. A. Wesolowski,  A. White,  J. Witte,  A. Yamada,  
 Jun Yang,  K. Yao,  S. Yeganeh,  S. R. Yost,  Zhi-Qiang You,  A. Zech,  
 Igor Ying Zhang,  Xing Zhang,  Yan Zhao,  Ying Zhu,  B. R. Brooks,  
 G. K. L. Chan,  C. J. Cramer,  M. S. Gordon,  W. J. Hehre,  A. Klamt,  
 M. W. Schmidt,  C. D. Sherrill,  D. G. Truhlar,  A. Aspuru-Guzik,  R. Baer,  
 A. T. Bell,  N. A. Besley,  Jeng-Da Chai,  A. E. DePrince, III,  
 R. A. DiStasio Jr.,  A. Dreuw,  B. D. Dunietz,  T. R. Furlani,  
 Chao-Ping Hsu,  Yousung Jung,  Jing Kong,  D. S. Lambrecht,  WanZhen Liang,  
 C. Ochsenfeld,  V. A. Rassolov,  L. V. Slipchenko,  J. E. Subotnik,  
 T. Van Voorhis,  J. M. Herbert,  A. I. Krylov,  P. M. W. Gill,  M. Head-Gordon

 Contributors to earlier versions of Q-Chem not listed above: 
 R. D. Adamson,  B. Austin,  J. Baker,  G. J. O. Beran,  K. Brandhorst,  
 S. T. Brown,  E. F. C. Byrd,  A. K. Chakraborty,  C.-L. Cheng,  
 Siu Hung Chien,  D. M. Chipman,  D. L. Crittenden,  H. Dachsel,  
 R. J. Doerksen,  A. D. Dutoi,  L. Fusti-Molnar,  W. A. Goddard III,  
 A. Golubeva-Zadorozhnaya,  S. R. Gwaltney,  G. Hawkins,  A. Heyden,  
 S. Hirata,  G. Kedziora,  F. J. Keil,  C. Kelley,  Jihan Kim,  R. A. King,  
 R. Z. Khaliullin,  P. P. Korambath,  W. Kurlancheek,  A. M. Lee,  M. S. Lee,  
 S. V. Levchenko,  Ching Yeh Lin,  D. Liotard,  R. C. Lochan,  I. Lotan,  
 P. E. Maslen,  N. Nair,  D. P. O'Neill,  D. Neuhauser,  E. Neuscamman,  
 C. M. Oana,  R. Olson,  B. Peters,  R. Peverati,  P. A. Pieniazek,  
 Y. M. Rhee,  J. Ritchie,  M. A. Rohrdanz,  E. Rosta,  N. J. Russ,  
 H. F. Schaefer III,  N. E. Schultz,  N. Shenvi,  A. C. Simmonett,  A. Sodt,  
 D. Stuck,  K. S. Thanthiriwatte,  V. Vanovschi,  Tao Wang,  A. Warshel,  
 C. F. Williams,  Q. Wu,  X. Xu,  W. Zhang

 Please cite Q-Chem as follows:
 Y. Shao et al., Mol. Phys. 113, 184-215 (2015)
 DOI: 10.1080/00268976.2014.952696

 Q-Chem 5.1.1 for Intel X86 EM64T Linux

 Parts of Q-Chem use Armadillo 8.300.2 (Tropical Shenanigans).
 http://arma.sourceforge.net/

 Q-Chem begins on Thu Mar 14 06:03:51 2019  

Host: 
0

     Scratch files written to /staging/scratch/2868759/qchem22220//
 Aug318 |scratch|qcdevops|jenkins|workspace|build_RNUM 6013   
Processing $rem in /usr/usc/qchem/5.1.1/config/preferences.
 MEM_TOTAL  2000 
Input Ideriv = 2
Curr. Ideriv = -1
Max.  Ideriv = 2

Checking the input file for inconsistencies... 	...done.

--------------------------------------------------------------
User input:
--------------------------------------------------------------

$comment
potential surface scanner
$end

$rem
JOBTYPE  PES_SCAN
UNRESTRICTED TRUE
SYM_IGNORE  TRUE
GEOM_OPT_MAX_CYCLES 400
SCF_MAX_CYCLES 400
METHOD   B3LYP
BASIS   6-31G**
PDB_PRINT 2
SCF_CONVERGENCE 6
THRESH 14
SCF_PRINT 1
$end
$molecule
0 3
Br -4.011158 1.336192 0.005369
Br 2.918273 0.754457 0.015460
C 0.074550 0.065983 0.018699
C -0.995090 -0.975356 -0.003694
C 1.462198 -0.593051 -0.000746
H -0.005480 0.688317 0.916582
H -0.010469 0.730337 -0.847900
H -1.352717 -1.386778 -0.941736
H -1.336725 -1.443487 0.913484
H 1.623521 -1.182128 -0.902986
H 1.632998 -1.215785 0.876871
$end
$scan
stre 1 4 3.700000 3.701000 0.100000
$end
--------------------------------------------------------------
 ----------------------------------------------------------------
             Standard Nuclear Orientation (Angstroms)
    I     Atom           X                Y                Z
 ----------------------------------------------------------------
    1      Br     -4.0111580000     1.3361920000     0.0053690000
    2      Br      2.9182730000     0.7544570000     0.0154600000
    3      C       0.0745500000     0.0659830000     0.0186990000
    4      C      -0.9950900000    -0.9753560000    -0.0036940000
    5      C       1.4621980000    -0.5930510000    -0.0007460000
    6      H      -0.0054800000     0.6883170000     0.9165820000
    7      H      -0.0104690000     0.7303370000    -0.8479000000
    8      H      -1.3527170000    -1.3867780000    -0.9417360000
    9      H      -1.3367250000    -1.4434870000     0.9134840000
   10      H       1.6235210000    -1.1821280000    -0.9029860000
   11      H       1.6329980000    -1.2157850000     0.8768710000
 ----------------------------------------------------------------
 Nuclear Repulsion Energy =   415.6703436977 hartrees
 There are       48 alpha and       46 beta electrons
 Requested basis set is 6-31G(d,p)
 There are 46 shells and 145 basis functions

 Total QAlloc Memory Limit   2000 MB
 Mega-Array Size       188 MB
 MEM_STATIC part       192 MB
A total of 1 constraints
  
            1
    1   1.0100000
    2   1.0100000
    3   4.0100000
    4   3.7000000
    5   3.7010000
    6   0.1000000
    7   0.0000000
    8   0.0000000
    9   0.0000000
   10   0.0000000

                       Distance Matrix (Angstroms)
             Br(  1)   Br(  2)   C (  3)   C (  4)   C (  5)   H (  6)
   Br(  2)  6.953814
   C (  3)  4.278623  2.925879
   C (  4)  3.800000  4.278672  1.492990
   C (  5)  5.803416  1.983985  1.536317  2.486851
   H (  6)  4.158787  3.060184  1.095399  2.143372  2.153479
   H (  7)  4.135292  3.053441  1.095257  2.142790  2.153549  1.764989
   H (  8)  3.921592  4.872624  2.251675  1.084937  3.072330  3.094255
   H (  9)  3.962812  4.872619  2.251852  1.084932  3.064805  2.513327
   H ( 10)  6.238321  2.504054  2.192395  2.776437  1.089529  3.076205
   H ( 11)  6.255286  2.505158  2.192749  2.782094  1.089579  2.512328
             H (  7)   H (  8)   H (  9)   H ( 10)
   H (  8)  2.508508
   H (  9)  3.096278  1.856155
   H ( 10)  2.516045  2.983517  3.482948
   H ( 11)  3.076233  3.500152  2.978665  1.780200
 
 A cutoff of  1.0D-14 yielded    902 shell pairs
 There are      8498 function pairs
 
 -------------------------------------------------------
 OpenMP Integral Computing Module                       
 Release: version 1.0, May 2013, Q-Chem Inc. Pittsburgh 
 -------------------------------------------------------
 Integral Job Info:
 Integral job number is                      11
 Integral operator is                         1
 short-range coefficients                     0
 long-range coefficients              100000000
 Omega coefficients                           0
 if combine SR and LR in K                    0
 Integral screening is                        0
 Integral computing path is                   2
 max size of driver memory is            800000
 size of driver memory is                593474
 size of scratch memory is             15267112
 max col of scratch BK array               1296
 max len of scratch array in speh3          155
 max len of scratch index in speh4           18
 max int batch size is                      520
 min int batch size is                       52
 fixed nKL is                                52
 max L of basis functions is                  2
 order of int derivative is                   0
 number of shells is                         46
 number of basis is                         145
 number of cartesian basis is               145
 number of contracted shell pairs           902
 number of primitive shell pairs           3820
 maxK2 (contraction) of shell pair           36
 max number of K2 of shell pair               1
 max number of CS2 of shell pair             64
 max number of PS2 of shell pair            384
 mem total for path MDJ                  527196
 -------------------------------------------------------
 Smallest overlap matrix eigenvalue = 7.23E-04

 Scale SEOQF with 1.000000e-01/1.000000e-01/1.000000e+00

 Standard Electronic Orientation quadrupole field applied
 Nucleus-field energy     =     0.0000000335 hartrees
 Guess from superposition of atomic densities
 Warning:  Energy on first SCF cycle will be non-variational
 SAD guess density has 93.945746 electrons

 -----------------------------------------------------------------------
  General SCF calculation program by
  Eric Jon Sundstrom, Paul Horn, Yuezhi Mao, Dmitri Zuev, Alec White,
  David Stuck, Shaama M.S., Shane Yost, Joonho Lee, David Small,
  Daniel Levine, Susi Lehtola, Hugh Burton, Evgeny Epifanovsky
 -----------------------------------------------------------------------
 Exchange:     0.2000 Hartree-Fock + 0.0800 Slater + 0.7200 B88
 Correlation:  0.1900 VWN1RPA + 0.8100 LYP
 Using SG-1 standard quadrature grid
 using 12 threads for integral computing
 -------------------------------------------------------
 OpenMP Integral computing Module                
 Release: version 1.0, May 2013, Q-Chem Inc. Pittsburgh 
 -------------------------------------------------------
 -------------------------------------------------------
 OpenMP BLAS3 based DFT computing Module                
 Release: version 1.0, May 2013, Q-Chem Inc. Pittsburgh 
 -------------------------------------------------------
 A unrestricted SCF calculation will be
 performed using DIIS
 SCF converges when DIIS error is below 1.0e-06
 Alpha HF Exchange    Energy = -19.60532635957787
 Beta HF Exchange     Energy = -19.60532635957787
 DFT Correlation      Energy =  -5.19295109579528
 DFT Exchange         Energy = -155.86231637069375
 One-Electron (alpha) Energy = -4072.16447137758905
 One-Electron (beta)  Energy = -4072.16447137758905
 Total Coulomb        Energy = 2656.51547838357192
 ---------------------------------------
  Cycle       Energy         DIIS error
 ---------------------------------------
    1   -5272.4090408260      1.83e-01  
 Alpha HF Exchange    Energy = -19.82782360586538
 Beta HF Exchange     Energy = -19.62979751877425
 DFT Correlation      Energy =  -5.23535149355686
 DFT Exchange         Energy = -157.02307467706470
 One-Electron (alpha) Energy = -4102.58102133894408
 One-Electron (beta)  Energy = -4058.74174955541957
 Total Coulomb        Energy = 2682.11368251438944
    2   -5265.2547919440      1.05e-02  
 Alpha HF Exchange    Energy = -19.68568997140866
 Beta HF Exchange     Energy = -19.52650730816819
 DFT Correlation      Energy =  -5.21204702894539
 DFT Exchange         Energy = -156.10900904157802
 One-Electron (alpha) Energy = -4077.41426383694943
 One-Electron (beta)  Energy = -4043.03142743884882
 Total Coulomb        Energy = 2647.69076007171452
    3   -5257.6178408229      1.29e-02  
 Alpha HF Exchange    Energy = -19.69588074652020
 Beta HF Exchange     Energy = -19.51338270163994
 DFT Correlation      Energy =  -5.19056617138808
 DFT Exchange         Energy = -156.12199183633084
 One-Electron (alpha) Energy = -4089.96490274102280
 One-Electron (beta)  Energy = -4047.02205360676726
 Total Coulomb        Energy = 2660.74956486543488
    4   -5261.0888692070      1.25e-02  
 Alpha HF Exchange    Energy = -19.79222619874719
 Beta HF Exchange     Energy = -19.59790512808915
 DFT Correlation      Energy =  -5.22583074109893
 DFT Exchange         Energy = -156.74626028123029
 One-Electron (alpha) Energy = -4100.66178798721739
 One-Electron (beta)  Energy = -4058.07113311302101
 Total Coulomb        Energy = 2679.20238591944963
    5   -5265.2224137987      3.72e-03  
 Alpha HF Exchange    Energy = -19.73960958383120
 Beta HF Exchange     Energy = -19.54651474963730
 DFT Correlation      Energy =  -5.20954996810601
 DFT Exchange         Energy = -156.32468288358842
 One-Electron (alpha) Energy = -4093.20396146437224
 One-Electron (beta)  Energy = -4049.60650557160898
 Total Coulomb        Energy = 2662.59985955684897
    6   -5265.3606209330      2.30e-03  
 Alpha HF Exchange    Energy = -19.75808558981090
 Beta HF Exchange     Energy = -19.57386475530559
 DFT Correlation      Energy =  -5.21320414077537
 DFT Exchange         Energy = -156.49994440799514
 One-Electron (alpha) Energy = -4096.42014858660605
 One-Electron (beta)  Energy = -4053.57605322145309
 Total Coulomb        Energy = 2669.84191791839112
    7   -5265.5290390523      2.16e-03  
 Alpha HF Exchange    Energy = -19.76135848610726
 Beta HF Exchange     Energy = -19.57286141810258
 DFT Correlation      Energy =  -5.21543364357003
 DFT Exchange         Energy = -156.51241890820702
 One-Electron (alpha) Energy = -4096.03289617427708
 One-Electron (beta)  Energy = -4052.98546811493316
 Total Coulomb        Energy = 2668.83098265674334
    8   -5265.5791103572      1.13e-03  
 Alpha HF Exchange    Energy = -19.75953116880784
 Beta HF Exchange     Energy = -19.57044232532279
 DFT Correlation      Energy =  -5.21408824041413
 DFT Exchange         Energy = -156.49178635447603
 One-Electron (alpha) Energy = -4095.82088623329264
 One-Electron (beta)  Energy = -4052.79697504760179
 Total Coulomb        Energy = 2668.39323700297791
    9   -5265.5901286357      8.23e-04  
 Alpha HF Exchange    Energy = -19.75988391952097
 Beta HF Exchange     Energy = -19.57013220923014
 DFT Correlation      Energy =  -5.21394798903064
 DFT Exchange         Energy = -156.49056084490147
 One-Electron (alpha) Energy = -4095.73096617511828
 One-Electron (beta)  Energy = -4052.70042860879221
 Total Coulomb        Energy = 2668.19640975400216
   10   -5265.5991662613      4.32e-04  
 Alpha HF Exchange    Energy = -19.76168267170918
 Beta HF Exchange     Energy = -19.57106068145117
 DFT Correlation      Energy =  -5.21423554835190
 DFT Exchange         Energy = -156.50046841668879
 One-Electron (alpha) Energy = -4095.83177866313781
 One-Electron (beta)  Energy = -4052.78868312119766
 Total Coulomb        Energy = 2668.39586790769044
   11   -5265.6016974636      2.04e-04  
 Alpha HF Exchange    Energy = -19.76151292328224
 Beta HF Exchange     Energy = -19.57077288623454
 DFT Correlation      Energy =  -5.21411753905607
 DFT Exchange         Energy = -156.49833420969537
 One-Electron (alpha) Energy = -4095.81922049654531
 One-Electron (beta)  Energy = -4052.76790666035686
 Total Coulomb        Energy = 2668.35914197849115
   12   -5265.6023790054      5.15e-05  
 Alpha HF Exchange    Energy = -19.76165556024786
 Beta HF Exchange     Energy = -19.57079738218257
 DFT Correlation      Energy =  -5.21415209641944
 DFT Exchange         Energy = -156.49900707620037
 One-Electron (alpha) Energy = -4095.81816966059478
 One-Electron (beta)  Energy = -4052.76383120246055
 Total Coulomb        Energy = 2668.35484492767273
   13   -5265.6024243192      1.30e-05  
 Alpha HF Exchange    Energy = -19.76167693850130
 Beta HF Exchange     Energy = -19.57080408955813
 DFT Correlation      Energy =  -5.21414943623675
 DFT Exchange         Energy = -156.49911265969885
 One-Electron (alpha) Energy = -4095.82142044980537
 One-Electron (beta)  Energy = -4052.76602377850759
 Total Coulomb        Energy = 2668.36041685471082
   14   -5265.6024267663      2.80e-06  
 Alpha HF Exchange    Energy = -19.76166219575501
 Beta HF Exchange     Energy = -19.57078988523561
 DFT Correlation      Energy =  -5.21415050828507
 DFT Exchange         Energy = -156.49900869981357
 One-Electron (alpha) Energy = -4095.82012670176209
 One-Electron (beta)  Energy = -4052.76471677056088
 Total Coulomb        Energy = 2668.35768417442341
   15   -5265.6024268557      8.02e-07  Convergence criterion met
 ---------------------------------------
 SCF time:   CPU 54.11s  wall 4.00s 
<S^2> =          2.005416346
 Alpha HF Exchange    Energy = -19.76166219575501
 Beta HF Exchange     Energy = -19.57078988523561
 DFT Correlation      Energy =  -5.21415050828507
 DFT Exchange         Energy = -156.49900869981357
 One-Electron (alpha) Energy = -4095.82012670176209
 One-Electron (beta)  Energy = -4052.76471677056088
 Total Coulomb        Energy = 2668.35768417442341
 Nuclear repulsion Energy = 415.67034373126540
 SCF   energy in the final basis set =    -5265.6024268557
 Total energy in the final basis set =    -5265.6024268557
 
 --------------------------------------------------------------
 
                    Orbital Energies (a.u.)
 --------------------------------------------------------------
 
 Alpha MOs
 -- Occupied --
*******-482.845 -62.560 -62.504 -56.384 -56.377 -56.377 -56.325
-56.321 -56.321 -10.247 -10.207 -10.206  -8.747  -8.691  -6.584
 -6.562  -6.562  -6.521  -6.508  -6.508  -2.675  -2.669  -2.669
 -2.653  -2.653  -2.615  -2.611  -2.611  -2.601  -2.601  -0.825
 -0.800  -0.761  -0.665  -0.600  -0.491  -0.431  -0.428  -0.416
 -0.374  -0.358  -0.358  -0.326  -0.326  -0.276  -0.273  -0.218
 -- Virtual --
  0.001   0.093   0.118   0.123   0.138   0.155   0.171   0.197
  0.211   0.244   0.256   0.285   0.307   0.312   0.342   0.350
  0.360   0.480   0.485   0.501   0.527   0.537   0.542   0.547
  0.558   0.572   0.577   0.594   0.619   0.630   0.679   0.689
  0.733   0.789   0.817   0.817   0.844   0.857   0.887   0.907
  0.928   0.997   1.151   1.216   1.311   1.424   1.486   1.495
  1.655   1.666   1.689   1.737   1.814   1.858   1.932   1.979
  2.009   2.057   2.110   2.173   2.203   2.237   2.338   2.340
  2.431   2.468   2.514   2.590   2.595   2.689   2.765   2.773
  2.845   2.877   3.199   3.260   3.370   3.373   3.447   3.542
  4.209   4.369   4.577   4.646   4.654   4.654   4.679   4.682
  4.731   4.747   4.813   4.815   4.985   6.209   6.305  90.135
 90.360
 
 Beta MOs
 -- Occupied --
*******-482.845 -62.558 -62.504 -56.379 -56.376 -56.375 -56.325
-56.321 -56.321 -10.245 -10.207 -10.194  -8.743  -8.691  -6.573
 -6.560  -6.560  -6.521  -6.508  -6.508  -2.667  -2.663  -2.663
 -2.652  -2.652  -2.614  -2.611  -2.610  -2.601  -2.601  -0.820
 -0.756  -0.751  -0.648  -0.587  -0.488  -0.425  -0.423  -0.406
 -0.356  -0.354  -0.311  -0.311  -0.274  -0.273
 -- Virtual --
 -0.238  -0.070   0.013   0.096   0.125   0.125   0.147   0.157
  0.181   0.200   0.215   0.247   0.263   0.312   0.314   0.320
  0.344   0.351   0.361   0.484   0.486   0.514   0.546   0.574
  0.583   0.585   0.587   0.588   0.591   0.603   0.620   0.634
  0.682   0.726   0.737   0.793   0.819   0.822   0.846   0.860
  0.893   0.911   0.931   1.012   1.154   1.224   1.323   1.460
  1.491   1.503   1.655   1.685   1.708   1.746   1.823   1.863
  1.935   2.012   2.034   2.059   2.110   2.179   2.205   2.238
  2.340   2.349   2.448   2.477   2.528   2.596   2.604   2.696
  2.766   2.776   2.848   2.881   3.201   3.263   3.372   3.377
  3.453   3.545   4.222   4.390   4.580   4.665   4.668   4.668
  4.682   4.684   4.731   4.747   4.814   4.815   4.985   6.225
  6.305  90.142  90.361
 --------------------------------------------------------------
 
          Ground-State Mulliken Net Atomic Charges

     Atom                 Charge (a.u.)    Spin (a.u.)
  --------------------------------------------------------
      1 Br                   -0.001725       1.007220
      2 Br                   -0.132205       0.031884
      3 C                    -0.193282      -0.073738
      4 C                    -0.220208       1.057570
      5 C                    -0.243732       0.042687
      6 H                     0.129260       0.014280
      7 H                     0.129383       0.013583
      8 H                     0.114364      -0.046858
      9 H                     0.113930      -0.046837
     10 H                     0.152138       0.000119
     11 H                     0.152079       0.000090
  --------------------------------------------------------
  Sum of atomic charges =    -0.000000
  Sum of spin   charges =     2.000000

 -----------------------------------------------------------------
                    Cartesian Multipole Moments
 -----------------------------------------------------------------
    Charge (ESU x 10^10)
                 0.0000
    Dipole Moment (Debye)
         X      -1.8927      Y      -1.4671      Z      -0.0188
       Tot       2.3948
    Quadrupole Moments (Debye-Ang)
        XX     -64.1945     XY      -2.0019     YY     -56.6050
        XZ      -0.0568     YZ      -0.1471     ZZ     -53.3527
    Octopole Moments (Debye-Ang^2)
       XXX      37.5469    XXY     -32.0522    XYY      19.6192
       YYY     -86.2237    XXZ      -0.2814    XYZ       0.4136
       YYZ      -0.6594    XZZ       5.4298    YZZ     -27.2398
       ZZZ      -1.4333
    Hexadecapole Moments (Debye-Ang^3)
      XXXX   -3025.6521   XXXY     187.8948   XXYY    -550.9135
      XYYY     181.8722   YYYY    -407.0693   XXXZ      -3.3143
      XXYZ      -1.6569   XYYZ       0.7249   YYYZ      -2.1715
      XXZZ    -467.0222   XYZZ      42.5671   YYZZ     -73.2501
      XZZZ      -1.7272   YZZZ      -1.1437   ZZZZ     -78.2622
 -----------------------------------------------------------------
 Calculating analytic gradient of the SCF energy
 Gradient of SCF Energy
            1           2           3           4           5           6
    1   0.0006996  -0.0000200  -0.0000469  -0.0006734   0.0000541  -0.0000375
    2  -0.0005319   0.0000270   0.0001006   0.0004236   0.0000449  -0.0000499
    3  -0.0000182   0.0000225   0.0000179  -0.0000028   0.0000059   0.0000339
            7           8           9          10          11
    1  -0.0000356   0.0000173   0.0000425   0.0000044  -0.0000046
    2  -0.0000437   0.0000284  -0.0000128   0.0000151  -0.0000013
    3  -0.0000266  -0.0000075  -0.0000249   0.0000026  -0.0000028
 Max gradient component =       6.996E-04
 RMS gradient           =       2.087E-04
 Gradient time:  CPU 15.86 s  wall 1.41 s
 Geometry Optimization Parameters
   NAtoms,    NIC,     NZ,  NCons,   NDum,   NFix, NCnnct, MaxDiis
       11     120       0       1       0       0       0       0


** CONSTRAINED OPTIMIZATION IN DELOCALIZED INTERNAL COORDINATES **
   Searching for a Minimum

   Optimization Cycle:   1

                       Coordinates (Angstroms)
     ATOM                X               Y               Z
      1  Br       -4.0111580000    1.3361920000    0.0053690000
      2  Br        2.9182730000    0.7544570000    0.0154600000
      3  C         0.0745500000    0.0659830000    0.0186990000
      4  C        -0.9950900000   -0.9753560000   -0.0036940000
      5  C         1.4621980000   -0.5930510000   -0.0007460000
      6  H        -0.0054800000    0.6883170000    0.9165820000
      7  H        -0.0104690000    0.7303370000   -0.8479000000
      8  H        -1.3527170000   -1.3867780000   -0.9417360000
      9  H        -1.3367250000   -1.4434870000    0.9134840000
     10  H         1.6235210000   -1.1821280000   -0.9029860000
     11  H         1.6329980000   -1.2157850000    0.8768710000
   Point Group: c1    Number of degrees of freedom:    27


   Energy is  -5265.602426856

              Constraints and their Current Values
                                        Value     Constraint
   Distance(Angs):        1   4             3.800000     3.700000

 Attempting to Generate Delocalized Internal Coordinates

   Using Lagrange Multiplier Algorithm


 28 Hessian modes will be used to form the next step
  Hessian Eigenvalues:
    -0.995227    0.023142    0.041103    0.045000    0.049847    0.050912
     0.060412    0.069273    0.071713    0.073662    0.082514    0.083053
     0.087182    0.089996    0.129232    0.156956    0.160000    0.160000
     0.222644    0.267708    0.281553    0.288477    0.301181    0.308501
     0.316709    0.348614    0.348671    1.004796

 Minimum Search - Taking P-RFO Step
 Searching for Lamda that Maximizes Along the Constraint modes Only
 Value Taken    Lamda =   0.01786395
 Searching for Lamda that Minimizes Along All other modes
 Value Taken    Lamda =  -0.01723422
 Step Taken.  Stepsize is  0.185719

                             Maximum     Tolerance    Cnvgd?
         Gradient            0.188973       0.000300      NO
         Displacement        0.185713       0.001200      NO
         Energy change     *********       0.000001      NO


 New Cartesian Coordinates Obtained by Inverse Iteration

 Displacement from previous Coordinates is:  0.161504
 ----------------------------------------------------------------
             Standard Nuclear Orientation (Angstroms)
    I     Atom           X                Y                Z
 ----------------------------------------------------------------
    1      Br     -3.9725222309     1.2863315191     0.0052261764
    2      Br      2.9228560244     0.7485391089     0.0157634302
    3      C       0.0747202544     0.0784426441     0.0186375347
    4      C      -1.0271706156    -0.9558961048    -0.0041673010
    5      C       1.4580623932    -0.5895193558    -0.0007135912
    6      H       0.0135488151     0.6955761404     0.9196264566
    7      H       0.0085360462     0.7375611035    -0.8508353751
    8      H      -1.3672772534    -1.3860208808    -0.9530753576
    9      H      -1.3513879921    -1.4434058134     0.9250450369
   10      H       1.6157362350    -1.1795287310    -0.9029866832
   11      H       1.6247993238    -1.2133786302     0.8768826732
 ----------------------------------------------------------------
 Nuclear Repulsion Energy =   417.2932658835 hartrees
 There are       48 alpha and       46 beta electrons

                       Distance Matrix (Angstroms)
             Br(  1)   Br(  2)   C (  3)   C (  4)   C (  5)   H (  6)
   Br(  2)  6.916327
   C (  3)  4.223665  2.925904
   C (  4)  3.701725  4.302117  1.511470
   C (  5)  5.745442  1.984009  1.536289  2.512096
   H (  6)  4.132055  3.046940  1.093790  2.159595  2.141288
   H (  7)  4.108870  3.040456  1.093069  2.158085  2.141256  1.770967
   H (  8)  3.853195  4.888787  2.273376  1.095950  3.086090  3.121977
   H (  9)  3.894596  4.888822  2.274067  1.098280  3.078825  2.537386
   H ( 10)  6.175269  2.504019  2.192399  2.800508  1.089527  3.066748
   H ( 11)  6.191797  2.505115  2.192745  2.806330  1.089576  2.498412
             H (  7)   H (  8)   H (  9)   H ( 10)
   H (  8)  2.532374
   H (  9)  3.124062  1.879064
   H ( 10)  2.502208  2.990571  3.495019
   H ( 11)  3.066510  3.511563  2.985452  1.780214
 
 Applying Cartesian multipole field
    Component          Value
    ---------          -----
     (2,0,0)        1.00000E-11
     (0,2,0)        2.00000E-11
     (0,0,2)       -3.00000E-10
 Nucleus-field energy     =     0.0000000328 hartrees
 Requested basis set is 6-31G(d,p)
 There are 46 shells and 145 basis functions
 A cutoff of  1.0D-14 yielded    906 shell pairs
 There are      8540 function pairs
 Smallest overlap matrix eigenvalue = 7.23E-04
 Guess from superposition of atomic densities
 Warning:  Energy on first SCF cycle will be non-variational
 SAD guess density has 93.945746 electrons

 -----------------------------------------------------------------------
  General SCF calculation program by
  Eric Jon Sundstrom, Paul Horn, Yuezhi Mao, Dmitri Zuev, Alec White,
  David Stuck, Shaama M.S., Shane Yost, Joonho Lee, David Small,
  Daniel Levine, Susi Lehtola, Hugh Burton, Evgeny Epifanovsky
 -----------------------------------------------------------------------
 Exchange:     0.2000 Hartree-Fock + 0.0800 Slater + 0.7200 B88
 Correlation:  0.1900 VWN1RPA + 0.8100 LYP
 Using SG-1 standard quadrature grid
 using 12 threads for integral computing
 -------------------------------------------------------
 OpenMP Integral computing Module                
 Release: version 1.0, May 2013, Q-Chem Inc. Pittsburgh 
 -------------------------------------------------------
 -------------------------------------------------------
 OpenMP BLAS3 based DFT computing Module                
 Release: version 1.0, May 2013, Q-Chem Inc. Pittsburgh 
 -------------------------------------------------------
 A unrestricted SCF calculation will be
 performed using DIIS
 SCF converges when DIIS error is below 1.0e-06
 Alpha HF Exchange    Energy = -19.60218639250792
 Beta HF Exchange     Energy = -19.60218639250792
 DFT Correlation      Energy =  -5.19244609498574
 DFT Exchange         Energy = -155.85567273191498
 One-Electron (alpha) Energy = -4073.80511926635336
 One-Electron (beta)  Energy = -4073.80511926635336
 Total Coulomb        Energy = 2658.18249235815892
 ---------------------------------------
  Cycle       Energy         DIIS error
 ---------------------------------------
    1   -5272.3869718702      1.83e-01  
 Alpha HF Exchange    Energy = -19.82575567745829
 Beta HF Exchange     Energy = -19.62793926767774
 DFT Correlation      Energy =  -5.23451127587421
 DFT Exchange         Energy = -157.00865825916696
 One-Electron (alpha) Energy = -4104.26097328297419
 One-Electron (beta)  Energy = -4060.32992989041395
 Total Coulomb        Energy = 2683.73918627097555
    2   -5265.2553154663      1.05e-02  
 Alpha HF Exchange    Energy = -19.68324036494066
 Beta HF Exchange     Energy = -19.52487953595375
 DFT Correlation      Energy =  -5.21107685616945
 DFT Exchange         Energy = -156.09682811405474
 One-Electron (alpha) Energy = -4079.09018413058357
 One-Electron (beta)  Energy = -4044.67301863899957
 Total Coulomb        Energy = 2649.23403588282872
    3   -5257.7519258416      1.31e-02  
 Alpha HF Exchange    Energy = -19.69641195161224
 Beta HF Exchange     Energy = -19.51319371085918
 DFT Correlation      Energy =  -5.19072479409021
 DFT Exchange         Energy = -156.11897508611099
 One-Electron (alpha) Energy = -4091.79383745788527
 One-Electron (beta)  Energy = -4048.75755541958597
 Total Coulomb        Energy = 2662.48718802695339
    4   -5261.2902444769      1.20e-02  
 Alpha HF Exchange    Energy = -19.79026869604008
 Beta HF Exchange     Energy = -19.59539637899785
 DFT Correlation      Energy =  -5.22537549028780
 DFT Exchange         Energy = -156.73207366220913
 One-Electron (alpha) Energy = -4102.37743069886164
 One-Electron (beta)  Energy = -4059.61251232475706
 Total Coulomb        Energy = 2680.78400129220199
    5   -5265.2557900427      3.41e-03  
 Alpha HF Exchange    Energy = -19.73605846299971
 Beta HF Exchange     Energy = -19.54562103117186
 DFT Correlation      Energy =  -5.20833908022335
 DFT Exchange         Energy = -156.30431567958396
 One-Electron (alpha) Energy = -4094.59552372179814
 One-Electron (beta)  Energy = -4051.73354269219499
 Total Coulomb        Energy = 2664.26086158419002
    6   -5265.5692731675      1.76e-03  
 Alpha HF Exchange    Energy = -19.75732576835292
 Beta HF Exchange     Energy = -19.56846278973948
 DFT Correlation      Energy =  -5.21334297685885
 DFT Exchange         Energy = -156.47785186397536
 One-Electron (alpha) Energy = -4097.18856227276865
 One-Electron (beta)  Energy = -4054.05904640725976
 Total Coulomb        Energy = 2669.38082801016617
    7   -5265.5904981525      8.56e-04  
 Alpha HF Exchange    Energy = -19.75892265796770
 Beta HF Exchange     Energy = -19.56843493912905
 DFT Correlation      Energy =  -5.21347339642426
 DFT Exchange         Energy = -156.48170992373304
 One-Electron (alpha) Energy = -4097.38367993303018
 One-Electron (beta)  Energy = -4054.21381928106211
 Total Coulomb        Energy = 2669.72890213174514
    8   -5265.5978720833      4.68e-04  
 Alpha HF Exchange    Energy = -19.75804745272695
 Beta HF Exchange     Energy = -19.56752359482022
 DFT Correlation      Energy =  -5.21334064203794
 DFT Exchange         Energy = -156.47459265470022
 One-Electron (alpha) Energy = -4097.28319646452655
 One-Electron (beta)  Energy = -4054.09439481681284
 Total Coulomb        Energy = 2669.49763650526847
    9   -5265.6001932041      3.19e-04  
 Alpha HF Exchange    Energy = -19.75908900000672
 Beta HF Exchange     Energy = -19.56848924628497
 DFT Correlation      Energy =  -5.21314731136911
 DFT Exchange         Energy = -156.48092777018931
 One-Electron (alpha) Energy = -4097.41574784966087
 One-Electron (beta)  Energy = -4054.22938706936657
 Total Coulomb        Energy = 2669.77199873401059
   10   -5265.6015235966      1.24e-04  
 Alpha HF Exchange    Energy = -19.76024172068508
 Beta HF Exchange     Energy = -19.56929019393057
 DFT Correlation      Energy =  -5.21345793917289
 DFT Exchange         Energy = -156.48860410715974
 One-Electron (alpha) Energy = -4097.51526365862719
 One-Electron (beta)  Energy = -4054.31444479682114
 Total Coulomb        Energy = 2669.96630834446296
   11   -5265.6017281557      4.90e-05  
 Alpha HF Exchange    Energy = -19.76017630371211
 Beta HF Exchange     Energy = -19.56923244034256
 DFT Correlation      Energy =  -5.21341834649578
 DFT Exchange         Energy = -156.48797741882538
 One-Electron (alpha) Energy = -4097.52712296154004
 One-Electron (beta)  Energy = -4054.32357444940089
 Total Coulomb        Energy = 2669.98647244174208
   12   -5265.6017635623      1.36e-05  
 Alpha HF Exchange    Energy = -19.76021777017390
 Beta HF Exchange     Energy = -19.56922890867042
 DFT Correlation      Energy =  -5.21342561456932
 DFT Exchange         Energy = -156.48812607572677
 One-Electron (alpha) Energy = -4097.52672226570212
 One-Electron (beta)  Energy = -4054.32165385114013
 Total Coulomb        Energy = 2669.98434156938720
   13   -5265.6017670003      1.92e-06  
 Alpha HF Exchange    Energy = -19.76022111305204
 Beta HF Exchange     Energy = -19.56923189527816
 DFT Correlation      Energy =  -5.21342575887724
 DFT Exchange         Energy = -156.48814912024881
 One-Electron (alpha) Energy = -4097.52840203337473
 One-Electron (beta)  Energy = -4054.32324748883002
 Total Coulomb        Energy = 2669.98764443388973
   14   -5265.6017670595      6.71e-07  Convergence criterion met
 ---------------------------------------
 SCF time:   CPU 50.79s  wall 4.00s 
<S^2> =          2.005491343
 Alpha HF Exchange    Energy = -19.76022111305204
 Beta HF Exchange     Energy = -19.56923189527816
 DFT Correlation      Energy =  -5.21342575887724
 DFT Exchange         Energy = -156.48814912024881
 One-Electron (alpha) Energy = -4097.52840203337473
 One-Electron (beta)  Energy = -4054.32324748883002
 Total Coulomb        Energy = 2669.98764443388973
 Nuclear repulsion Energy = 417.29326591628313
 SCF   energy in the final basis set =    -5265.6017670595
 Total energy in the final basis set =    -5265.6017670595
 
 --------------------------------------------------------------
 
                    Orbital Energies (a.u.)
 --------------------------------------------------------------
 
 Alpha MOs
 -- Occupied --
*******-482.846 -62.559 -62.504 -56.384 -56.376 -56.376 -56.326
-56.322 -56.322 -10.247 -10.211 -10.207  -8.747  -8.691  -6.583
 -6.561  -6.561  -6.521  -6.509  -6.509  -2.674  -2.669  -2.669
 -2.652  -2.652  -2.615  -2.611  -2.611  -2.601  -2.601  -0.824
 -0.799  -0.759  -0.664  -0.599  -0.490  -0.429  -0.427  -0.414
 -0.374  -0.360  -0.357  -0.326  -0.325  -0.276  -0.274  -0.219
 -- Virtual --
  0.000   0.092   0.116   0.124   0.138   0.155   0.172   0.197
  0.207   0.239   0.254   0.285   0.309   0.314   0.342   0.351
  0.360   0.481   0.486   0.501   0.526   0.536   0.542   0.548
  0.556   0.570   0.576   0.590   0.619   0.628   0.682   0.703
  0.730   0.789   0.814   0.818   0.846   0.855   0.880   0.908
  0.927   0.996   1.144   1.213   1.313   1.419   1.486   1.502
  1.659   1.660   1.691   1.738   1.807   1.849   1.924   1.964
  2.005   2.058   2.112   2.171   2.202   2.235   2.333   2.342
  2.419   2.464   2.494   2.586   2.595   2.681   2.760   2.767
  2.839   2.857   3.196   3.247   3.362   3.365   3.429   3.534
  4.203   4.368   4.575   4.647   4.654   4.654   4.680   4.684
  4.731   4.746   4.812   4.814   4.984   6.210   6.305  90.140
 90.360
 
 Beta MOs
 -- Occupied --
*******-482.846 -62.558 -62.504 -56.378 -56.375 -56.375 -56.325
-56.322 -56.322 -10.245 -10.208 -10.197  -8.743  -8.691  -6.572
 -6.559  -6.559  -6.521  -6.509  -6.509  -2.666  -2.663  -2.662
 -2.651  -2.651  -2.615  -2.611  -2.611  -2.601  -2.601  -0.820
 -0.755  -0.749  -0.647  -0.587  -0.487  -0.423  -0.421  -0.404
 -0.357  -0.353  -0.311  -0.310  -0.274  -0.273
 -- Virtual --
 -0.238  -0.070   0.011   0.095   0.124   0.126   0.145   0.157
  0.182   0.201   0.211   0.244   0.259   0.313   0.314   0.324
  0.344   0.351   0.361   0.486   0.487   0.516   0.544   0.570
  0.580   0.584   0.588   0.589   0.591   0.599   0.619   0.631
  0.684   0.734   0.740   0.794   0.817   0.825   0.848   0.858
  0.887   0.911   0.930   1.011   1.148   1.221   1.324   1.448
  1.491   1.517   1.659   1.679   1.710   1.746   1.816   1.854
  1.927   2.013   2.014   2.059   2.112   2.176   2.203   2.236
  2.334   2.350   2.437   2.472   2.509   2.596   2.599   2.688
  2.761   2.769   2.842   2.860   3.198   3.251   3.365   3.367
  3.435   3.536   4.217   4.387   4.578   4.666   4.668   4.669
  4.683   4.687   4.731   4.746   4.813   4.814   4.984   6.227
  6.305  90.146  90.360
 --------------------------------------------------------------
 
          Ground-State Mulliken Net Atomic Charges

     Atom                 Charge (a.u.)    Spin (a.u.)
  --------------------------------------------------------
      1 Br                   -0.001437       1.008873
      2 Br                   -0.130957       0.029839
      3 C                    -0.193304      -0.073067
      4 C                    -0.218790       1.060095
      5 C                    -0.244344       0.041417
      6 H                     0.129994       0.013390
      7 H                     0.129651       0.012709
      8 H                     0.113518      -0.046691
      9 H                     0.112573      -0.046787
     10 H                     0.151550       0.000124
     11 H                     0.151546       0.000099
  --------------------------------------------------------
  Sum of atomic charges =     0.000000
  Sum of spin   charges =     2.000000

 -----------------------------------------------------------------
                    Cartesian Multipole Moments
 -----------------------------------------------------------------
    Charge (ESU x 10^10)
                -0.0000
    Dipole Moment (Debye)
         X      -1.8442      Y      -1.4739      Z      -0.0195
       Tot       2.3609
    Quadrupole Moments (Debye-Ang)
        XX     -64.2812     XY      -1.8882     YY     -56.5834
        XZ      -0.1654     YZ      -0.2495     ZZ     -53.3668
    Octopole Moments (Debye-Ang^2)
       XXX      36.2574    XXY     -31.1558    XYY      18.9978
       YYY     -83.6829    XXZ       0.6136    XYZ       0.6826
       YYZ      -0.9257    XZZ       5.0331    YZZ     -26.5416
       ZZZ      -1.4397
    Hexadecapole Moments (Debye-Ang^3)
      XXXX   -2995.1018   XXXY     175.2051   XXYY    -543.4211
      XYYY     167.8413   YYYY    -390.0068   XXXZ      -8.8791
      XXYZ      -2.1742   XYYZ       1.4933   YYYZ      -2.7526
      XXZZ    -463.2914   XYZZ      38.8739   YYZZ     -70.8136
      XZZZ      -1.9473   YZZZ      -1.2455   ZZZZ     -78.5583
 -----------------------------------------------------------------
 Calculating analytic gradient of the SCF energy
 Gradient of SCF Energy
            1           2           3           4           5           6
    1   0.0009131   0.0003512   0.0036765  -0.0052266   0.0009849   0.0018780
    2  -0.0006530   0.0000789   0.0070380   0.0008157   0.0020465  -0.0011760
    3  -0.0000205   0.0000158  -0.0000584  -0.0013870   0.0000916   0.0000469
            7           8           9          10          11
    1   0.0017996  -0.0018439  -0.0020847  -0.0002263  -0.0002217
    2  -0.0014422  -0.0029535  -0.0039445   0.0001063   0.0000839
    3   0.0002195  -0.0065436   0.0076324  -0.0000011   0.0000044
 Max gradient component =       7.632E-03
 RMS gradient           =       2.714E-03
 Gradient time:  CPU 13.97 s  wall 1.25 s
 Geometry Optimization Parameters
   NAtoms,    NIC,     NZ,  NCons,   NDum,   NFix, NCnnct, MaxDiis
       11     120       0       1       0       0       0       0

 Cartesian Hessian Update
 Hessian Updated using BFGS Update


** CONSTRAINED OPTIMIZATION IN DELOCALIZED INTERNAL COORDINATES **
   Searching for a Minimum

   Optimization Cycle:   2

                       Coordinates (Angstroms)
     ATOM                X               Y               Z
      1  Br       -3.9725222309    1.2863315191    0.0052261764
      2  Br        2.9228560244    0.7485391089    0.0157634302
      3  C         0.0747202544    0.0784426441    0.0186375347
      4  C        -1.0271706156   -0.9558961048   -0.0041673010
      5  C         1.4580623932   -0.5895193558   -0.0007135912
      6  H         0.0135488151    0.6955761404    0.9196264566
      7  H         0.0085360462    0.7375611035   -0.8508353751
      8  H        -1.3672772534   -1.3860208808   -0.9530753576
      9  H        -1.3513879921   -1.4434058134    0.9250450369
     10  H         1.6157362350   -1.1795287310   -0.9029866832
     11  H         1.6247993238   -1.2133786302    0.8768826732
   Point Group: c1    Number of degrees of freedom:    27


   Energy is  -5265.601767059

              Constraints and their Current Values
                                        Value     Constraint
   Distance(Angs):        1   4             3.701725     3.700000
 Hessian Updated using BFGS Update

   Using Lagrange Multiplier Algorithm


 28 Hessian modes will be used to form the next step
  Hessian Eigenvalues:
    -0.987679    0.023465    0.041103    0.045000    0.049928    0.050912
     0.060412    0.069307    0.071718    0.073783    0.082514    0.083067
     0.087199    0.091850    0.133026    0.157001    0.160000    0.160104
     0.222785    0.281552    0.288418    0.290664    0.301957    0.308854
     0.348611    0.348669    0.484849    1.019979

 Minimum Search - Taking P-RFO Step
 Searching for Lamda that Maximizes Along the Constraint modes Only
 Value Taken    Lamda =   0.00001930
 Searching for Lamda that Minimizes Along All other modes
 Value Taken    Lamda =  -0.00045065
 Step Taken.  Stepsize is  0.037235

                             Maximum     Tolerance    Cnvgd?
         Gradient            0.008018       0.000300      NO
         Displacement        0.017961       0.001200      NO
         Energy change      0.000660       0.000001      NO


 New Cartesian Coordinates Obtained by Inverse Iteration

 Displacement from previous Coordinates is:  0.052845
 ----------------------------------------------------------------
             Standard Nuclear Orientation (Angstroms)
    I     Atom           X                Y                Z
 ----------------------------------------------------------------
    1      Br     -3.9721947342     1.2788009768     0.0052565961
    2      Br      2.9212419010     0.7411536943     0.0156661541
    3      C       0.0729698289     0.0806145603     0.0187483940
    4      C      -1.0196352645    -0.9510675415    -0.0038205352
    5      C       1.4537351448    -0.5930824117    -0.0007804331
    6      H       0.0079094610     0.6993485637     0.9192488257
    7      H       0.0031057025     0.7415903508    -0.8503589728
    8      H      -1.3565633214    -1.3804635859    -0.9476831425
    9      H      -1.3405555043    -1.4370031320     0.9193567345
   10      H       1.6104355783    -1.1836825900    -0.9029188952
   11      H       1.6194522079    -1.2175078848     0.8766882745
 ----------------------------------------------------------------
 Nuclear Repulsion Energy =   417.7361614271 hartrees
 There are       48 alpha and       46 beta electrons

                       Distance Matrix (Angstroms)
             Br(  1)   Br(  2)   C (  3)   C (  4)   C (  5)   H (  6)
   Br(  2)  6.914379
   C (  3)  4.218909  2.923863
   C (  4)  3.700000  4.288882  1.502885
   C (  5)  5.739747  1.983440  1.536477  2.499145
   H (  6)  4.124606  3.050527  1.094516  2.152157  2.146449
   H (  7)  4.101669  3.043931  1.094129  2.151213  2.146500  1.770118
   H (  8)  3.849845  4.871234  2.261041  1.090311  3.068285  3.110119
   H (  9)  3.890591  4.870723  2.261042  1.091503  3.060542  2.526333
   H ( 10)  6.168822  2.503399  2.193563  2.789222  1.089595  3.071513
   H ( 11)  6.185262  2.504470  2.193807  2.794829  1.089642  2.504640
             H (  7)   H (  8)   H (  9)   H ( 10)
   H (  8)  2.522159
   H (  9)  3.111847  1.867964
   H ( 10)  2.508575  2.973854  3.477529
   H ( 11)  3.071373  3.494503  2.968441  1.779951
 
 Applying Cartesian multipole field
    Component          Value
    ---------          -----
     (2,0,0)        1.00000E-11
     (0,2,0)        2.00000E-11
     (0,0,2)       -3.00000E-10
 Nucleus-field energy     =     0.0000000327 hartrees
 Requested basis set is 6-31G(d,p)
 There are 46 shells and 145 basis functions
 A cutoff of  1.0D-14 yielded    907 shell pairs
 There are      8546 function pairs
 Smallest overlap matrix eigenvalue = 7.23E-04
 Guess from superposition of atomic densities
 Warning:  Energy on first SCF cycle will be non-variational
 SAD guess density has 93.945746 electrons

 -----------------------------------------------------------------------
  General SCF calculation program by
  Eric Jon Sundstrom, Paul Horn, Yuezhi Mao, Dmitri Zuev, Alec White,
  David Stuck, Shaama M.S., Shane Yost, Joonho Lee, David Small,
  Daniel Levine, Susi Lehtola, Hugh Burton, Evgeny Epifanovsky
 -----------------------------------------------------------------------
 Exchange:     0.2000 Hartree-Fock + 0.0800 Slater + 0.7200 B88
 Correlation:  0.1900 VWN1RPA + 0.8100 LYP
 Using SG-1 standard quadrature grid
 using 12 threads for integral computing
 -------------------------------------------------------
 OpenMP Integral computing Module                
 Release: version 1.0, May 2013, Q-Chem Inc. Pittsburgh 
 -------------------------------------------------------
 -------------------------------------------------------
 OpenMP BLAS3 based DFT computing Module                
 Release: version 1.0, May 2013, Q-Chem Inc. Pittsburgh 
 -------------------------------------------------------
 A unrestricted SCF calculation will be
 performed using DIIS
 SCF converges when DIIS error is below 1.0e-06
 Alpha HF Exchange    Energy = -19.60379427876541
 Beta HF Exchange     Energy = -19.60379427876541
 DFT Correlation      Energy =  -5.19284223147283
 DFT Exchange         Energy = -155.85897505098148
 One-Electron (alpha) Energy = -4074.23882056108778
 One-Electron (beta)  Energy = -4074.23882056108778
 Total Coulomb        Energy = 2658.60003709305602
 ---------------------------------------
  Cycle       Energy         DIIS error
 ---------------------------------------
    1   -5272.4008484093      1.83e-01  
 Alpha HF Exchange    Energy = -19.82686143542716
 Beta HF Exchange     Energy = -19.62875630113528
 DFT Correlation      Energy =  -5.23505202965131
 DFT Exchange         Energy = -157.01572476360315
 One-Electron (alpha) Energy = -4104.73506527263817
 One-Electron (beta)  Energy = -4060.74746229222183
 Total Coulomb        Energy = 2684.19765706918088
    2   -5265.2551035657      1.05e-02  
 Alpha HF Exchange    Energy = -19.68403601752335
 Beta HF Exchange     Energy = -19.52429305110764
 DFT Correlation      Energy =  -5.21140922174231
 DFT Exchange         Energy = -156.09785866334863
 One-Electron (alpha) Energy = -4079.53859130498313
 One-Electron (beta)  Energy = -4045.04354898521342
 Total Coulomb        Energy = 2649.67074678741255
    3   -5257.6928289967      1.32e-02  
 Alpha HF Exchange    Energy = -19.69782631815204
 Beta HF Exchange     Energy = -19.51376032400884
 DFT Correlation      Energy =  -5.19140100557685
 DFT Exchange         Energy = -156.12562879743075
 One-Electron (alpha) Energy = -4092.15536896294316
 One-Electron (beta)  Energy = -4049.08485406919499
 Total Coulomb        Energy = 2662.75045215192495
    4   -5261.2822258656      1.20e-02  
 Alpha HF Exchange    Energy = -19.79144988634975
 Beta HF Exchange     Energy = -19.59606406487629
 DFT Correlation      Energy =  -5.22595209892149
 DFT Exchange         Energy = -156.73932467313193
 One-Electron (alpha) Energy = -4102.87936627083036
 One-Electron (beta)  Energy = -4060.11778382291050
 Total Coulomb        Energy = 2681.35794146139369
    5   -5265.2558378958      3.42e-03  
 Alpha HF Exchange    Energy = -19.73661943679982
 Beta HF Exchange     Energy = -19.54599463885320
 DFT Correlation      Energy =  -5.20888311414101
 DFT Exchange         Energy = -156.30803306249720
 One-Electron (alpha) Energy = -4094.97839373360557
 One-Electron (beta)  Energy = -4052.06807263790643
 Total Coulomb        Energy = 2664.54013726954327
    6   -5265.5696978945      1.77e-03  
 Alpha HF Exchange    Energy = -19.75822039070657
 Beta HF Exchange     Energy = -19.56932820835582
 DFT Correlation      Energy =  -5.21375490650768
 DFT Exchange         Energy = -156.48404077329565
 One-Electron (alpha) Energy = -4097.68565644383671
 One-Electron (beta)  Energy = -4054.50977276814046
 Total Coulomb        Energy = 2669.89357175773284
    7   -5265.5910402733      8.40e-04  
 Alpha HF Exchange    Energy = -19.75970287807704
 Beta HF Exchange     Energy = -19.56909653986045
 DFT Correlation      Energy =  -5.21398985129016
 DFT Exchange         Energy = -156.48701570403574
 One-Electron (alpha) Energy = -4097.83834763597406
 One-Electron (beta)  Energy = -4054.61763761200473
 Total Coulomb        Energy = 2670.15140012758138
    8   -5265.5982286339      4.65e-04  
 Alpha HF Exchange    Energy = -19.75877206310858
 Beta HF Exchange     Energy = -19.56821221337037
 DFT Correlation      Energy =  -5.21378801912268
 DFT Exchange         Energy = -156.47961440671114
 One-Electron (alpha) Energy = -4097.74452676023702
 One-Electron (beta)  Energy = -4054.50627014285146
 Total Coulomb        Energy = 2669.93443746082994
    9   -5265.6005846848      3.15e-04  
 Alpha HF Exchange    Energy = -19.75995017840862
 Beta HF Exchange     Energy = -19.56923964849147
 DFT Correlation      Energy =  -5.21363731728929
 DFT Exchange         Energy = -156.48674552863190
 One-Electron (alpha) Energy = -4097.88540749819822
 One-Electron (beta)  Energy = -4054.64923855203733
 Total Coulomb        Energy = 2670.22620472432664
   10   -5265.6018525389      1.23e-04  
 Alpha HF Exchange    Energy = -19.76105524904194
 Beta HF Exchange     Energy = -19.57000936262396
 DFT Correlation      Energy =  -5.21394902187506
 DFT Exchange         Energy = -156.49414792279890
 One-Electron (alpha) Energy = -4097.98000627318106
 One-Electron (beta)  Energy = -4054.72933442605699
 Total Coulomb        Energy = 2670.41028881849979
   11   -5265.6020519773      4.86e-05  
 Alpha HF Exchange    Energy = -19.76099458643777
 Beta HF Exchange     Energy = -19.56995404980375
 DFT Correlation      Energy =  -5.21390670205506
 DFT Exchange         Energy = -156.49353875295500
 One-Electron (alpha) Energy = -4097.99284853628069
 One-Electron (beta)  Energy = -4054.73953790185396
 Total Coulomb        Energy = 2670.43253240983586
   12   -5265.6020866598      1.35e-05  
 Alpha HF Exchange    Energy = -19.76103320326143
 Beta HF Exchange     Energy = -19.56994813863798
 DFT Correlation      Energy =  -5.21391429008113
 DFT Exchange         Energy = -156.49366929924065
 One-Electron (alpha) Energy = -4097.99192482975923
 One-Electron (beta)  Energy = -4054.73715861471783
 Total Coulomb        Energy = 2670.42939687839089
   13   -5265.6020900375      2.05e-06  
 Alpha HF Exchange    Energy = -19.76103821195590
 Beta HF Exchange     Energy = -19.56995192974402
 DFT Correlation      Energy =  -5.21391428492711
 DFT Exchange         Energy = -156.49370100813110
 One-Electron (alpha) Energy = -4097.99378414280181
 One-Electron (beta)  Energy = -4054.73890403822406
 Total Coulomb        Energy = 2670.43304205468257
   14   -5265.6020901013      7.72e-07  Convergence criterion met
 ---------------------------------------
 SCF time:   CPU 51.03s  wall 4.00s 
<S^2> =          2.005439286
 Alpha HF Exchange    Energy = -19.76103821195590
 Beta HF Exchange     Energy = -19.56995192974402
 DFT Correlation      Energy =  -5.21391428492711
 DFT Exchange         Energy = -156.49370100813110
 One-Electron (alpha) Energy = -4097.99378414280181
 One-Electron (beta)  Energy = -4054.73890403822406
 Total Coulomb        Energy = 2670.43304205468257
 Nuclear repulsion Energy = 417.73616145978957
 SCF   energy in the final basis set =    -5265.6020901013
 Total energy in the final basis set =    -5265.6020901013
 
 --------------------------------------------------------------
 
                    Orbital Energies (a.u.)
 --------------------------------------------------------------
 
 Alpha MOs
 -- Occupied --
*******-482.846 -62.559 -62.504 -56.384 -56.376 -56.376 -56.325
-56.322 -56.322 -10.247 -10.209 -10.206  -8.747  -8.691  -6.583
 -6.561  -6.561  -6.521  -6.509  -6.508  -2.674  -2.669  -2.669
 -2.652  -2.652  -2.615  -2.611  -2.611  -2.601  -2.601  -0.825
 -0.799  -0.760  -0.664  -0.599  -0.491  -0.430  -0.427  -0.415
 -0.374  -0.359  -0.358  -0.326  -0.325  -0.276  -0.273  -0.218
 -- Virtual --
  0.001   0.092   0.117   0.124   0.138   0.156   0.172   0.197
  0.208   0.241   0.255   0.285   0.309   0.314   0.342   0.351
  0.360   0.481   0.485   0.501   0.525   0.536   0.542   0.549
  0.556   0.570   0.576   0.593   0.619   0.629   0.682   0.703
  0.730   0.789   0.815   0.819   0.845   0.857   0.884   0.907
  0.927   0.998   1.146   1.215   1.312   1.419   1.486   1.504
  1.657   1.663   1.691   1.738   1.810   1.853   1.929   1.971
  2.009   2.057   2.110   2.171   2.202   2.236   2.335   2.342
  2.426   2.465   2.500   2.593   2.595   2.687   2.762   2.772
  2.841   2.863   3.197   3.254   3.366   3.368   3.440   3.535
  4.206   4.369   4.576   4.647   4.654   4.654   4.680   4.684
  4.731   4.747   4.813   4.814   4.985   6.210   6.305  90.140
 90.360
 
 Beta MOs
 -- Occupied --
*******-482.846 -62.558 -62.504 -56.378 -56.375 -56.375 -56.325
-56.322 -56.322 -10.245 -10.207 -10.196  -8.743  -8.691  -6.573
 -6.559  -6.559  -6.521  -6.509  -6.508  -2.666  -2.663  -2.663
 -2.651  -2.651  -2.615  -2.611  -2.611  -2.601  -2.601  -0.820
 -0.756  -0.750  -0.648  -0.587  -0.488  -0.424  -0.422  -0.405
 -0.357  -0.353  -0.311  -0.310  -0.274  -0.273
 -- Virtual --
 -0.238  -0.070   0.012   0.095   0.125   0.126   0.146   0.157
  0.182   0.200   0.212   0.245   0.261   0.312   0.314   0.324
  0.344   0.351   0.361   0.485   0.486   0.514   0.545   0.570
  0.581   0.585   0.588   0.589   0.591   0.601   0.620   0.633
  0.684   0.733   0.740   0.794   0.817   0.826   0.847   0.860
  0.891   0.911   0.930   1.014   1.150   1.224   1.323   1.448
  1.492   1.518   1.657   1.682   1.710   1.746   1.820   1.857
  1.932   2.017   2.021   2.059   2.110   2.177   2.204   2.237
  2.336   2.351   2.443   2.472   2.514   2.596   2.607   2.694
  2.763   2.774   2.844   2.867   3.199   3.258   3.368   3.372
  3.446   3.538   4.220   4.389   4.579   4.666   4.668   4.669
  4.682   4.687   4.731   4.747   4.813   4.815   4.985   6.226
  6.305  90.146  90.360
 --------------------------------------------------------------
 
          Ground-State Mulliken Net Atomic Charges

     Atom                 Charge (a.u.)    Spin (a.u.)
  --------------------------------------------------------
      1 Br                   -0.001407       1.008876
      2 Br                   -0.131531       0.031263
      3 C                    -0.193276      -0.073133
      4 C                    -0.218346       1.057095
      5 C                    -0.244301       0.042068
      6 H                     0.129715       0.013620
      7 H                     0.129395       0.012950
      8 H                     0.113546      -0.046420
      9 H                     0.112807      -0.046469
     10 H                     0.151709       0.000086
     11 H                     0.151689       0.000063
  --------------------------------------------------------
  Sum of atomic charges =     0.000000
  Sum of spin   charges =     2.000000

 -----------------------------------------------------------------
                    Cartesian Multipole Moments
 -----------------------------------------------------------------
    Charge (ESU x 10^10)
                 0.0000
    Dipole Moment (Debye)
         X      -1.8592      Y      -1.4722      Z      -0.0190
       Tot       2.3716
    Quadrupole Moments (Debye-Ang)
        XX     -64.3077     XY      -1.9121     YY     -56.5549
        XZ      -0.1517     YZ      -0.2299     ZZ     -53.3638
    Octopole Moments (Debye-Ang^2)
       XXX      36.1288    XXY     -30.8431    XYY      19.0282
       YYY     -83.0050    XXZ       0.4908    XYZ       0.6273
       YYZ      -0.8740    XZZ       5.0238    YZZ     -26.2975
       ZZZ      -1.4383
    Hexadecapole Moments (Debye-Ang^3)
      XXXX   -2992.6365   XXXY     174.9937   XXYY    -542.4490
      XYYY     167.6815   YYYY    -386.3144   XXXZ      -8.0906
      XXYZ      -2.0255   XYYZ       1.3279   YYYZ      -2.6107
      XXZZ    -462.8242   XYZZ      38.8594   YYZZ     -70.2425
      XZZZ      -1.9037   YZZZ      -1.2144   ZZZZ     -78.4406
 -----------------------------------------------------------------
 Calculating analytic gradient of the SCF energy
 Gradient of SCF Energy
            1           2           3           4           5           6
    1   0.0009075  -0.0001619   0.0019176  -0.0040381   0.0005660   0.0010668
    2  -0.0006434  -0.0001347   0.0043008   0.0005062   0.0011036  -0.0007952
    3  -0.0000195   0.0000136   0.0000371  -0.0007683   0.0000521   0.0002120
            7           8           9          10          11
    1   0.0010176  -0.0005852  -0.0006892   0.0000028  -0.0000037
    2  -0.0009102  -0.0014792  -0.0019763   0.0000203   0.0000080
    3  -0.0000954  -0.0032984   0.0038679   0.0000102  -0.0000112
 Max gradient component =       4.301E-03
 RMS gradient           =       1.543E-03
 Gradient time:  CPU 13.95 s  wall 1.24 s
 Geometry Optimization Parameters
   NAtoms,    NIC,     NZ,  NCons,   NDum,   NFix, NCnnct, MaxDiis
       11     120       0       1       0       0       0       0

 Cartesian Hessian Update
 Hessian Updated using BFGS Update


** CONSTRAINED OPTIMIZATION IN DELOCALIZED INTERNAL COORDINATES **
   Searching for a Minimum

   Optimization Cycle:   3

                       Coordinates (Angstroms)
     ATOM                X               Y               Z
      1  Br       -3.9721947342    1.2788009768    0.0052565961
      2  Br        2.9212419010    0.7411536943    0.0156661541
      3  C         0.0729698289    0.0806145603    0.0187483940
      4  C        -1.0196352645   -0.9510675415   -0.0038205352
      5  C         1.4537351448   -0.5930824117   -0.0007804331
      6  H         0.0079094610    0.6993485637    0.9192488257
      7  H         0.0031057025    0.7415903508   -0.8503589728
      8  H        -1.3565633214   -1.3804635859   -0.9476831425
      9  H        -1.3405555043   -1.4370031320    0.9193567345
     10  H         1.6104355783   -1.1836825900   -0.9029188952
     11  H         1.6194522079   -1.2175078848    0.8766882745
   Point Group: c1    Number of degrees of freedom:    27


   Energy is  -5265.602090101

              Constraints and their Current Values
                                        Value     Constraint
   Distance(Angs):        1   4             3.700000     3.700000
 Hessian Updated using BFGS Update

 26 Hessian modes will be used to form the next step
  Hessian Eigenvalues:
     0.022930    0.041102    0.045000    0.049343    0.050908    0.060412
     0.068613    0.071684    0.072823    0.082514    0.083107    0.087128
     0.088583    0.127341    0.157192    0.160000    0.160494    0.221881
     0.254044    0.281553    0.288515    0.302230    0.308437    0.317866
     0.348627    0.348714

 Minimum Search - Taking Simple RFO Step
 Searching for Lamda that Minimizes Along All modes
 Value Taken    Lamda =  -0.00025447
 Step Taken.  Stepsize is  0.045786

                             Maximum     Tolerance    Cnvgd?
         Gradient           0.003898      0.000300      NO
         Displacement       0.027527      0.001200      NO
         Energy change     -0.000323      0.000001      NO


 New Cartesian Coordinates Obtained by Inverse Iteration

 Displacement from previous Coordinates is:  0.057907
 ----------------------------------------------------------------
             Standard Nuclear Orientation (Angstroms)
    I     Atom           X                Y                Z
 ----------------------------------------------------------------
    1      Br     -3.9721314484     1.2704163740     0.0053533211
    2      Br      2.9247635622     0.7327598486     0.0155762371
    3      C       0.0711471764     0.0822027869     0.0187795987
    4      C      -1.0100866501    -0.9468381377    -0.0033912773
    5      C       1.4497173444    -0.5961037343    -0.0008575929
    6      H       0.0005783091     0.7038583553     0.9177201657
    7      H      -0.0039083441     0.7462848184    -0.8487937464
    8      H      -1.3459178118    -1.3749149431    -0.9417635101
    9      H      -1.3300136295    -1.4306312723     0.9131134071
   10      H       1.6033843894    -1.1872649851    -0.9031211455
   11      H       1.6123681024    -1.2210681106     0.8767875426
 ----------------------------------------------------------------
 Nuclear Repulsion Energy =   417.9273801604 hartrees
 There are       48 alpha and       46 beta electrons

                       Distance Matrix (Angstroms)
             Br(  1)   Br(  2)   C (  3)   C (  4)   C (  5)   H (  6)
   Br(  2)  6.917828
   C (  3)  4.214277  2.926835
   C (  4)  3.700000  4.278371  1.492811
   C (  5)  5.734142  1.985424  1.536535  2.484684
   H (  6)  4.115316  3.060320  1.095230  2.143523  2.152601
   H (  7)  4.092808  3.053594  1.095136  2.143307  2.152680  1.767029
   H (  8)  3.846012  4.857727  2.248090  1.084700  3.050808  3.097100
   H (  9)  3.885933  4.856847  2.247610  1.084615  3.042808  2.515262
   H ( 10)  6.160511  2.505303  2.192989  2.774446  1.089571  3.075841
   H ( 11)  6.176854  2.506294  2.193184  2.779782  1.089631  2.510953
             H (  7)   H (  8)   H (  9)   H ( 10)
   H (  8)  2.511796
   H (  9)  3.098683  1.855782
   H ( 10)  2.514947  2.955518  3.458722
   H ( 11)  3.075786  3.475953  2.950059  1.780252
 
 Applying Cartesian multipole field
    Component          Value
    ---------          -----
     (2,0,0)        1.00000E-11
     (0,2,0)        2.00000E-11
     (0,0,2)       -3.00000E-10
 Nucleus-field energy     =     0.0000000326 hartrees
 Requested basis set is 6-31G(d,p)
 There are 46 shells and 145 basis functions
 A cutoff of  1.0D-14 yielded    907 shell pairs
 There are      8546 function pairs
 Smallest overlap matrix eigenvalue = 7.23E-04
 Guess from superposition of atomic densities
 Warning:  Energy on first SCF cycle will be non-variational
 SAD guess density has 93.945746 electrons

 -----------------------------------------------------------------------
  General SCF calculation program by
  Eric Jon Sundstrom, Paul Horn, Yuezhi Mao, Dmitri Zuev, Alec White,
  David Stuck, Shaama M.S., Shane Yost, Joonho Lee, David Small,
  Daniel Levine, Susi Lehtola, Hugh Burton, Evgeny Epifanovsky
 -----------------------------------------------------------------------
 Exchange:     0.2000 Hartree-Fock + 0.0800 Slater + 0.7200 B88
 Correlation:  0.1900 VWN1RPA + 0.8100 LYP
 Using SG-1 standard quadrature grid
 using 12 threads for integral computing
 -------------------------------------------------------
 OpenMP Integral computing Module                
 Release: version 1.0, May 2013, Q-Chem Inc. Pittsburgh 
 -------------------------------------------------------
 -------------------------------------------------------
 OpenMP BLAS3 based DFT computing Module                
 Release: version 1.0, May 2013, Q-Chem Inc. Pittsburgh 
 -------------------------------------------------------
 A unrestricted SCF calculation will be
 performed using DIIS
 SCF converges when DIIS error is below 1.0e-06
 Alpha HF Exchange    Energy = -19.60540031319938
 Beta HF Exchange     Energy = -19.60540031319938
 DFT Correlation      Energy =  -5.19320769559295
 DFT Exchange         Energy = -155.86226890269924
 One-Electron (alpha) Energy = -4074.42041535000953
 One-Electron (beta)  Energy = -4074.42041535000953
 Total Coulomb        Energy = 2658.76585615658678
 ---------------------------------------
  Cycle       Energy         DIIS error
 ---------------------------------------
    1   -5272.4138715751      1.83e-01  
 Alpha HF Exchange    Energy = -19.82796652730917
 Beta HF Exchange     Energy = -19.62959238357028
 DFT Correlation      Energy =  -5.23557602685417
 DFT Exchange         Energy = -157.02298440916806
 One-Electron (alpha) Energy = -4104.95844194894835
 One-Electron (beta)  Energy = -4060.91517129751401
 Total Coulomb        Energy = 2684.40758222226077
    2   -5265.2547701781      1.05e-02  
 Alpha HF Exchange    Energy = -19.68461786000827
 Beta HF Exchange     Energy = -19.52416905204945
 DFT Correlation      Energy =  -5.21174882031799
 DFT Exchange         Energy = -156.09987482567021
 One-Electron (alpha) Energy = -4079.75188660797176
 One-Electron (beta)  Energy = -4045.17053239607185
 Total Coulomb        Energy = 2649.85762598249948
    3   -5257.6578233866      1.32e-02  
 Alpha HF Exchange    Energy = -19.69885437254599
 Beta HF Exchange     Energy = -19.51456834049750
 DFT Correlation      Energy =  -5.19195436193461
 DFT Exchange         Energy = -156.13173717209833
 One-Electron (alpha) Energy = -4092.34474603239460
 One-Electron (beta)  Energy = -4049.22760851451585
 Total Coulomb        Energy = 2662.87247308938686
    4   -5261.3096155116      1.20e-02  
 Alpha HF Exchange    Energy = -19.79241863144046
 Beta HF Exchange     Energy = -19.59659150559044
 DFT Correlation      Energy =  -5.22649445611876
 DFT Exchange         Energy = -156.74529821119913
 One-Electron (alpha) Energy = -4103.09657580744897
 One-Electron (beta)  Energy = -4060.28740586570575
 Total Coulomb        Energy = 2681.55601654067914
    5   -5265.2613877438      3.37e-03  
 Alpha HF Exchange    Energy = -19.73689977410709
 Beta HF Exchange     Energy = -19.54630102913728
 DFT Correlation      Energy =  -5.20928616920379
 DFT Exchange         Energy = -156.31038412004955
 One-Electron (alpha) Energy = -4095.11229995439408
 One-Electron (beta)  Energy = -4052.16559237967840
 Total Coulomb        Energy = 2664.58534591194257
    6   -5265.5680373216      1.80e-03  
 Alpha HF Exchange    Energy = -19.75882012441349
 Beta HF Exchange     Energy = -19.56990080964090
 DFT Correlation      Energy =  -5.21417589082274
 DFT Exchange         Energy = -156.48841809145267
 One-Electron (alpha) Energy = -4097.88788154200211
 One-Electron (beta)  Energy = -4054.66476483713177
 Total Coulomb        Energy = 2670.06611996569700
    7   -5265.5904611368      8.58e-04  
 Alpha HF Exchange    Energy = -19.76030064826691
 Beta HF Exchange     Energy = -19.56964459110868
 DFT Correlation      Energy =  -5.21445101886026
 DFT Exchange         Energy = -156.49134514991957
 One-Electron (alpha) Energy = -4098.02584789366756
 One-Electron (beta)  Energy = -4054.75853226561549
 Total Coulomb        Energy = 2670.29477772186283
    8   -5265.5979636526      4.86e-04  
 Alpha HF Exchange    Energy = -19.75943380004231
 Beta HF Exchange     Energy = -19.56883043553009
 DFT Correlation      Energy =  -5.21422167246453
 DFT Exchange         Energy = -156.48428811680350
 One-Electron (alpha) Energy = -4097.94501299291824
 One-Electron (beta)  Energy = -4054.66005367761682
 Total Coulomb        Energy = 2670.10382109923967
    9   -5265.6006394031      3.24e-04  
 Alpha HF Exchange    Energy = -19.76077250476892
 Beta HF Exchange     Energy = -19.56996166787230
 DFT Correlation      Energy =  -5.21410446675641
 DFT Exchange         Energy = -156.49240854569516
 One-Electron (alpha) Energy = -4098.09820981724442
 One-Electron (beta)  Energy = -4054.81534098324619
 Total Coulomb        Energy = 2670.42143831495832
   10   -5265.6019794776      1.23e-04  
 Alpha HF Exchange    Energy = -19.76186606998415
 Beta HF Exchange     Energy = -19.57072045057907
 DFT Correlation      Energy =  -5.21442090962303
 DFT Exchange         Energy = -156.49974072627899
 One-Electron (alpha) Energy = -4098.19106251887206
 One-Electron (beta)  Energy = -4054.89363633920493
 Total Coulomb        Energy = 2670.60188619029122
   11   -5265.6021806312      4.77e-05  
 Alpha HF Exchange    Energy = -19.76180322291816
 Beta HF Exchange     Energy = -19.57066372748651
 DFT Correlation      Energy =  -5.21437638676140
 DFT Exchange         Energy = -156.49911401687478
 One-Electron (alpha) Energy = -4098.20397655461602
 One-Electron (beta)  Energy = -4054.90417166752513
 Total Coulomb        Energy = 2670.62451162451362
   12   -5265.6022137587      1.32e-05  
 Alpha HF Exchange    Energy = -19.76183668896203
 Beta HF Exchange     Energy = -19.57065380651711
 DFT Correlation      Energy =  -5.21438349884198
 DFT Exchange         Energy = -156.49921058927879
 One-Electron (alpha) Energy = -4098.20228571117786
 One-Electron (beta)  Energy = -4054.90119306648057
 Total Coulomb        Energy = 2670.61996616778788
   13   -5265.6022170005      2.18e-06  
 Alpha HF Exchange    Energy = -19.76184374403919
 Beta HF Exchange     Energy = -19.57065891535394
 DFT Correlation      Energy =  -5.21438353968639
 DFT Exchange         Energy = -156.49925483388296
 One-Electron (alpha) Energy = -4098.20434599192049
 One-Electron (beta)  Energy = -4054.90312957008109
 Total Coulomb        Energy = 2670.62401933440833
   14   -5265.6022170675      8.54e-07  Convergence criterion met
 ---------------------------------------
 SCF time:   CPU 50.27s  wall 4.00s 
<S^2> =          2.005392868
 Alpha HF Exchange    Energy = -19.76184374403919
 Beta HF Exchange     Energy = -19.57065891535394
 DFT Correlation      Energy =  -5.21438353968639
 DFT Exchange         Energy = -156.49925483388296
 One-Electron (alpha) Energy = -4098.20434599192049
 One-Electron (beta)  Energy = -4054.90312957008109
 Total Coulomb        Energy = 2670.62401933440833
 Nuclear repulsion Energy = 417.92738019300765
 SCF   energy in the final basis set =    -5265.6022170675
 Total energy in the final basis set =    -5265.6022170675
 
 --------------------------------------------------------------
 
                    Orbital Energies (a.u.)
 --------------------------------------------------------------
 
 Alpha MOs
 -- Occupied --
*******-482.845 -62.560 -62.504 -56.384 -56.376 -56.376 -56.325
-56.321 -56.321 -10.247 -10.207 -10.206  -8.747  -8.691  -6.584
 -6.561  -6.561  -6.521  -6.508  -6.508  -2.674  -2.669  -2.669
 -2.652  -2.652  -2.614  -2.611  -2.611  -2.601  -2.601  -0.825
 -0.800  -0.761  -0.664  -0.600  -0.492  -0.431  -0.428  -0.416
 -0.374  -0.359  -0.358  -0.326  -0.325  -0.276  -0.273  -0.218
 -- Virtual --
  0.001   0.092   0.118   0.123   0.139   0.156   0.172   0.197
  0.209   0.243   0.256   0.285   0.309   0.314   0.342   0.351
  0.360   0.480   0.485   0.500   0.525   0.536   0.542   0.549
  0.557   0.571   0.577   0.596   0.619   0.631   0.682   0.702
  0.729   0.789   0.816   0.820   0.844   0.859   0.887   0.907
  0.928   1.000   1.148   1.218   1.310   1.419   1.487   1.505
  1.655   1.666   1.691   1.738   1.814   1.857   1.935   1.978
  2.012   2.057   2.109   2.172   2.203   2.237   2.336   2.343
  2.433   2.465   2.505   2.595   2.599   2.694   2.765   2.775
  2.843   2.873   3.198   3.260   3.368   3.373   3.452   3.539
  4.210   4.371   4.577   4.647   4.654   4.654   4.680   4.684
  4.731   4.747   4.813   4.814   4.985   6.210   6.305  90.140
 90.360
 
 Beta MOs
 -- Occupied --
*******-482.845 -62.558 -62.504 -56.378 -56.375 -56.375 -56.325
-56.321 -56.321 -10.246 -10.207 -10.194  -8.743  -8.691  -6.573
 -6.560  -6.559  -6.521  -6.508  -6.508  -2.666  -2.663  -2.663
 -2.651  -2.651  -2.614  -2.611  -2.610  -2.601  -2.601  -0.820
 -0.756  -0.751  -0.648  -0.588  -0.488  -0.425  -0.422  -0.406
 -0.356  -0.353  -0.311  -0.311  -0.274  -0.273
 -- Virtual --
 -0.238  -0.070   0.013   0.095   0.125   0.125   0.147   0.158
  0.182   0.200   0.213   0.247   0.263   0.312   0.314   0.323
  0.344   0.351   0.361   0.485   0.486   0.513   0.546   0.570
  0.582   0.585   0.587   0.588   0.591   0.604   0.620   0.635
  0.684   0.733   0.739   0.794   0.818   0.826   0.846   0.862
  0.894   0.911   0.930   1.015   1.151   1.226   1.322   1.450
  1.492   1.518   1.655   1.684   1.710   1.746   1.823   1.862
  1.938   2.020   2.028   2.059   2.109   2.178   2.205   2.238
  2.338   2.352   2.450   2.473   2.520   2.596   2.613   2.701
  2.766   2.778   2.846   2.877   3.200   3.264   3.370   3.378
  3.457   3.542   4.223   4.391   4.580   4.666   4.668   4.669
  4.682   4.687   4.732   4.747   4.813   4.815   4.985   6.226
  6.305  90.146  90.360
 --------------------------------------------------------------
 
          Ground-State Mulliken Net Atomic Charges

     Atom                 Charge (a.u.)    Spin (a.u.)
  --------------------------------------------------------
      1 Br                   -0.001367       1.008824
      2 Br                   -0.132495       0.033011
      3 C                    -0.193271      -0.073286
      4 C                    -0.217810       1.053642
      5 C                    -0.244158       0.042828
      6 H                     0.129371       0.013941
      7 H                     0.129111       0.013279
      8 H                     0.113621      -0.046171
      9 H                     0.113133      -0.046170
     10 H                     0.151951       0.000064
     11 H                     0.151913       0.000039
  --------------------------------------------------------
  Sum of atomic charges =    -0.000000
  Sum of spin   charges =     2.000000

 -----------------------------------------------------------------
                    Cartesian Multipole Moments
 -----------------------------------------------------------------
    Charge (ESU x 10^10)
                -0.0000
    Dipole Moment (Debye)
         X      -1.8887      Y      -1.4686      Z      -0.0183
       Tot       2.3925
    Quadrupole Moments (Debye-Ang)
        XX     -64.3524     XY      -1.9321     YY     -56.5290
        XZ      -0.1328     YZ      -0.2010     ZZ     -53.3665
    Octopole Moments (Debye-Ang^2)
       XXX      35.5745    XXY     -30.4705    XYY      18.9289
       YYY     -82.2256    XXZ       0.3220    XYZ       0.5413
       YYZ      -0.7982    XZZ       4.8987    YZZ     -26.0190
       ZZZ      -1.4405
    Hexadecapole Moments (Debye-Ang^3)
      XXXX   -2993.6166   XXXY     174.6462   XXYY    -542.0299
      XYYY     167.2784   YYYY    -382.2951   XXXZ      -7.0095
      XXYZ      -1.7797   XYYZ       1.0784   YYYZ      -2.4165
      XXZZ    -462.9361   XYZZ      38.7727   YYZZ     -69.6124
      XZZZ      -1.8456   YZZZ      -1.1753   ZZZZ     -78.3162
 -----------------------------------------------------------------
 Calculating analytic gradient of the SCF energy
 Gradient of SCF Energy
            1           2           3           4           5           6
    1   0.0008954   0.0000077  -0.0004160  -0.0020496   0.0000760   0.0001330
    2  -0.0006310   0.0001195   0.0002862   0.0008258  -0.0000546  -0.0002721
    3  -0.0000183   0.0000132   0.0000422   0.0000366   0.0000029   0.0001643
            7           8           9          10          11
    1   0.0001382   0.0006100   0.0006614  -0.0000237  -0.0000325
    2  -0.0002472  -0.0000004   0.0000493  -0.0000348  -0.0000406
    3  -0.0001669   0.0001070  -0.0001885   0.0000146  -0.0000069
 Max gradient component =       2.050E-03
 RMS gradient           =       4.753E-04
 Gradient time:  CPU 13.92 s  wall 1.23 s
 Geometry Optimization Parameters
   NAtoms,    NIC,     NZ,  NCons,   NDum,   NFix, NCnnct, MaxDiis
       11     120       0       1       0       0       0       0

 Cartesian Hessian Update
 Hessian Updated using BFGS Update


** CONSTRAINED OPTIMIZATION IN DELOCALIZED INTERNAL COORDINATES **
   Searching for a Minimum

   Optimization Cycle:   4

                       Coordinates (Angstroms)
     ATOM                X               Y               Z
      1  Br       -3.9721314484    1.2704163740    0.0053533211
      2  Br        2.9247635622    0.7327598486    0.0155762371
      3  C         0.0711471764    0.0822027869    0.0187795987
      4  C        -1.0100866501   -0.9468381377   -0.0033912773
      5  C         1.4497173444   -0.5961037343   -0.0008575929
      6  H         0.0005783091    0.7038583553    0.9177201657
      7  H        -0.0039083441    0.7462848184   -0.8487937464
      8  H        -1.3459178118   -1.3749149431   -0.9417635101
      9  H        -1.3300136295   -1.4306312723    0.9131134071
     10  H         1.6033843894   -1.1872649851   -0.9031211455
     11  H         1.6123681024   -1.2210681106    0.8767875426
   Point Group: c1    Number of degrees of freedom:    27


   Energy is  -5265.602217068

              Constraints and their Current Values
                                        Value     Constraint
   Distance(Angs):        1   4             3.700000     3.700000
 Hessian Updated using BFGS Update

 26 Hessian modes will be used to form the next step
  Hessian Eigenvalues:
     0.022616    0.041100    0.044999    0.047087    0.050908    0.060412
     0.066874    0.071514    0.071921    0.082513    0.083169    0.087108
     0.088245    0.127469    0.157728    0.160000    0.160781    0.221241
     0.267077    0.281557    0.288553    0.302229    0.308705    0.336823
     0.348636    0.348866

 Minimum Search - Taking Simple RFO Step
 Searching for Lamda that Minimizes Along All modes
 Value Taken    Lamda =  -0.00000595
 Step Taken.  Stepsize is  0.010011

[...]
   Br(  2)  6.915013
   C (  3)  4.213498  2.926533
   C (  4)  3.700000  4.279018  1.492963
   C (  5)  5.733542  1.984687  1.536230  2.486242
   H (  6)  4.110871  3.060698  1.095365  2.143310  2.153608
   H (  7)  4.089887  3.054563  1.095270  2.142892  2.153536  1.765033
   H (  8)  3.817562  4.872022  2.251438  1.084857  3.070084  3.094462
   H (  9)  3.854464  4.872070  2.251553  1.084872  3.063558  2.513066
   H ( 10)  6.160906  2.504561  2.192406  2.776185  1.089539  3.076329
   H ( 11)  6.176368  2.505646  2.192732  2.781127  1.089592  2.512741
             H (  7)   H (  8)   H (  9)   H ( 10)
   H (  8)  2.509025
   H (  9)  3.096279  1.856093
   H ( 10)  2.515784  2.980974  3.482214
   H ( 11)  3.076283  3.497144  2.976813  1.780236
 
 Applying Cartesian multipole field
    Component          Value
    ---------          -----
     (2,0,0)        1.00000E-11
     (0,2,0)        2.00000E-11
     (0,0,2)       -3.00000E-10
 Nucleus-field energy     =     0.0000000326 hartrees
 Requested basis set is 6-31G(d,p)
 There are 46 shells and 145 basis functions
 A cutoff of  1.0D-14 yielded    907 shell pairs
 There are      8546 function pairs
 Smallest overlap matrix eigenvalue = 7.23E-04
 Guess from superposition of atomic densities
 Warning:  Energy on first SCF cycle will be non-variational
 SAD guess density has 93.945746 electrons

 -----------------------------------------------------------------------
  General SCF calculation program by
  Eric Jon Sundstrom, Paul Horn, Yuezhi Mao, Dmitri Zuev, Alec White,
  David Stuck, Shaama M.S., Shane Yost, Joonho Lee, David Small,
  Daniel Levine, Susi Lehtola, Hugh Burton, Evgeny Epifanovsky
 -----------------------------------------------------------------------
 Exchange:     0.2000 Hartree-Fock + 0.0800 Slater + 0.7200 B88
 Correlation:  0.1900 VWN1RPA + 0.8100 LYP
 Using SG-1 standard quadrature grid
 using 12 threads for integral computing
 -------------------------------------------------------
 OpenMP Integral computing Module                
 Release: version 1.0, May 2013, Q-Chem Inc. Pittsburgh 
 -------------------------------------------------------
 -------------------------------------------------------
 OpenMP BLAS3 based DFT computing Module                
 Release: version 1.0, May 2013, Q-Chem Inc. Pittsburgh 
 -------------------------------------------------------
 A unrestricted SCF calculation will be
 performed using DIIS
 SCF converges when DIIS error is below 1.0e-06
 Alpha HF Exchange    Energy = -19.60537679510916
 Beta HF Exchange     Energy = -19.60537679510916
 DFT Correlation      Energy =  -5.19320299709399
 DFT Exchange         Energy = -155.86225978124168
 One-Electron (alpha) Energy = -4074.51830311057438
 One-Electron (beta)  Energy = -4074.51830311057438
 Total Coulomb        Energy = 2658.86333239200439
 ---------------------------------------
  Cycle       Energy         DIIS error
 ---------------------------------------
    1   -5272.4142562857      1.83e-01  
 Alpha HF Exchange    Energy = -19.82790774877789
 Beta HF Exchange     Energy = -19.62962231868288
 DFT Correlation      Energy =  -5.23558536932710
 DFT Exchange         Energy = -157.02284789146074
 One-Electron (alpha) Energy = -4105.04102049010271
 One-Electron (beta)  Energy = -4061.02662805598220
 Total Coulomb        Energy = 2684.50289985003792
    2   -5265.2554781123      1.05e-02  
 Alpha HF Exchange    Energy = -19.68393044537827
 Beta HF Exchange     Energy = -19.52475417735704
 DFT Correlation      Energy =  -5.21187694316972
 DFT Exchange         Energy = -156.10091270589530
 One-Electron (alpha) Energy = -4079.90650315256335
 One-Electron (beta)  Energy = -4045.30953422512539
 Total Coulomb        Energy = 2649.99416565991078
    3   -5257.7181120776      1.33e-02  
 Alpha HF Exchange    Energy = -19.69777513402664
 Beta HF Exchange     Energy = -19.51522717556556
 DFT Correlation      Energy =  -5.19174624676792
 DFT Exchange         Energy = -156.12976940089615
 One-Electron (alpha) Energy = -4092.60833876238848
 One-Electron (beta)  Energy = -4049.46724159376163
 Total Coulomb        Energy = 2663.16531387815667
    4   -5261.4195505232      1.18e-02  
 Alpha HF Exchange    Energy = -19.79183632017503
 Beta HF Exchange     Energy = -19.59609819267423
 DFT Correlation      Energy =  -5.22650691322741
 DFT Exchange         Energy = -156.74135938017764
 One-Electron (alpha) Energy = -4103.09073043182889
 One-Electron (beta)  Energy = -4060.18565197595763
 Total Coulomb        Energy = 2681.32921979456523
    5   -5265.2777295075      3.21e-03  
 Alpha HF Exchange    Energy = -19.73595087894851
 Beta HF Exchange     Energy = -19.54601057024079
 DFT Correlation      Energy =  -5.20898971381521
 DFT Exchange         Energy = -156.30568892737330
 One-Electron (alpha) Energy = -4095.18141011241687
 One-Electron (beta)  Energy = -4052.27965616410393
 Total Coulomb        Energy = 2664.67001714205935
    6   -5265.5624553128      1.89e-03  
 Alpha HF Exchange    Energy = -19.75805015794675
 Beta HF Exchange     Energy = -19.56926784942935
 DFT Correlation      Energy =  -5.21425861239829
 DFT Exchange         Energy = -156.48383165355114
 One-Electron (alpha) Energy = -4097.87759710320825
 One-Electron (beta)  Energy = -4054.67286127886655
 Total Coulomb        Energy = 2669.96276017388891
    7   -5265.5878725695      9.43e-04  
 Alpha HF Exchange    Energy = -19.75969533269966
 Beta HF Exchange     Energy = -19.56932992037101
 DFT Correlation      Energy =  -5.21437514621808
 DFT Exchange         Energy = -156.48798914085731
 One-Electron (alpha) Energy = -4098.06495086024006
 One-Electron (beta)  Energy = -4054.82556219454273
 Total Coulomb        Energy = 2670.30002644637534
    8   -5265.5966422365      5.57e-04  
 Alpha HF Exchange    Energy = -19.75915132620810
 Beta HF Exchange     Energy = -19.56866005170080
 DFT Correlation      Energy =  -5.21426262038214
 DFT Exchange         Energy = -156.48274809578379
 One-Electron (alpha) Energy = -4098.00023850700381
 One-Electron (beta)  Energy = -4054.73912454445099
 Total Coulomb        Energy = 2670.13877136436349
    9   -5265.6001798691      3.67e-04  
 Alpha HF Exchange    Energy = -19.76062695645007
 Beta HF Exchange     Energy = -19.56996630437840
 DFT Correlation      Energy =  -5.21410667551192
 DFT Exchange         Energy = -156.49183624150325
 One-Electron (alpha) Energy = -4098.17753579410692
 One-Electron (beta)  Energy = -4054.91777688265120
 Total Coulomb        Energy = 2670.50461850418878
   10   -5265.6019964384      1.26e-04  
 Alpha HF Exchange    Energy = -19.76182864379383
 Beta HF Exchange     Energy = -19.57077990818976
 DFT Correlation      Energy =  -5.21444008619614
 DFT Exchange         Energy = -156.49977593196968
 One-Electron (alpha) Energy = -4098.27922820537424
 One-Electron (beta)  Energy = -4055.00402017953911
 Total Coulomb        Energy = 2670.70262413774390
   11   -5265.6022149053      4.56e-05  
 Alpha HF Exchange    Energy = -19.76173955928957
 Beta HF Exchange     Energy = -19.57070652499455
 DFT Correlation      Energy =  -5.21439557517052
 DFT Exchange         Energy = -156.49900647529927
 One-Electron (alpha) Energy = -4098.28909500811915
 One-Electron (beta)  Energy = -4055.01173752946806
 Total Coulomb        Energy = 2670.71920172171485
   12   -5265.6022450386      1.27e-05  
 Alpha HF Exchange    Energy = -19.76176950531308
 Beta HF Exchange     Energy = -19.57069351234398
 DFT Correlation      Energy =  -5.21440082735605
 DFT Exchange         Energy = -156.49907687413221
 One-Electron (alpha) Energy = -4098.28706850511662
 One-Electron (beta)  Energy = -4055.00854083164086
 Total Coulomb        Energy = 2670.71406810828285
   13   -5265.6022480356      2.02e-06  
 Alpha HF Exchange    Energy = -19.76177596299804
 Beta HF Exchange     Energy = -19.57069897106726
 DFT Correlation      Energy =  -5.21440111934958
 DFT Exchange         Energy = -156.49912157589523
 One-Electron (alpha) Energy = -4098.28909928716712
 One-Electron (beta)  Energy = -4055.01049158506839
 Total Coulomb        Energy = 2670.71810649359941
   14   -5265.6022480959      7.94e-07  Convergence criterion met
 ---------------------------------------
 SCF time:   CPU 50.34s  wall 4.00s 
<S^2> =          2.005421699
 Alpha HF Exchange    Energy = -19.76177596299804
 Beta HF Exchange     Energy = -19.57069897106726
 DFT Correlation      Energy =  -5.21440111934958
 DFT Exchange         Energy = -156.49912157589523
 One-Electron (alpha) Energy = -4098.28909928716712
 One-Electron (beta)  Energy = -4055.01049158506839
 Total Coulomb        Energy = 2670.71810649359941
 Nuclear repulsion Energy = 418.02523391202112
 SCF   energy in the final basis set =    -5265.6022480959
 Total energy in the final basis set =    -5265.6022480959
 
 --------------------------------------------------------------
 
                    Orbital Energies (a.u.)
 --------------------------------------------------------------
 
 Alpha MOs
 -- Occupied --
*******-482.845 -62.560 -62.504 -56.384 -56.377 -56.377 -56.325
-56.321 -56.321 -10.247 -10.207 -10.206  -8.747  -8.691  -6.584
 -6.562  -6.562  -6.521  -6.508  -6.508  -2.675  -2.669  -2.669
 -2.653  -2.653  -2.614  -2.611  -2.611  -2.601  -2.601  -0.825
 -0.800  -0.761  -0.664  -0.599  -0.491  -0.431  -0.428  -0.416
 -0.374  -0.358  -0.358  -0.326  -0.326  -0.276  -0.273  -0.218
 -- Virtual --
  0.001   0.093   0.118   0.123   0.139   0.155   0.172   0.197
  0.211   0.244   0.256   0.285   0.309   0.314   0.342   0.351
  0.360   0.481   0.485   0.501   0.525   0.536   0.541   0.549
  0.557   0.571   0.576   0.595   0.619   0.631   0.681   0.704
  0.733   0.789   0.817   0.817   0.844   0.857   0.887   0.907
  0.928   0.998   1.151   1.216   1.311   1.424   1.487   1.496
  1.655   1.667   1.691   1.737   1.814   1.859   1.932   1.980
  2.010   2.057   2.110   2.173   2.203   2.237   2.338   2.342
  2.433   2.468   2.513   2.591   2.596   2.690   2.765   2.773
  2.845   2.877   3.199   3.260   3.370   3.373   3.448   3.542
  4.210   4.370   4.577   4.647   4.653   4.654   4.679   4.683
  4.731   4.747   4.813   4.815   4.985   6.210   6.305  90.139
 90.360
 
 Beta MOs
 -- Occupied --
*******-482.845 -62.558 -62.504 -56.379 -56.376 -56.376 -56.325
-56.321 -56.321 -10.245 -10.207 -10.194  -8.743  -8.691  -6.573
 -6.560  -6.560  -6.521  -6.508  -6.508  -2.667  -2.663  -2.663
 -2.652  -2.652  -2.614  -2.610  -2.610  -2.601  -2.601  -0.820
 -0.756  -0.751  -0.648  -0.587  -0.488  -0.425  -0.422  -0.406
 -0.356  -0.353  -0.311  -0.311  -0.274  -0.273
 -- Virtual --
 -0.238  -0.070   0.013   0.096   0.125   0.125   0.147   0.157
  0.182   0.200   0.214   0.247   0.263   0.312   0.314   0.323
  0.344   0.351   0.361   0.485   0.486   0.515   0.546   0.570
  0.583   0.585   0.587   0.588   0.591   0.603   0.620   0.635
  0.684   0.736   0.741   0.794   0.819   0.823   0.846   0.860
  0.894   0.911   0.931   1.014   1.154   1.225   1.323   1.460
  1.492   1.504   1.655   1.685   1.710   1.745   1.823   1.863
  1.936   2.013   2.034   2.059   2.110   2.179   2.205   2.238
  2.340   2.350   2.449   2.477   2.528   2.597   2.604   2.697
  2.766   2.776   2.848   2.881   3.201   3.263   3.372   3.377
  3.453   3.545   4.223   4.390   4.580   4.666   4.668   4.668
  4.682   4.686   4.732   4.747   4.814   4.815   4.985   6.226
  6.306  90.146  90.361
 --------------------------------------------------------------
 
          Ground-State Mulliken Net Atomic Charges

     Atom                 Charge (a.u.)    Spin (a.u.)
  --------------------------------------------------------
      1 Br                   -0.001373       1.008631
      2 Br                   -0.132605       0.032128
      3 C                    -0.193025      -0.073694
      4 C                    -0.219560       1.055778
      5 C                    -0.243778       0.042602
      6 H                     0.129294       0.014250
      7 H                     0.129041       0.013643
      8 H                     0.114161      -0.046765
      9 H                     0.113696      -0.046761
     10 H                     0.152092       0.000105
     11 H                     0.152056       0.000083
  --------------------------------------------------------
  Sum of atomic charges =    -0.000000
  Sum of spin   charges =     2.000000

 -----------------------------------------------------------------
                    Cartesian Multipole Moments
 -----------------------------------------------------------------
    Charge (ESU x 10^10)
                 0.0000
    Dipole Moment (Debye)
         X      -1.9180      Y      -1.4498      Z      -0.0185
       Tot       2.4043
    Quadrupole Moments (Debye-Ang)
        XX     -64.2469     XY      -1.9460     YY     -56.6001
        XZ      -0.1331     YZ      -0.1993     ZZ     -53.3661
    Octopole Moments (Debye-Ang^2)
       XXX      34.8196    XXY     -30.4432    XYY      18.7864
       YYY     -81.5734    XXZ       0.2404    XYZ       0.5408
       YYZ      -0.8209    XZZ       4.7162    YZZ     -25.8821
       ZZZ      -1.5436
    Hexadecapole Moments (Debye-Ang^3)
      XXXX   -2992.3532   XXXY     171.2574   XXYY    -541.2790
      XYYY     163.9572   YYYY    -380.4503   XXXZ      -6.6174
      XXYZ      -1.8327   XYYZ       1.0915   YYYZ      -2.5182
      XXZZ    -462.6849   XYZZ      37.8092   YYZZ     -69.3900
      XZZZ      -1.7579   YZZZ      -1.3040   ZZZZ     -78.3036
 -----------------------------------------------------------------
 Calculating analytic gradient of the SCF energy
 Gradient of SCF Energy
            1           2           3           4           5           6
    1   0.0009048  -0.0000210  -0.0000748  -0.0008773   0.0000738  -0.0000344
    2  -0.0006321   0.0000129   0.0001208   0.0005096   0.0000434  -0.0000531
    3  -0.0000153   0.0000199   0.0000192  -0.0000042   0.0000072   0.0000362
            7           8           9          10          11
    1  -0.0000301   0.0000257   0.0000481  -0.0000028  -0.0000120
    2  -0.0000499   0.0000445   0.0000082   0.0000069  -0.0000111
    3  -0.0000318  -0.0000124  -0.0000158   0.0000015  -0.0000045
 Max gradient component =       9.048E-04
 RMS gradient           =       2.636E-04
 Gradient time:  CPU 13.90 s  wall 1.23 s
 Geometry Optimization Parameters
   NAtoms,    NIC,     NZ,  NCons,   NDum,   NFix, NCnnct, MaxDiis
       11     120       0       1       0       0       0       0

 Cartesian Hessian Update
 Hessian Updated using BFGS Update


** CONSTRAINED OPTIMIZATION IN DELOCALIZED INTERNAL COORDINATES **
   Searching for a Minimum

   Optimization Cycle:  11

                       Coordinates (Angstroms)
     ATOM                X               Y               Z
      1  Br       -3.9688778184    1.2603363018    0.0066871498
      2  Br        2.9263001317    0.7370537967    0.0165416848
      3  C         0.0751079670    0.0772861999    0.0182479344
      4  C        -1.0044546788   -0.9537294225   -0.0038884142
      5  C         1.4558898119   -0.5958282191   -0.0007784434
      6  H         0.0009354190    0.7006639112    0.9158682652
      7  H        -0.0031587720    0.7420686811   -0.8486742989
      8  H        -1.3636708170   -1.3640068825   -0.9417323947
      9  H        -1.3499571231   -1.4184355754    0.9135117615
     10  H         1.6117465953   -1.1862169037   -0.9031334642
     11  H         1.6200402844   -1.2204908874    0.8767532197
   Point Group: c1    Number of degrees of freedom:    27


   Energy is  -5265.602248096

              Constraints and their Current Values
                                        Value     Constraint
   Distance(Angs):        1   4             3.700000     3.700000
 Hessian Updated using BFGS Update

 26 Hessian modes will be used to form the next step
  Hessian Eigenvalues:
     0.002731    0.005430    0.041101    0.044949    0.050001    0.055471
     0.060403    0.069331    0.071684    0.082485    0.083993    0.086981
     0.087824    0.119969    0.159646    0.160034    0.171252    0.221747
     0.258099    0.281570    0.290164    0.302234    0.308850    0.333394
     0.348608    0.348674

 Minimum Search - Taking Simple RFO Step
 Searching for Lamda that Minimizes Along All modes
 Value Taken    Lamda =   0.00000000
 Step Taken.  Stepsize is  0.011777

                             Maximum     Tolerance    Cnvgd?
         Gradient           0.000048      0.000300     YES
         Displacement       0.008828      0.001200      NO
         Energy change     -0.000000      0.000001     YES


                       Distance Matrix (Angstroms)
             Br(  1)   Br(  2)   C (  3)   C (  4)   C (  5)   H (  6)
   Br(  2)  6.915013
   C (  3)  4.213498  2.926533
   C (  4)  3.700000  4.279018  1.492963
   C (  5)  5.733542  1.984687  1.536230  2.486242
   H (  6)  4.110871  3.060698  1.095365  2.143310  2.153608
   H (  7)  4.089887  3.054563  1.095270  2.142892  2.153536  1.765033
   H (  8)  3.817562  4.872022  2.251438  1.084857  3.070084  3.094462
   H (  9)  3.854464  4.872070  2.251553  1.084872  3.063558  2.513066
   H ( 10)  6.160906  2.504561  2.192406  2.776185  1.089539  3.076329
   H ( 11)  6.176368  2.505646  2.192732  2.781127  1.089592  2.512741
             H (  7)   H (  8)   H (  9)   H ( 10)
   H (  8)  2.509025
   H (  9)  3.096279  1.856093
   H ( 10)  2.515784  2.980974  3.482214
   H ( 11)  3.076283  3.497144  2.976813  1.780236
 
 Final energy is   -5265.60224809593     


 ******************************
 **  OPTIMIZATION CONVERGED  **
 ******************************

                       Coordinates (Angstroms)
     ATOM                X               Y               Z
      1  Br       -3.9688778184    1.2603363018    0.0066871498
      2  Br        2.9263001317    0.7370537967    0.0165416848
      3  C         0.0751079670    0.0772861999    0.0182479344
      4  C        -1.0044546788   -0.9537294225   -0.0038884142
      5  C         1.4558898119   -0.5958282191   -0.0007784434
      6  H         0.0009354190    0.7006639112    0.9158682652
      7  H        -0.0031587720    0.7420686811   -0.8486742989
      8  H        -1.3636708170   -1.3640068825   -0.9417323947
      9  H        -1.3499571231   -1.4184355754    0.9135117615
     10  H         1.6117465953   -1.1862169037   -0.9031334642
     11  H         1.6200402844   -1.2204908874    0.8767532197

Z-matrix Print:
$molecule
0 3
Br
C  1 1.984687
H  2 1.089539 1 105.376290
H  2 1.089592 1 105.448632 3 115.864962 0
C  2 1.536230 1 111.810678 3 -122.030052 0
H  5 1.095270 2 108.685280 1 57.942465 0
H  5 1.095365 2 108.685380 1 -58.600229 0
C  5 1.492963 2 110.313818 1 179.653905 0
H  8 1.084857 5 120.891806 2 -85.935687 0
H  8 1.084872 5 120.901392 2 85.062759 0
Br 8 3.700000 5 99.558823 2 -179.237827 0
$end

PES scan, value:    3.7000 energy: -5265.6022480959
------- Summary of potential scan: ------ 
    3.7000     -5265.6022480959
----------------------------------------- 
Archival summary:
1\1\hpc0242\JobtypUnspecified\ProcedureUnspecified\6-31G**\r236(3)\knomura\ThuMar1406:04:572019ThuMar1406:04:572019\0\\#,JobtypUnspecified,ProcedureUnspecified,6-31G**,\\0,3\Br\C,1,1.98469\H,2,1.08954,1,105.376\H,2,1.08959,1,105.449,3,115.865,0\C,2,1.53623,1,111.811,3,-122.03,0\H,5,1.09527,2,108.685,1,57.9425,0\H,5,1.09536,2,108.685,1,-58.6002,0\C,5,1.49296,2,110.314,1,179.654,0\H,8,1.08486,5,120.892,2,-85.9357,0\H,8,1.08487,5,120.901,2,85.0628,0\Br,8,3.7,5,99.5588,2,-179.238,0\\\@

 Total job time:  66.78s(wall), 775.93s(cpu) 
 Thu Mar 14 06:04:57 2019

        *************************************************************
        *                                                           *
        *  Thank you very much for using Q-Chem.  Have a nice day.  *
        *                                                           *
        *************************************************************


