
Running Job 1 of 1 halogens/Bromine/04/Br_1_4.xyz.data/inputs/bond_triplet_4.3.in
qchem halogens/Bromine/04/Br_1_4.xyz.data/inputs/bond_triplet_4.3.in_21766.0 /staging/scratch/2868759/qchem21766/ 1
/usr/usc/qchem/5.1.1/exe/qcprog.exe_s halogens/Bromine/04/Br_1_4.xyz.data/inputs/bond_triplet_4.3.in_21766.0 /staging/scratch/2868759/qchem21766/
Check license passed

                  Welcome to Q-Chem
     A Quantum Leap Into The Future Of Chemistry


 Q-Chem 5.1, Q-Chem, Inc., Pleasanton, CA (2018)

 Yihan Shao,  Zhengting Gan,  E. Epifanovsky,  A. T. B. Gilbert,  M. Wormit,  
 J. Kussmann,  A. W. Lange,  A. Behn,  Jia Deng,  Xintian Feng,  D. Ghosh,  
 M. Goldey,  P. R. Horn,  L. D. Jacobson,  I. Kaliman,  T. Kus,  A. Landau,  
 Jie Liu,  E. I. Proynov,  R. M. Richard,  R. P. Steele,  E. J. Sundstrom,  
 H. L. Woodcock III,  P. M. Zimmerman,  D. Zuev,  B. Albrecht,  E. Alguire,  
 S. A. Baeppler,  D. Barton,  Z. Benda,  Y. A. Bernard,  E. J. Berquist,  
 K. B. Bravaya,  H. Burton,  D. Casanova,  Chun-Min Chang,  Yunqing Chen,  
 A. Chien,  K. D. Closser,  M. P. Coons,  S. Coriani,  S. Dasgupta,  
 A. L. Dempwolff,  M. Diedenhofen,  Hainam Do,  R. G. Edgar,  Po-Tung Fang,  
 S. Faraji,  S. Fatehi,  Qingguo Feng,  K. D. Fenk,  J. Fosso-Tande,  
 Qinghui Ge,  A. Ghysels,  G. Gidofalvi,  J. Gomes,  J. Gonthier,  A. Gunina,  
 D. Hait,  M. W. D. Hanson-Heine,  P. H. P. Harbach,  A. W. Hauser,  
 J. E. Herr,  E. G. Hohenstein,  Z. C. Holden,  Kerwin Hui,  B. C. Huynh,  
 T.-C. Jagau,  Hyunjun Ji,  B. Kaduk,  K. Khistyaev,  Jaehoon Kim,  
 P. Klunzinger,  K. Koh,  D. Kosenkov,  L. Koulias,  T. Kowalczyk,  
 C. M. Krauter,  A. Kunitsa,  Ka Un Lao,  A. Laurent,  K. V. Lawler,  
 Joonho Lee,  D. Lefrancois,  S. Lehtola,  D. S. Levine,  Yi-Pei Li,  
 You-Sheng Lin,  Fenglai Liu,  E. Livshits,  A. Luenser,  P. Manohar,  
 E. Mansoor,  S. F. Manzer,  Shan-Ping Mao,  Yuezhi Mao,  N. Mardirossian,  
 A. V. Marenich,  T. Markovich,  L. A. Martinez-Martinez,  S. A. Maurer,  
 N. J. Mayhall,  S. C. McKenzie,  J.-M. Mewes,  A. F. Morrison,  
 J. W. Mullinax,  K. Nanda,  T. S. Nguyen-Beck,  R. Olivares-Amaya,  
 J. A. Parkhill,  T. M. Perrine,  F. Plasser,  P. Pokhilko,  S. Prager,  
 A. Prociuk,  E. Ramos,  D. R. Rehn,  F. Rob,  M. Schneider,  N. Sergueev,  
 S. M. Sharada,  S. Sharma,  D. W. Small,  T. Stauch,  T. Stein,  
 Yu-Chuan Su,  A. J. W. Thom,  A. Tkatchenko,  T. Tsuchimochi,  N. M. Tubman,  
 L. Vogt,  M. L. Vidal,  O. Vydrov,  M. A. Watson,  J. Wenzel,  
 M. de Wergifosse,  T. A. Wesolowski,  A. White,  J. Witte,  A. Yamada,  
 Jun Yang,  K. Yao,  S. Yeganeh,  S. R. Yost,  Zhi-Qiang You,  A. Zech,  
 Igor Ying Zhang,  Xing Zhang,  Yan Zhao,  Ying Zhu,  B. R. Brooks,  
 G. K. L. Chan,  C. J. Cramer,  M. S. Gordon,  W. J. Hehre,  A. Klamt,  
 M. W. Schmidt,  C. D. Sherrill,  D. G. Truhlar,  A. Aspuru-Guzik,  R. Baer,  
 A. T. Bell,  N. A. Besley,  Jeng-Da Chai,  A. E. DePrince, III,  
 R. A. DiStasio Jr.,  A. Dreuw,  B. D. Dunietz,  T. R. Furlani,  
 Chao-Ping Hsu,  Yousung Jung,  Jing Kong,  D. S. Lambrecht,  WanZhen Liang,  
 C. Ochsenfeld,  V. A. Rassolov,  L. V. Slipchenko,  J. E. Subotnik,  
 T. Van Voorhis,  J. M. Herbert,  A. I. Krylov,  P. M. W. Gill,  M. Head-Gordon

 Contributors to earlier versions of Q-Chem not listed above: 
 R. D. Adamson,  B. Austin,  J. Baker,  G. J. O. Beran,  K. Brandhorst,  
 S. T. Brown,  E. F. C. Byrd,  A. K. Chakraborty,  C.-L. Cheng,  
 Siu Hung Chien,  D. M. Chipman,  D. L. Crittenden,  H. Dachsel,  
 R. J. Doerksen,  A. D. Dutoi,  L. Fusti-Molnar,  W. A. Goddard III,  
 A. Golubeva-Zadorozhnaya,  S. R. Gwaltney,  G. Hawkins,  A. Heyden,  
 S. Hirata,  G. Kedziora,  F. J. Keil,  C. Kelley,  Jihan Kim,  R. A. King,  
 R. Z. Khaliullin,  P. P. Korambath,  W. Kurlancheek,  A. M. Lee,  M. S. Lee,  
 S. V. Levchenko,  Ching Yeh Lin,  D. Liotard,  R. C. Lochan,  I. Lotan,  
 P. E. Maslen,  N. Nair,  D. P. O'Neill,  D. Neuhauser,  E. Neuscamman,  
 C. M. Oana,  R. Olson,  B. Peters,  R. Peverati,  P. A. Pieniazek,  
 Y. M. Rhee,  J. Ritchie,  M. A. Rohrdanz,  E. Rosta,  N. J. Russ,  
 H. F. Schaefer III,  N. E. Schultz,  N. Shenvi,  A. C. Simmonett,  A. Sodt,  
 D. Stuck,  K. S. Thanthiriwatte,  V. Vanovschi,  Tao Wang,  A. Warshel,  
 C. F. Williams,  Q. Wu,  X. Xu,  W. Zhang

 Please cite Q-Chem as follows:
 Y. Shao et al., Mol. Phys. 113, 184-215 (2015)
 DOI: 10.1080/00268976.2014.952696

 Q-Chem 5.1.1 for Intel X86 EM64T Linux

 Parts of Q-Chem use Armadillo 8.300.2 (Tropical Shenanigans).
 http://arma.sourceforge.net/

 Q-Chem begins on Thu Mar 14 05:55:06 2019  

Host: 
0

     Scratch files written to /staging/scratch/2868759/qchem21766//
 Aug318 |scratch|qcdevops|jenkins|workspace|build_RNUM 6013   
Processing $rem in /usr/usc/qchem/5.1.1/config/preferences.
 MEM_TOTAL  2000 
Input Ideriv = 2
Curr. Ideriv = -1
Max.  Ideriv = 2

Checking the input file for inconsistencies... 	...done.

--------------------------------------------------------------
User input:
--------------------------------------------------------------

$comment
potential surface scanner
$end

$rem
JOBTYPE  PES_SCAN
UNRESTRICTED TRUE
SYM_IGNORE  TRUE
GEOM_OPT_MAX_CYCLES 400
SCF_MAX_CYCLES 400
METHOD   B3LYP
BASIS   6-31G**
PDB_PRINT 2
SCF_CONVERGENCE 6
THRESH 14
SCF_PRINT 1
$end
$molecule
0 3
Br -4.372849 1.697630 0.006505
Br 2.913861 0.796543 0.013862
C 0.090916 0.023018 0.019397
C -0.940910 -1.055857 -0.003972
C 1.499709 -0.591519 -0.000950
H -0.010315 0.640739 0.918457
H -0.016884 0.684203 -0.847322
H -1.269747 -1.489856 -0.942722
H -1.259054 -1.541616 0.912770
H 1.676675 -1.175751 -0.903316
H 1.688498 -1.208833 0.876691
$end
$scan
stre 1 4 4.300000 4.301000 0.100000
$end
--------------------------------------------------------------
 ----------------------------------------------------------------
             Standard Nuclear Orientation (Angstroms)
    I     Atom           X                Y                Z
 ----------------------------------------------------------------
    1      Br     -4.3728490000     1.6976300000     0.0065050000
    2      Br      2.9138610000     0.7965430000     0.0138620000
    3      C       0.0909160000     0.0230180000     0.0193970000
    4      C      -0.9409100000    -1.0558570000    -0.0039720000
    5      C       1.4997090000    -0.5915190000    -0.0009500000
    6      H      -0.0103150000     0.6407390000     0.9184570000
    7      H      -0.0168840000     0.6842030000    -0.8473220000
    8      H      -1.2697470000    -1.4898560000    -0.9427220000
    9      H      -1.2590540000    -1.5416160000     0.9127700000
   10      H       1.6766750000    -1.1757510000    -0.9033160000
   11      H       1.6884980000    -1.2088330000     0.8766910000
 ----------------------------------------------------------------
 Nuclear Repulsion Energy =   400.0898764185 hartrees
 There are       48 alpha and       46 beta electrons
 Requested basis set is 6-31G(d,p)
 There are 46 shells and 145 basis functions

 Total QAlloc Memory Limit   2000 MB
 Mega-Array Size       188 MB
 MEM_STATIC part       192 MB
A total of 1 constraints
  
            1
    1   1.0100000
    2   1.0100000
    3   4.0100000
    4   4.3000000
    5   4.3010000
    6   0.1000000
    7   0.0000000
    8   0.0000000
    9   0.0000000
   10   0.0000000

                       Distance Matrix (Angstroms)
             Br(  1)   Br(  2)   C (  3)   C (  4)   C (  5)   H (  6)
   Br(  2)  7.342217
   C (  3)  4.767566  2.927010
   C (  4)  4.400001  4.276794  1.493045
   C (  5)  6.302951  1.981606  1.537130  2.484399
   H (  6)  4.580434  3.064861  1.095507  2.143670  2.154981
   H (  7)  4.553074  3.056718  1.095440  2.143099  2.154963  1.766326
   H (  8)  4.548664  4.862638  2.250748  1.085238  3.060038  3.096707
   H (  9)  4.583639  4.867057  2.251358  1.085170  3.057506  2.514370
   H ( 10)  6.758760  2.502357  2.191593  2.770369  1.089453  3.076431
   H ( 11)  6.778250  2.503502  2.191958  2.777185  1.089482  2.511698
             H (  7)   H (  8)   H (  9)   H ( 10)
   H (  8)  2.511036
   H (  9)  3.097609  1.856245
   H ( 10)  2.516089  2.963379  3.471387
   H ( 11)  3.076383  3.484315  2.966498  1.780354
 
 A cutoff of  1.0D-14 yielded    877 shell pairs
 There are      8216 function pairs
 
 -------------------------------------------------------
 OpenMP Integral Computing Module                       
 Release: version 1.0, May 2013, Q-Chem Inc. Pittsburgh 
 -------------------------------------------------------
 Integral Job Info:
 Integral job number is                      11
 Integral operator is                         1
 short-range coefficients                     0
 long-range coefficients              100000000
 Omega coefficients                           0
 if combine SR and LR in K                    0
 Integral screening is                        0
 Integral computing path is                   2
 max size of driver memory is            800000
 size of driver memory is                593474
 size of scratch memory is             15267112
 max col of scratch BK array               1296
 max len of scratch array in speh3          155
 max len of scratch index in speh4           18
 max int batch size is                      520
 min int batch size is                       52
 fixed nKL is                                52
 max L of basis functions is                  2
 order of int derivative is                   0
 number of shells is                         46
 number of basis is                         145
 number of cartesian basis is               145
 number of contracted shell pairs           877
 number of primitive shell pairs           3734
 maxK2 (contraction) of shell pair           36
 max number of K2 of shell pair               1
 max number of CS2 of shell pair             63
 max number of PS2 of shell pair            378
 mem total for path MDJ                  524700
 -------------------------------------------------------
 Smallest overlap matrix eigenvalue = 7.23E-04

 Scale SEOQF with 1.000000e-01/1.000000e-01/1.000000e+00

 Standard Electronic Orientation quadrupole field applied
 Nucleus-field energy     =     0.0000000403 hartrees
 Guess from superposition of atomic densities
 Warning:  Energy on first SCF cycle will be non-variational
 SAD guess density has 93.945746 electrons

 -----------------------------------------------------------------------
  General SCF calculation program by
  Eric Jon Sundstrom, Paul Horn, Yuezhi Mao, Dmitri Zuev, Alec White,
  David Stuck, Shaama M.S., Shane Yost, Joonho Lee, David Small,
  Daniel Levine, Susi Lehtola, Hugh Burton, Evgeny Epifanovsky
 -----------------------------------------------------------------------
 Exchange:     0.2000 Hartree-Fock + 0.0800 Slater + 0.7200 B88
 Correlation:  0.1900 VWN1RPA + 0.8100 LYP
 Using SG-1 standard quadrature grid
 using 12 threads for integral computing
 -------------------------------------------------------
 OpenMP Integral computing Module                
 Release: version 1.0, May 2013, Q-Chem Inc. Pittsburgh 
 -------------------------------------------------------
 -------------------------------------------------------
 OpenMP BLAS3 based DFT computing Module                
 Release: version 1.0, May 2013, Q-Chem Inc. Pittsburgh 
 -------------------------------------------------------
 A unrestricted SCF calculation will be
 performed using DIIS
 SCF converges when DIIS error is below 1.0e-06
 Alpha HF Exchange    Energy = -19.60522664331082
 Beta HF Exchange     Energy = -19.60522664331082
 DFT Correlation      Energy =  -5.19205195875699
 DFT Exchange         Energy = -155.86272392531924
 One-Electron (alpha) Energy = -4056.59203580876419
 One-Electron (beta)  Energy = -4056.59203580876419
 Total Coulomb        Energy = 2640.98645872207953
 ---------------------------------------
  Cycle       Energy         DIIS error
 ---------------------------------------
    1   -5272.3729656073      1.83e-01  
 Alpha HF Exchange    Energy = -19.82767943758863
 Beta HF Exchange     Energy = -19.63018369206650
 DFT Correlation      Energy =  -5.23459063521917
 DFT Exchange         Energy = -157.02403744875119
 One-Electron (alpha) Energy = -4086.44645655837030
 One-Electron (beta)  Energy = -4043.47177369294741
 Total Coulomb        Energy = 2666.29439537725784
    2   -5265.2504496288      1.05e-02  
 Alpha HF Exchange    Energy = -19.68817257875762
 Beta HF Exchange     Energy = -19.53999208028453
 DFT Correlation      Energy =  -5.21258810164875
 DFT Exchange         Energy = -156.15029082264249
 One-Electron (alpha) Energy = -4061.89731497700404
 One-Electron (beta)  Energy = -4028.07468418373628
 Total Coulomb        Energy = 2633.02721511869413
    3   -5257.4459511665      1.16e-02  
 Alpha HF Exchange    Energy = -19.62853775342864
 Beta HF Exchange     Energy = -19.48368378639982
 DFT Correlation      Energy =  -5.15086065630002
 DFT Exchange         Energy = -155.78969065417493
 One-Electron (alpha) Energy = -4061.69402380732163
 One-Electron (beta)  Energy = -4021.17477376940406
 Total Coulomb        Energy = 2638.04025509222220
    4   -5244.7914388760      2.20e-02  
 Alpha HF Exchange    Energy = -19.79149158449556
 Beta HF Exchange     Energy = -19.60019225554201
 DFT Correlation      Energy =  -5.22341208525779
 DFT Exchange         Energy = -156.74839183763700
 One-Electron (alpha) Energy = -4084.69168141983391
 One-Electron (beta)  Energy = -4043.64098803411071
 Total Coulomb        Energy = 2664.56308698305975
    5   -5265.0431937750      5.24e-03  
 Alpha HF Exchange    Energy = -19.75722577470392
 Beta HF Exchange     Energy = -19.56844221746776
 DFT Correlation      Energy =  -5.21464025651782
 DFT Exchange         Energy = -156.47990791810315
 One-Electron (alpha) Energy = -4079.27241423252508
 One-Electron (beta)  Energy = -4036.90121970445762
 Total Coulomb        Energy = 2651.84051554684629
    6   -5265.2634580981      3.08e-03  
 Alpha HF Exchange    Energy = -19.76766751596521
 Beta HF Exchange     Energy = -19.58265135944924
 DFT Correlation      Energy =  -5.21397634127755
 DFT Exchange         Energy = -156.56595729632471
 One-Electron (alpha) Energy = -4081.76875370915195
 One-Electron (beta)  Energy = -4039.84600102171771
 Total Coulomb        Energy = 2657.12796796956945
    7   -5265.5271628155      2.39e-03  
 Alpha HF Exchange    Energy = -19.76342775320828
 Beta HF Exchange     Energy = -19.57603554624864
 DFT Correlation      Energy =  -5.21489985544925
 DFT Exchange         Energy = -156.53032419067142
 One-Electron (alpha) Energy = -4080.22056011311270
 One-Electron (beta)  Energy = -4038.32508721218528
 Total Coulomb        Energy = 2653.95300412210599
    8   -5265.5874540899      9.49e-04  
 Alpha HF Exchange    Energy = -19.75886844898329
 Beta HF Exchange     Energy = -19.57029855878622
 DFT Correlation      Energy =  -5.21270707745502
 DFT Exchange         Energy = -156.48662919797567
 One-Electron (alpha) Energy = -4079.51250516968912
 One-Electron (beta)  Energy = -4037.64466349180930
 Total Coulomb        Energy = 2652.49865235003699
    9   -5265.5971431358      5.85e-04  
 Alpha HF Exchange    Energy = -19.76069986594448
 Beta HF Exchange     Energy = -19.57149948036649
 DFT Correlation      Energy =  -5.21313754385007
 DFT Exchange         Energy = -156.49872087826930
 One-Electron (alpha) Energy = -4079.63547357109383
 One-Electron (beta)  Energy = -4037.71343100984586
 Total Coulomb        Energy = 2652.70184402823043
   10   -5265.6012418623      3.24e-04  
 Alpha HF Exchange    Energy = -19.76143718450029
 Beta HF Exchange     Energy = -19.57138387316807
 DFT Correlation      Energy =  -5.21323471046443
 DFT Exchange         Energy = -156.50072832403245
 One-Electron (alpha) Energy = -4079.65243736605953
 One-Electron (beta)  Energy = -4037.70738177206340
 Total Coulomb        Energy = 2652.71422162880253
   11   -5265.6025051426      1.59e-04  
 Alpha HF Exchange    Energy = -19.76111544292867
 Beta HF Exchange     Energy = -19.57086759387983
 DFT Correlation      Energy =  -5.21307025710483
 DFT Exchange         Energy = -156.49727803664686
 One-Electron (alpha) Energy = -4079.61597726671152
 One-Electron (beta)  Energy = -4037.65225672174665
 Total Coulomb        Energy = 2652.61776460332294
   12   -5265.6029242569      3.76e-05  
 Alpha HF Exchange    Energy = -19.76145409157471
 Beta HF Exchange     Energy = -19.57107560538497
 DFT Correlation      Energy =  -5.21314921913609
 DFT Exchange         Energy = -156.49946349477437
 One-Electron (alpha) Energy = -4079.63380667707861
 One-Electron (beta)  Energy = -4037.66453476029619
 Total Coulomb        Energy = 2652.65066173415380
   13   -5265.6029456553      7.81e-06  
 Alpha HF Exchange    Energy = -19.76150793154652
 Beta HF Exchange     Energy = -19.57110267643716
 DFT Correlation      Energy =  -5.21316272768979
 DFT Exchange         Energy = -156.49979986160969
 One-Electron (alpha) Energy = -4079.64048167177179
 One-Electron (beta)  Energy = -4037.66911533831581
 Total Coulomb        Energy = 2652.66234672384235
   14   -5265.6029470247      2.58e-06  
 Alpha HF Exchange    Energy = -19.76149442729509
 Beta HF Exchange     Energy = -19.57108755111528
 DFT Correlation      Energy =  -5.21316267562100
 DFT Exchange         Energy = -156.49969810579387
 One-Electron (alpha) Energy = -4079.63895723291125
 One-Electron (beta)  Energy = -4037.66751765089975
 Total Coulomb        Energy = 2652.65909393621860
   15   -5265.6029472486      9.93e-07  Convergence criterion met
 ---------------------------------------
 SCF time:   CPU 53.91s  wall 5.00s 
<S^2> =          2.005370141
 Alpha HF Exchange    Energy = -19.76149442729509
 Beta HF Exchange     Energy = -19.57108755111528
 DFT Correlation      Energy =  -5.21316267562100
 DFT Exchange         Energy = -156.49969810579387
 One-Electron (alpha) Energy = -4079.63895723291125
 One-Electron (beta)  Energy = -4037.66751765089975
 Total Coulomb        Energy = 2652.65909393621860
 Nuclear repulsion Energy = 400.08987645883639
 SCF   energy in the final basis set =    -5265.6029472486
 Total energy in the final basis set =    -5265.6029472486
 
 --------------------------------------------------------------
 
                    Orbital Energies (a.u.)
 --------------------------------------------------------------
 
 Alpha MOs
 -- Occupied --
*******-482.847 -62.559 -62.506 -56.383 -56.376 -56.376 -56.327
-56.323 -56.323 -10.249 -10.212 -10.209  -8.746  -8.693  -6.583
 -6.561  -6.561  -6.523  -6.510  -6.510  -2.674  -2.668  -2.668
 -2.652  -2.652  -2.617  -2.613  -2.613  -2.603  -2.603  -0.828
 -0.799  -0.765  -0.667  -0.603  -0.494  -0.434  -0.431  -0.419
 -0.373  -0.362  -0.361  -0.325  -0.325  -0.278  -0.275  -0.224
 -- Virtual --
  0.000   0.091   0.118   0.121   0.137   0.154   0.168   0.194
  0.207   0.241   0.253   0.281   0.309   0.310   0.340   0.349
  0.357   0.475   0.483   0.498   0.530   0.539   0.543   0.543
  0.557   0.579   0.579   0.580   0.617   0.617   0.623   0.677
  0.727   0.785   0.813   0.815   0.841   0.855   0.883   0.903
  0.926   0.991   1.147   1.212   1.307   1.418   1.480   1.495
  1.652   1.663   1.679   1.735   1.808   1.853   1.928   1.972
  2.006   2.055   2.106   2.170   2.201   2.234   2.330   2.334
  2.423   2.461   2.506   2.589   2.592   2.687   2.761   2.771
  2.840   2.871   3.195   3.256   3.367   3.368   3.445   3.537
  4.204   4.364   4.572   4.647   4.655   4.655   4.680   4.680
  4.729   4.744   4.811   4.813   4.984   6.205   6.303  90.123
 90.359
 
 Beta MOs
 -- Occupied --
*******-482.847 -62.558 -62.506 -56.378 -56.375 -56.375 -56.327
-56.323 -56.323 -10.248 -10.210 -10.198  -8.742  -8.693  -6.572
 -6.559  -6.559  -6.523  -6.510  -6.510  -2.666  -2.662  -2.662
 -2.651  -2.651  -2.616  -2.613  -2.612  -2.603  -2.603  -0.823
 -0.755  -0.754  -0.651  -0.591  -0.491  -0.428  -0.426  -0.409
 -0.359  -0.356  -0.311  -0.310  -0.276  -0.274
 -- Virtual --
 -0.237  -0.075   0.011   0.094   0.123   0.126   0.144   0.155
  0.176   0.198   0.211   0.245   0.260   0.311   0.314   0.314
  0.342   0.349   0.359   0.479   0.484   0.509   0.542   0.579
  0.587   0.587   0.588   0.589   0.590   0.595   0.617   0.626
  0.650   0.688   0.731   0.788   0.815   0.820   0.843   0.857
  0.889   0.908   0.929   1.006   1.150   1.220   1.319   1.452
  1.485   1.505   1.652   1.681   1.698   1.743   1.818   1.857
  1.931   2.010   2.026   2.057   2.106   2.175   2.202   2.234
  2.336   2.338   2.440   2.470   2.521   2.593   2.603   2.694
  2.762   2.773   2.844   2.875   3.197   3.260   3.369   3.373
  3.450   3.540   4.218   4.384   4.575   4.666   4.669   4.669
  4.682   4.682   4.729   4.745   4.812   4.814   4.984   6.221
  6.304  90.129  90.359
 --------------------------------------------------------------
 
          Ground-State Mulliken Net Atomic Charges

     Atom                 Charge (a.u.)    Spin (a.u.)
  --------------------------------------------------------
      1 Br                   -0.002613       1.001256
      2 Br                   -0.127665       0.032138
      3 C                    -0.196593      -0.073437
      4 C                    -0.233446       1.062615
      5 C                    -0.243190       0.043480
      6 H                     0.131182       0.013651
      7 H                     0.131416       0.013405
      8 H                     0.117349      -0.046631
      9 H                     0.117290      -0.046620
     10 H                     0.153137       0.000066
     11 H                     0.153132       0.000077
  --------------------------------------------------------
  Sum of atomic charges =     0.000000
  Sum of spin   charges =     2.000000

 -----------------------------------------------------------------
                    Cartesian Multipole Moments
 -----------------------------------------------------------------
    Charge (ESU x 10^10)
                 0.0000
    Dipole Moment (Debye)
         X      -1.6859      Y      -1.5301      Z      -0.0162
       Tot       2.2768
    Quadrupole Moments (Debye-Ang)
        XX     -62.9205     XY      -3.4944     YY     -54.9524
        XZ      -0.0177     YZ      -0.0296     ZZ     -56.1239
    Octopole Moments (Debye-Ang^2)
       XXX      41.3364    XXY     -24.7924    XYY      14.4003
       YYY     -98.7015    XXZ      -0.5557    XYZ      -0.0060
       YYZ      -0.3432    XZZ      23.0813    YZZ     -37.9053
       ZZZ      -1.4504
    Hexadecapole Moments (Debye-Ang^3)
      XXXX   -3222.7604   XXXY     188.1041   XXYY    -554.0977
      XYYY     245.2599   YYYY    -513.9632   XXXZ      -0.8585
      XXYZ      -0.1945   XYYZ      -0.2585   YYYZ      -1.5726
      XXZZ    -569.5861   XYZZ      93.8554   YYZZ    -101.6032
      XZZZ      -0.8356   YZZZ      -1.2606   ZZZZ     -84.6914
 -----------------------------------------------------------------
 Calculating analytic gradient of the SCF energy
 Gradient of SCF Energy
            1           2           3           4           5           6
    1  -0.0000933  -0.0000192  -0.0000175   0.0001161   0.0001004  -0.0000390
    2  -0.0000161   0.0000177   0.0001474  -0.0000135  -0.0001294  -0.0000801
    3  -0.0000134   0.0000318   0.0000106   0.0000047  -0.0000108   0.0000614
            7           8           9          10          11
    1  -0.0000112   0.0000072  -0.0000023  -0.0000160  -0.0000252
    2  -0.0000476   0.0000350   0.0000032   0.0000515   0.0000320
    3  -0.0000450  -0.0000223  -0.0000204  -0.0000124   0.0000157
 Max gradient component =       1.474E-04
 RMS gradient           =       5.418E-05
 Gradient time:  CPU 13.36 s  wall 1.18 s
 Geometry Optimization Parameters
   NAtoms,    NIC,     NZ,  NCons,   NDum,   NFix, NCnnct, MaxDiis
       11     156       0       1       0       0       0       0


** CONSTRAINED OPTIMIZATION IN DELOCALIZED INTERNAL COORDINATES **
   Searching for a Minimum

   Optimization Cycle:   1

                       Coordinates (Angstroms)
     ATOM                X               Y               Z
      1  Br       -4.3728490000    1.6976300000    0.0065050000
      2  Br        2.9138610000    0.7965430000    0.0138620000
      3  C         0.0909160000    0.0230180000    0.0193970000
      4  C        -0.9409100000   -1.0558570000   -0.0039720000
      5  C         1.4997090000   -0.5915190000   -0.0009500000
      6  H        -0.0103150000    0.6407390000    0.9184570000
      7  H        -0.0168840000    0.6842030000   -0.8473220000
      8  H        -1.2697470000   -1.4898560000   -0.9427220000
      9  H        -1.2590540000   -1.5416160000    0.9127700000
     10  H         1.6766750000   -1.1757510000   -0.9033160000
     11  H         1.6884980000   -1.2088330000    0.8766910000
   Point Group: c1    Number of degrees of freedom:    27


   Energy is  -5265.602947249

              Constraints and their Current Values
                                        Value     Constraint
   Distance(Angs):        1   4             4.400001     4.300000

 Attempting to Generate Delocalized Internal Coordinates

   Using Lagrange Multiplier Algorithm


 28 Hessian modes will be used to form the next step
  Hessian Eigenvalues:
    -0.997238    0.029348    0.045037    0.048763    0.049010    0.051170
     0.057431    0.061963    0.062294    0.063239    0.068754    0.069372
     0.086441    0.121115    0.139653    0.157911    0.159701    0.159863
     0.221828    0.244684    0.270835    0.281564    0.287644    0.295787
     0.312238    0.348725    0.348759    1.002770

 Minimum Search - Taking P-RFO Step
 Searching for Lamda that Maximizes Along the Constraint modes Only
 Value Taken    Lamda =   0.01762819
 Searching for Lamda that Minimizes Along All other modes
 Value Taken    Lamda =  -0.01746752
 Step Taken.  Stepsize is  0.185718

                             Maximum     Tolerance    Cnvgd?
         Gradient            0.188974       0.000300      NO
         Displacement        0.185715       0.001200      NO
         Energy change     *********       0.000001      NO


 New Cartesian Coordinates Obtained by Inverse Iteration

 Displacement from previous Coordinates is:  0.177798
 ----------------------------------------------------------------
             Standard Nuclear Orientation (Angstroms)
    I     Atom           X                Y                Z
 ----------------------------------------------------------------
    1      Br     -4.3377228656     1.6570018976     0.0062151230
    2      Br      2.9167426158     0.8057899910     0.0141447400
    3      C       0.0964418671     0.0241863209     0.0192937418
    4      C      -0.9845902630    -1.0376640814    -0.0043426132
    5      C       1.5066829329    -0.5864728197    -0.0008951906
    6      H       0.0099459530     0.6359746130     0.9217738283
    7      H       0.0033600274     0.6793721139    -0.8507251992
    8      H      -1.3023738944    -1.4870036511    -0.9538197701
    9      H      -1.2918623085    -1.5395144083     0.9242514685
   10      H       1.6858280893    -1.1699225256    -0.9033521083
   11      H       1.6974478459    -1.2030464502     0.8768559797
 ----------------------------------------------------------------
 Nuclear Repulsion Energy =   400.9374991990 hartrees
 There are       48 alpha and       46 beta electrons

                       Distance Matrix (Angstroms)
             Br(  1)   Br(  2)   C (  3)   C (  4)   C (  5)   H (  6)
   Br(  2)  7.304238
   C (  3)  4.725259  2.926607
   C (  4)  4.301725  4.314981  1.515492
   C (  5)  6.260216  1.981638  1.536910  2.531803
   H (  6)  4.558834  3.049934  1.093726  2.155890  2.141476
   H (  7)  4.531568  3.041674  1.093099  2.154210  2.141157  1.773042
   H (  8)  4.474347  4.898449  2.277571  1.097451  3.099971  3.122030
   H (  9)  4.509742  4.903173  2.278486  1.099344  3.097748  2.535244
   H ( 10)  6.715801  2.502077  2.191648  2.820788  1.089465  3.066094
   H ( 11)  6.735071  2.503273  2.191970  2.827930  1.089496  2.496333
             H (  7)   H (  8)   H (  9)   H ( 10)
   H (  8)  2.531552
   H (  9)  3.122755  1.878835
   H ( 10)  2.500672  3.005402  3.513314
   H ( 11)  3.065611  3.525753  3.008560  1.780554
 
 Applying Cartesian multipole field
    Component          Value
    ---------          -----
     (2,0,0)        1.00000E-11
     (0,2,0)        2.00000E-11
     (0,0,2)       -3.00000E-10
 Nucleus-field energy     =     0.0000000396 hartrees
 Requested basis set is 6-31G(d,p)
 There are 46 shells and 145 basis functions
 A cutoff of  1.0D-14 yielded    880 shell pairs
 There are      8262 function pairs
 Smallest overlap matrix eigenvalue = 7.23E-04
 Guess from superposition of atomic densities
 Warning:  Energy on first SCF cycle will be non-variational
 SAD guess density has 93.945746 electrons

 -----------------------------------------------------------------------
  General SCF calculation program by
  Eric Jon Sundstrom, Paul Horn, Yuezhi Mao, Dmitri Zuev, Alec White,
  David Stuck, Shaama M.S., Shane Yost, Joonho Lee, David Small,
  Daniel Levine, Susi Lehtola, Hugh Burton, Evgeny Epifanovsky
 -----------------------------------------------------------------------
 Exchange:     0.2000 Hartree-Fock + 0.0800 Slater + 0.7200 B88
 Correlation:  0.1900 VWN1RPA + 0.8100 LYP
 Using SG-1 standard quadrature grid
 using 12 threads for integral computing
 -------------------------------------------------------
 OpenMP Integral computing Module                
 Release: version 1.0, May 2013, Q-Chem Inc. Pittsburgh 
 -------------------------------------------------------
 -------------------------------------------------------
 OpenMP BLAS3 based DFT computing Module                
 Release: version 1.0, May 2013, Q-Chem Inc. Pittsburgh 
 -------------------------------------------------------
 A unrestricted SCF calculation will be
 performed using DIIS
 SCF converges when DIIS error is below 1.0e-06
 Alpha HF Exchange    Energy = -19.60139878777749
 Beta HF Exchange     Energy = -19.60139878777749
 DFT Correlation      Energy =  -5.19119485935505
 DFT Exchange         Energy = -155.85482305689462
 One-Electron (alpha) Energy = -4057.46007747869862
 One-Electron (beta)  Energy = -4057.46007747869862
 Total Coulomb        Energy = 2641.88753563513228
 ---------------------------------------
  Cycle       Energy         DIIS error
 ---------------------------------------
    1   -5272.3439355755      1.83e-01  
 Alpha HF Exchange    Energy = -19.82517824150899
 Beta HF Exchange     Energy = -19.62819383358939
 DFT Correlation      Energy =  -5.23330919469351
 DFT Exchange         Energy = -157.00720087724230
 One-Electron (alpha) Energy = -4087.25988099418919
 One-Electron (beta)  Energy = -4044.33831110143456
 Total Coulomb        Energy = 2667.10445624347085
    2   -5265.2501187606      1.05e-02  
 Alpha HF Exchange    Energy = -19.68641672100479
 Beta HF Exchange     Energy = -19.53706353055824
 DFT Correlation      Energy =  -5.21152613185013
 DFT Exchange         Energy = -156.13528567152420
 One-Electron (alpha) Energy = -4062.69733753107357
 One-Electron (beta)  Energy = -4028.86386926264640
 Total Coulomb        Energy = 2633.71222361682157
    3   -5257.4817759933      1.16e-02  
 Alpha HF Exchange    Energy = -19.62610500775143
 Beta HF Exchange     Energy = -19.48275994529388
 DFT Correlation      Energy =  -5.15194457819730
 DFT Exchange         Energy = -155.78511387906838
 One-Electron (alpha) Energy = -4062.77543954469911
 One-Electron (beta)  Energy = -4022.50643107104133
 Total Coulomb        Energy = 2638.79768419843685
    4   -5245.5926105891      2.22e-02  
 Alpha HF Exchange    Energy = -19.78825819437659
 Beta HF Exchange     Energy = -19.59742742428341
 DFT Correlation      Energy =  -5.22176873433837
 DFT Exchange         Energy = -156.72541872674583
 One-Electron (alpha) Energy = -4085.41126164874186
 One-Electron (beta)  Energy = -4044.48921433240366
 Total Coulomb        Energy = 2665.27318252240866
    5   -5265.0226672999      5.36e-03  
 Alpha HF Exchange    Energy = -19.75585897750974
 Beta HF Exchange     Energy = -19.56752991410229
 DFT Correlation      Energy =  -5.21380794364667
 DFT Exchange         Energy = -156.47212033094485
 One-Electron (alpha) Energy = -4080.14813431125458
 One-Electron (beta)  Energy = -4037.81128412594262
 Total Coulomb        Energy = 2652.77858468604745
    6   -5265.2526516788      3.16e-03  
 Alpha HF Exchange    Energy = -19.76573185589868
 Beta HF Exchange     Energy = -19.56792632395862
 DFT Correlation      Energy =  -5.21479040484948
 DFT Exchange         Energy = -156.53055370817833
 One-Electron (alpha) Energy = -4082.56356766608724
 One-Electron (beta)  Energy = -4041.26910591346223
 Total Coulomb        Energy = 2658.63606367374405
    7   -5265.3381129602      2.58e-03  
 Alpha HF Exchange    Energy = -19.77830036546977
 Beta HF Exchange     Energy = -19.58794027142847
 DFT Correlation      Energy =  -5.22173527310555
 DFT Exchange         Energy = -156.65538117971954
 One-Electron (alpha) Energy = -4080.21095938608050
 One-Electron (beta)  Energy = -4038.31591881663235
 Total Coulomb        Energy = 2655.22952463091542
    8   -5263.6032114230      6.66e-03  
 Alpha HF Exchange    Energy = -19.75413053021431
 Beta HF Exchange     Energy = -19.56864406242154
 DFT Correlation      Energy =  -5.21198171231583
 DFT Exchange         Energy = -156.47102093534554
 One-Electron (alpha) Energy = -4080.53816041608388
 One-Electron (beta)  Energy = -4038.76081944861380
 Total Coulomb        Energy = 2653.81898790869855
    9   -5265.5482699578      1.65e-03  
 Alpha HF Exchange    Energy = -19.75832564331258
 Beta HF Exchange     Energy = -19.57072292518644
 DFT Correlation      Energy =  -5.21255399047140
 DFT Exchange         Energy = -156.49032022748040
 One-Electron (alpha) Energy = -4080.63589128872172
 One-Electron (beta)  Energy = -4038.84012740341495
 Total Coulomb        Energy = 2653.98758963925684
   10   -5265.5828526008      1.02e-03  
 Alpha HF Exchange    Energy = -19.75701725161527
 Beta HF Exchange     Energy = -19.56861800724940
 DFT Correlation      Energy =  -5.21192301895859
 DFT Exchange         Energy = -156.47457381241242
 One-Electron (alpha) Energy = -4080.35973810552923
 One-Electron (beta)  Energy = -4038.55594753609830
 Total Coulomb        Energy = 2653.39411997960815
   11   -5265.5961985137      5.70e-04  
 Alpha HF Exchange    Energy = -19.75913850053613
 Beta HF Exchange     Energy = -19.56959193381534
 DFT Correlation      Energy =  -5.21210300629888
 DFT Exchange         Energy = -156.48570941170138
 One-Electron (alpha) Energy = -4080.48882191719304
 One-Electron (beta)  Energy = -4038.63806106117909
 Total Coulomb        Energy = 2653.61524382669177
   12   -5265.6006827655      2.68e-04  
 Alpha HF Exchange    Energy = -19.75965960691695
 Beta HF Exchange     Energy = -19.56958724679197
 DFT Correlation      Energy =  -5.21218570285284
 DFT Exchange         Energy = -156.48749935861153
 One-Electron (alpha) Energy = -4080.50640749870490
 One-Electron (beta)  Energy = -4038.62139906933953
 Total Coulomb        Energy = 2653.61740944991152
   13   -5265.6018297948      6.42e-05  
 Alpha HF Exchange    Energy = -19.75958417185737
 Beta HF Exchange     Energy = -19.56938943289316
 DFT Correlation      Energy =  -5.21211749436229
 DFT Exchange         Energy = -156.48630812508787
 One-Electron (alpha) Energy = -4080.50533636190721
 One-Electron (beta)  Energy = -4038.61037596432425
 Total Coulomb        Energy = 2653.60371937999889
   14   -5265.6018929319      1.25e-05  
 Alpha HF Exchange    Energy = -19.75963586364390
 Beta HF Exchange     Energy = -19.56939136315174
 DFT Correlation      Energy =  -5.21213164430071
 DFT Exchange         Energy = -156.48653592305351
 One-Electron (alpha) Energy = -4080.50434979728334
 One-Electron (beta)  Energy = -4038.60770178722987
 Total Coulomb        Energy = 2653.60035216471351
   15   -5265.6018949754      4.70e-06  
 Alpha HF Exchange    Energy = -19.75963044321247
 Beta HF Exchange     Energy = -19.56938104642070
 DFT Correlation      Energy =  -5.21212885248636
 DFT Exchange         Energy = -156.48648118539396
 One-Electron (alpha) Energy = -4080.50370251318782
 One-Electron (beta)  Energy = -4038.60615461974112
 Total Coulomb        Energy = 2653.59808410583173
   16   -5265.6018953161      9.04e-07  Convergence criterion met
 ---------------------------------------
 SCF time:   CPU 55.59s  wall 4.00s 
<S^2> =          2.005442171
 Alpha HF Exchange    Energy = -19.75963044321247
 Beta HF Exchange     Energy = -19.56938104642070
 DFT Correlation      Energy =  -5.21212885248636
 DFT Exchange         Energy = -156.48648118539396
 One-Electron (alpha) Energy = -4080.50370251318782
 One-Electron (beta)  Energy = -4038.60615461974112
 Total Coulomb        Energy = 2653.59808410583173
 Nuclear repulsion Energy = 400.93749923853767
 SCF   energy in the final basis set =    -5265.6018953161
 Total energy in the final basis set =    -5265.6018953161
 
 --------------------------------------------------------------
 
                    Orbital Energies (a.u.)
 --------------------------------------------------------------
 
 Alpha MOs
 -- Occupied --
*******-482.847 -62.559 -62.505 -56.384 -56.376 -56.376 -56.326
-56.323 -56.323 -10.247 -10.212 -10.207  -8.746  -8.692  -6.583
 -6.561  -6.561  -6.522  -6.510  -6.510  -2.674  -2.668  -2.668
 -2.652  -2.652  -2.616  -2.612  -2.612  -2.602  -2.602  -0.824
 -0.799  -0.759  -0.664  -0.599  -0.490  -0.428  -0.427  -0.414
 -0.374  -0.360  -0.357  -0.325  -0.325  -0.277  -0.274  -0.222
 -- Virtual --
 -0.000   0.093   0.117   0.125   0.140   0.155   0.168   0.198
  0.205   0.238   0.254   0.285   0.304   0.310   0.341   0.350
  0.359   0.479   0.485   0.503   0.531   0.540   0.542   0.543
  0.554   0.577   0.579   0.582   0.618   0.622   0.629   0.680
  0.724   0.787   0.814   0.818   0.846   0.854   0.879   0.907
  0.926   0.990   1.138   1.209   1.314   1.416   1.483   1.509
  1.653   1.658   1.680   1.738   1.804   1.844   1.925   1.958
  2.001   2.057   2.114   2.170   2.201   2.234   2.330   2.337
  2.409   2.465   2.487   2.585   2.593   2.681   2.760   2.767
  2.832   2.856   3.195   3.245   3.360   3.361   3.433   3.529
  4.196   4.364   4.572   4.646   4.654   4.654   4.680   4.680
  4.730   4.745   4.812   4.814   4.983   6.205   6.304  90.123
 90.359
 
 Beta MOs
 -- Occupied --
*******-482.847 -62.558 -62.505 -56.378 -56.375 -56.375 -56.326
-56.323 -56.323 -10.246 -10.208 -10.199  -8.743  -8.692  -6.572
 -6.559  -6.559  -6.522  -6.510  -6.509  -2.666  -2.662  -2.662
 -2.651  -2.651  -2.616  -2.612  -2.612  -2.602  -2.602  -0.820
 -0.755  -0.750  -0.648  -0.587  -0.488  -0.423  -0.421  -0.404
 -0.357  -0.353  -0.311  -0.310  -0.275  -0.274
 -- Virtual --
 -0.238  -0.070   0.011   0.096   0.126   0.127   0.145   0.156
  0.176   0.201   0.209   0.243   0.259   0.311   0.313   0.314
  0.343   0.350   0.360   0.482   0.486   0.515   0.543   0.575
  0.585   0.587   0.588   0.589   0.590   0.593   0.618   0.625
  0.662   0.692   0.728   0.790   0.816   0.823   0.848   0.857
  0.886   0.910   0.929   1.005   1.142   1.217   1.326   1.443
  1.488   1.525   1.658   1.673   1.698   1.746   1.813   1.849
  1.929   2.006   2.012   2.058   2.114   2.175   2.202   2.235
  2.332   2.345   2.426   2.473   2.502   2.594   2.599   2.689
  2.761   2.769   2.835   2.860   3.197   3.249   3.362   3.364
  3.439   3.531   4.211   4.383   4.575   4.665   4.669   4.669
  4.682   4.682   4.730   4.745   4.812   4.814   4.983   6.221
  6.304  90.130  90.359
 --------------------------------------------------------------
 
          Ground-State Mulliken Net Atomic Charges

     Atom                 Charge (a.u.)    Spin (a.u.)
  --------------------------------------------------------
      1 Br                   -0.001434       1.002861
      2 Br                   -0.128057       0.027386
      3 C                    -0.195158      -0.072786
      4 C                    -0.221685       1.067772
      5 C                    -0.243770       0.041993
      6 H                     0.130035       0.012924
      7 H                     0.130445       0.012688
      8 H                     0.113467      -0.046546
      9 H                     0.113044      -0.046615
     10 H                     0.151551       0.000155
     11 H                     0.151562       0.000167
  --------------------------------------------------------
  Sum of atomic charges =     0.000000
  Sum of spin   charges =     2.000000

 -----------------------------------------------------------------
                    Cartesian Multipole Moments
 -----------------------------------------------------------------
    Charge (ESU x 10^10)
                 0.0000
    Dipole Moment (Debye)
         X      -1.7220      Y      -1.5388      Z      -0.0188
       Tot       2.3095
    Quadrupole Moments (Debye-Ang)
        XX     -64.1210     XY      -2.0998     YY     -56.5673
        XZ      -0.0174     YZ      -0.0472     ZZ     -53.3314
    Octopole Moments (Debye-Ang^2)
       XXX      55.5440    XXY     -38.5339    XYY      25.2858
       YYY    -105.1872    XXZ      -0.5455    XYZ       0.0774
       YYZ      -0.4213    XZZ      10.2956    YZZ     -32.7332
       ZZZ      -1.3985
    Hexadecapole Moments (Debye-Ang^3)
      XXXX   -3339.0650   XXXY     280.8407   XXYY    -622.6581
      XYYY     277.8789   YYYY    -529.4179   XXXZ      -1.0495
      XXYZ      -0.5984   XYYZ       0.0380   YYYZ      -1.7664
      XXZZ    -511.1737   XYZZ      68.8883   YYZZ     -90.9202
      XZZZ      -1.2030   YZZZ      -1.1660   ZZZZ     -78.4795
 -----------------------------------------------------------------
 Calculating analytic gradient of the SCF energy
 Gradient of SCF Energy
            1           2           3           4           5           6
    1   0.0000010   0.0005799   0.0057254  -0.0070172   0.0020690   0.0015845
    2  -0.0000837   0.0002233   0.0070170   0.0012946   0.0029190  -0.0016033
    3  -0.0000061   0.0000302   0.0000244  -0.0011651   0.0000503   0.0002332
            7           8           9          10          11
    1   0.0015605  -0.0017834  -0.0020313  -0.0003374  -0.0003510
    2  -0.0018361  -0.0037269  -0.0045915   0.0002072   0.0001802
    3  -0.0000303  -0.0070664   0.0079131  -0.0000411   0.0000578
 Max gradient component =       7.913E-03
 RMS gradient           =       3.083E-03
 Gradient time:  CPU 13.51 s  wall 1.20 s
 Geometry Optimization Parameters
   NAtoms,    NIC,     NZ,  NCons,   NDum,   NFix, NCnnct, MaxDiis
       11     156       0       1       0       0       0       0

 Cartesian Hessian Update
 Hessian Updated using BFGS Update


** CONSTRAINED OPTIMIZATION IN DELOCALIZED INTERNAL COORDINATES **
   Searching for a Minimum

   Optimization Cycle:   2

                       Coordinates (Angstroms)
     ATOM                X               Y               Z
      1  Br       -4.3377228656    1.6570018976    0.0062151230
      2  Br        2.9167426158    0.8057899910    0.0141447400
      3  C         0.0964418671    0.0241863209    0.0192937418
      4  C        -0.9845902630   -1.0376640814   -0.0043426132
      5  C         1.5066829329   -0.5864728197   -0.0008951906
      6  H         0.0099459530    0.6359746130    0.9217738283
      7  H         0.0033600274    0.6793721139   -0.8507251992
      8  H        -1.3023738944   -1.4870036511   -0.9538197701
      9  H        -1.2918623085   -1.5395144083    0.9242514685
     10  H         1.6858280893   -1.1699225256   -0.9033521083
     11  H         1.6974478459   -1.2030464502    0.8768559797
   Point Group: c1    Number of degrees of freedom:    27


   Energy is  -5265.601895316

              Constraints and their Current Values
                                        Value     Constraint
   Distance(Angs):        1   4             4.301725     4.300000
 Hessian Updated using BFGS Update

   Using Lagrange Multiplier Algorithm


 28 Hessian modes will be used to form the next step
  Hessian Eigenvalues:
    -0.982133    0.030539    0.045037    0.048764    0.049168    0.051170
     0.057717    0.061963    0.062295    0.063242    0.068775    0.069375
     0.086648    0.121115    0.141542    0.158006    0.159718    0.159972
     0.222072    0.250071    0.270873    0.287624    0.295603    0.297590
     0.348721    0.348755    0.458652    1.027184

 Minimum Search - Taking P-RFO Step
 Searching for Lamda that Maximizes Along the Constraint modes Only
 Value Taken    Lamda =   0.00004063
 Searching for Lamda that Minimizes Along All other modes
 Value Taken    Lamda =  -0.00060414
 Step Taken.  Stepsize is  0.050420

                             Maximum     Tolerance    Cnvgd?
         Gradient            0.012361       0.000300      NO
         Displacement        0.027628       0.001200      NO
         Energy change      0.001052       0.000001      NO


 New Cartesian Coordinates Obtained by Inverse Iteration

 Displacement from previous Coordinates is:  0.050451
 ----------------------------------------------------------------
             Standard Nuclear Orientation (Angstroms)
    I     Atom           X                Y                Z
 ----------------------------------------------------------------
    1      Br     -4.3322930271     1.6542714082     0.0063142957
    2      Br      2.9099416430     0.8027639800     0.0140877042
    3      C       0.0931520967     0.0235485567     0.0193214404
    4      C      -0.9765565958    -1.0343952868    -0.0040813601
    5      C       1.5016536673    -0.5897609729    -0.0008926957
    6      H       0.0040004195     0.6369682498     0.9213532912
    7      H      -0.0025492897     0.6805487169    -0.8504023352
    8      H      -1.2919015834    -1.4815553678    -0.9477869654
    9      H      -1.2811452049    -1.5333567056     0.9179714917
   10      H       1.6819827205    -1.1736438647    -0.9029636836
   11      H       1.6936151541    -1.2066877137     0.8764788167
 ----------------------------------------------------------------
 Nuclear Repulsion Energy =   401.6452697749 hartrees
 There are       48 alpha and       46 beta electrons

                       Distance Matrix (Angstroms)
             Br(  1)   Br(  2)   C (  3)   C (  4)   C (  5)   H (  6)
   Br(  2)  7.292125
   C (  3)  4.716354  2.922586
   C (  4)  4.300000  4.298878  1.504683
   C (  5)  6.250653  1.980562  1.536370  2.517784
   H (  6)  4.547048  3.048789  1.094483  2.147412  2.144380
   H (  7)  4.519821  3.040540  1.094179  2.146155  2.144290  1.772304
   H (  8)  4.470760  4.878402  2.262523  1.090860  3.081535  3.108245
   H (  9)  4.505729  4.882589  2.262790  1.091750  3.078742  2.522285
   H ( 10)  6.707861  2.501011  2.192775  2.809842  1.089573  3.069540
   H ( 11)  6.727098  2.502212  2.193099  2.816893  1.089600  2.501176
             H (  7)   H (  8)   H (  9)   H ( 10)
   H (  8)  2.519247
   H (  9)  3.108590  1.866508
   H ( 10)  2.505682  2.990118  3.496473
   H ( 11)  3.069325  3.509531  2.992931  1.779787
 
 Applying Cartesian multipole field
    Component          Value
    ---------          -----
     (2,0,0)        1.00000E-11
     (0,2,0)        2.00000E-11
     (0,0,2)       -3.00000E-10
 Nucleus-field energy     =     0.0000000394 hartrees
 Requested basis set is 6-31G(d,p)
 There are 46 shells and 145 basis functions
 A cutoff of  1.0D-14 yielded    881 shell pairs
 There are      8286 function pairs
 Smallest overlap matrix eigenvalue = 7.23E-04
 Guess from superposition of atomic densities
 Warning:  Energy on first SCF cycle will be non-variational
 SAD guess density has 93.945746 electrons

 -----------------------------------------------------------------------
  General SCF calculation program by
  Eric Jon Sundstrom, Paul Horn, Yuezhi Mao, Dmitri Zuev, Alec White,
  David Stuck, Shaama M.S., Shane Yost, Joonho Lee, David Small,
  Daniel Levine, Susi Lehtola, Hugh Burton, Evgeny Epifanovsky
 -----------------------------------------------------------------------
 Exchange:     0.2000 Hartree-Fock + 0.0800 Slater + 0.7200 B88
 Correlation:  0.1900 VWN1RPA + 0.8100 LYP
 Using SG-1 standard quadrature grid
 using 12 threads for integral computing
 -------------------------------------------------------
 OpenMP Integral computing Module                
 Release: version 1.0, May 2013, Q-Chem Inc. Pittsburgh 
 -------------------------------------------------------
 -------------------------------------------------------
 OpenMP BLAS3 based DFT computing Module                
 Release: version 1.0, May 2013, Q-Chem Inc. Pittsburgh 
 -------------------------------------------------------
 A unrestricted SCF calculation will be
 performed using DIIS
 SCF converges when DIIS error is below 1.0e-06
 Alpha HF Exchange    Energy = -19.60346779511303
 Beta HF Exchange     Energy = -19.60346779511303
 DFT Correlation      Energy =  -5.19170034189473
 DFT Exchange         Energy = -155.85905711629036
 One-Electron (alpha) Energy = -4058.15639873896544
 One-Electron (beta)  Energy = -4058.15639873896544
 Total Coulomb        Energy = 2642.56274043338772
 ---------------------------------------
  Cycle       Energy         DIIS error
 ---------------------------------------
    1   -5272.3624802786      1.83e-01  
 Alpha HF Exchange    Energy = -19.82655276927212
 Beta HF Exchange     Energy = -19.62923075315894
 DFT Correlation      Energy =  -5.23400060667505
 DFT Exchange         Energy = -157.01604254707593
 One-Electron (alpha) Energy = -4088.00372477610563
 One-Electron (beta)  Energy = -4045.01767744649987
 Total Coulomb        Energy = 2667.83214695360130
    2   -5265.2498121308      1.05e-02  
 Alpha HF Exchange    Energy = -19.68729907231839
 Beta HF Exchange     Energy = -19.53660589507917
 DFT Correlation      Energy =  -5.21210497559125
 DFT Exchange         Energy = -156.13819810492362
 One-Electron (alpha) Energy = -4063.41916901959121
 One-Electron (beta)  Energy = -4029.56084210264044
 Total Coulomb        Energy = 2634.44894545871512
    3   -5257.4600038971      1.17e-02  
 Alpha HF Exchange    Energy = -19.62699981497553
 Beta HF Exchange     Energy = -19.48436408825310
 DFT Correlation      Energy =  -5.15310919942302
 DFT Exchange         Energy = -155.79566325109676
 One-Electron (alpha) Energy = -4063.51052610277884
 One-Electron (beta)  Energy = -4023.29268060937420
 Total Coulomb        Energy = 2639.35353088309466
    4   -5245.8645423685      2.22e-02  
 Alpha HF Exchange    Energy = -19.78935349885101
 Beta HF Exchange     Energy = -19.59806160996514
 DFT Correlation      Energy =  -5.22240587023341
 DFT Exchange         Energy = -156.73168752226132
 One-Electron (alpha) Energy = -4086.12469693009461
 One-Electron (beta)  Energy = -4045.15337088548495
 Total Coulomb        Energy = 2665.94822713263966
    5   -5265.0260793699      5.34e-03  
 Alpha HF Exchange    Energy = -19.75660599906188
 Beta HF Exchange     Energy = -19.56811499682343
 DFT Correlation      Energy =  -5.21436835859332
 DFT Exchange         Energy = -156.47679435156502
 One-Electron (alpha) Energy = -4080.82443990319189
 One-Electron (beta)  Energy = -4038.41756686496092
 Total Coulomb        Energy = 2653.35733723954036
    6   -5265.2552834203      3.14e-03  
 Alpha HF Exchange    Energy = -19.76661473067367
 Beta HF Exchange     Energy = -19.58122915545246
 DFT Correlation      Energy =  -5.21314053119602
 DFT Exchange         Energy = -156.55556375494155
 One-Electron (alpha) Energy = -4083.26067580941481
 One-Electron (beta)  Energy = -4041.29536773788232
 Total Coulomb        Energy = 2658.49989719740051
    7   -5265.5274247078      2.40e-03  
 Alpha HF Exchange    Energy = -19.76239097187617
 Beta HF Exchange     Energy = -19.57506951749599
 DFT Correlation      Energy =  -5.21418099602289
 DFT Exchange         Energy = -156.52241679327790
 One-Electron (alpha) Energy = -4081.81057027387351
 One-Electron (beta)  Energy = -4039.84021808694570
 Total Coulomb        Energy = 2655.49197453931447
    8   -5265.5876022858      9.33e-04  
 Alpha HF Exchange    Energy = -19.75802480922929
 Beta HF Exchange     Energy = -19.56939449650381
 DFT Correlation      Energy =  -5.21212247014522
 DFT Exchange         Energy = -156.47999282118590
 One-Electron (alpha) Energy = -4081.08581073265987
 One-Electron (beta)  Energy = -4039.13643566458268
 Total Coulomb        Energy = 2653.99916655285324
    9   -5265.5973446271      5.63e-04  
 Alpha HF Exchange    Energy = -19.75995112114449
 Beta HF Exchange     Energy = -19.57077311612031
 DFT Correlation      Energy =  -5.21257164216818
 DFT Exchange         Energy = -156.49316885997104
 One-Electron (alpha) Energy = -4081.23431640078797
 One-Electron (beta)  Energy = -4039.22980734504290
 Total Coulomb        Energy = 2654.25416813652464
   10   -5265.6011505344      3.08e-04  
 Alpha HF Exchange    Energy = -19.76061933188985
 Beta HF Exchange     Energy = -19.57062705276592
 DFT Correlation      Energy =  -5.21268171651089
 DFT Exchange         Energy = -156.49487366537068
 One-Electron (alpha) Energy = -4081.24708977687078
 One-Electron (beta)  Energy = -4039.21993069710288
 Total Coulomb        Energy = 2654.25824579881055
   11   -5265.6023066273      1.48e-04  
 Alpha HF Exchange    Energy = -19.76026997328223
 Beta HF Exchange     Energy = -19.57010848904504
 DFT Correlation      Energy =  -5.21251538876607
 DFT Exchange         Energy = -156.49131808698033
 One-Electron (alpha) Energy = -4081.20790220927165
 One-Electron (beta)  Energy = -4039.16375210253500
 Total Coulomb        Energy = 2654.15792569460064
   12   -5265.6026707409      3.48e-05  
 Alpha HF Exchange    Energy = -19.76061983113051
 Beta HF Exchange     Energy = -19.57033522864827
 DFT Correlation      Energy =  -5.21259916551825
 DFT Exchange         Energy = -156.49362753467793
 One-Electron (alpha) Energy = -4081.22843158888418
 One-Electron (beta)  Energy = -4039.17905049614274
 Total Coulomb        Energy = 2654.19670528864208
   13   -5265.6026887420      7.06e-06  
 Alpha HF Exchange    Energy = -19.76066355520305
 Beta HF Exchange     Energy = -19.57035412841003
 DFT Correlation      Energy =  -5.21261154431366
 DFT Exchange         Energy = -156.49389384656629
 One-Electron (alpha) Energy = -4081.23398089065404
 One-Electron (beta)  Energy = -4039.18271306801853
 Total Coulomb        Energy = 2654.20625723209469
   14   -5265.6026899867      1.98e-06  
 Alpha HF Exchange    Energy = -19.76065242814545
 Beta HF Exchange     Energy = -19.57034188243857
 DFT Correlation      Energy =  -5.21261144693791
 DFT Exchange         Energy = -156.49381145984142
 One-Electron (alpha) Energy = -4081.23266304457229
 One-Electron (beta)  Energy = -4039.18139700817756
 Total Coulomb        Energy = 2654.20351726627405
   15   -5265.6026901895      1.05e-06  
 Alpha HF Exchange    Energy = -19.76064938151072
 Beta HF Exchange     Energy = -19.57033741395425
 DFT Correlation      Energy =  -5.21261071245257
 DFT Exchange         Energy = -156.49378597561250
 One-Electron (alpha) Energy = -4081.23235206859817
 One-Electron (beta)  Energy = -4039.18116787826784
 Total Coulomb        Energy = 2654.20294321023630
   16   -5265.6026904058      9.11e-07  Convergence criterion met
 ---------------------------------------
 SCF time:   CPU 55.69s  wall 5.00s 
<S^2> =          2.005354799
 Alpha HF Exchange    Energy = -19.76064938151072
 Beta HF Exchange     Energy = -19.57033741395425
 DFT Correlation      Energy =  -5.21261071245257
 DFT Exchange         Energy = -156.49378597561250
 One-Electron (alpha) Energy = -4081.23235206859817
 One-Electron (beta)  Energy = -4039.18116787826784
 Total Coulomb        Energy = 2654.20294321023630
 Nuclear repulsion Energy = 401.64526981435517
 SCF   energy in the final basis set =    -5265.6026904058
 Total energy in the final basis set =    -5265.6026904058
 
 --------------------------------------------------------------
 
                    Orbital Energies (a.u.)
 --------------------------------------------------------------
 
 Alpha MOs
 -- Occupied --
*******-482.848 -62.558 -62.507 -56.383 -56.375 -56.375 -56.328
-56.324 -56.324 -10.250 -10.214 -10.210  -8.746  -8.694  -6.582
 -6.560  -6.560  -6.524  -6.511  -6.511  -2.673  -2.668  -2.668
 -2.651  -2.651  -2.618  -2.614  -2.613  -2.604  -2.604  -0.828
 -0.798  -0.764  -0.668  -0.602  -0.494  -0.433  -0.431  -0.418
 -0.372  -0.363  -0.360  -0.324  -0.324  -0.279  -0.276  -0.226
 -- Virtual --
 -0.001   0.091   0.116   0.122   0.137   0.153   0.168   0.195
  0.204   0.237   0.253   0.282   0.310   0.310   0.340   0.349
  0.357   0.475   0.483   0.499   0.530   0.538   0.543   0.544
  0.553   0.579   0.579   0.580   0.616   0.619   0.623   0.678
  0.721   0.786   0.812   0.816   0.842   0.853   0.880   0.904
  0.924   0.990   1.138   1.208   1.310   1.412   1.481   1.508
  1.653   1.654   1.680   1.737   1.806   1.845   1.927   1.962
  2.002   2.055   2.109   2.167   2.199   2.233   2.329   2.335
  2.412   2.463   2.490   2.590   2.591   2.684   2.760   2.770
  2.833   2.860   3.194   3.250   3.360   3.363   3.441   3.529
  4.197   4.362   4.571   4.647   4.655   4.655   4.680   4.680
  4.729   4.744   4.811   4.813   4.982   6.206   6.302  90.124
 90.358
 
 Beta MOs
 -- Occupied --
*******-482.848 -62.557 -62.507 -56.377 -56.374 -56.374 -56.328
-56.324 -56.324 -10.248 -10.211 -10.201  -8.742  -8.694  -6.572
 -6.558  -6.558  -6.524  -6.511  -6.511  -2.665  -2.662  -2.662
 -2.650  -2.650  -2.617  -2.613  -2.613  -2.604  -2.604  -0.823
 -0.755  -0.753  -0.651  -0.590  -0.491  -0.427  -0.425  -0.408
 -0.360  -0.356  -0.310  -0.310  -0.277  -0.275
 -- Virtual --
 -0.237  -0.075   0.009   0.094   0.124   0.125   0.144   0.155
  0.177   0.199   0.208   0.242   0.258   0.311   0.314   0.315
  0.342   0.349   0.358   0.479   0.484   0.511   0.541   0.574
  0.587   0.587   0.588   0.589   0.589   0.594   0.616   0.623
  0.657   0.689   0.725   0.788   0.814   0.821   0.844   0.856
  0.887   0.908   0.927   1.005   1.142   1.216   1.322   1.440
  1.486   1.522   1.654   1.672   1.699   1.744   1.816   1.849
  1.930   2.008   2.015   2.056   2.109   2.173   2.201   2.234
  2.331   2.343   2.429   2.471   2.505   2.592   2.604   2.692
  2.761   2.772   2.836   2.864   3.196   3.253   3.362   3.367
  3.447   3.532   4.211   4.382   4.573   4.666   4.669   4.670
  4.683   4.683   4.729   4.744   4.811   4.813   4.982   6.222
  6.303  90.130  90.358
 --------------------------------------------------------------
 
          Ground-State Mulliken Net Atomic Charges

     Atom                 Charge (a.u.)    Spin (a.u.)
  --------------------------------------------------------
      1 Br                   -0.003263       1.001652
      2 Br                   -0.125118       0.028537
      3 C                    -0.197323      -0.072627
      4 C                    -0.232736       1.064494
      5 C                    -0.243606       0.043586
      6 H                     0.131633       0.013229
      7 H                     0.131888       0.012985
      8 H                     0.116748      -0.046013
      9 H                     0.116491      -0.046046
     10 H                     0.152641       0.000095
     11 H                     0.152645       0.000109
  --------------------------------------------------------
  Sum of atomic charges =    -0.000000
  Sum of spin   charges =     2.000000

 -----------------------------------------------------------------
                    Cartesian Multipole Moments
 -----------------------------------------------------------------
    Charge (ESU x 10^10)
                 0.0000
    Dipole Moment (Debye)
         X      -1.5938      Y      -1.5518      Z      -0.0178
       Tot       2.2245
    Quadrupole Moments (Debye-Ang)
        XX     -62.8199     XY      -3.4365     YY     -55.0359
        XZ      -0.0140     YZ      -0.0287     ZZ     -56.1186
    Octopole Moments (Debye-Ang^2)
       XXX      39.7070    XXY     -24.1695    XYY      14.5870
       YYY     -97.7318    XXZ      -0.5664    XYZ      -0.0027
       YYZ      -0.3530    XZZ      22.6280    YZZ     -37.3245
       ZZZ      -1.4529
    Hexadecapole Moments (Debye-Ang^3)
      XXXX   -3175.2124   XXXY     172.9806   XXYY    -548.1876
      XYYY     233.5268   YYYY    -499.8133   XXXZ      -0.9086
      XXYZ      -0.2100   XYYZ      -0.2657   YYYZ      -1.5508
      XXZZ    -562.9339   XYZZ      88.6516   YYZZ     -98.8195
      XZZZ      -0.9312   YZZZ      -1.2345   ZZZZ     -84.8185
 -----------------------------------------------------------------
 Calculating analytic gradient of the SCF energy
 Gradient of SCF Energy
            1           2           3           4           5           6
    1  -0.0000909   0.0002003   0.0035523  -0.0049020   0.0007130   0.0009447
    2   0.0000029   0.0001165   0.0032383   0.0007475   0.0022597  -0.0013089
    3  -0.0000119   0.0000304   0.0000750  -0.0006467   0.0000520   0.0003010
            7           8           9          10          11
    1   0.0009150  -0.0006242  -0.0007156   0.0000100  -0.0000026
    2  -0.0014052  -0.0016908  -0.0021026   0.0000837   0.0000589
    3  -0.0002343  -0.0032475   0.0036784  -0.0000044   0.0000081
 Max gradient component =       4.902E-03
 RMS gradient           =       1.666E-03
 Gradient time:  CPU 13.43 s  wall 1.19 s
 Geometry Optimization Parameters
   NAtoms,    NIC,     NZ,  NCons,   NDum,   NFix, NCnnct, MaxDiis
       11     156       0       1       0       0       0       0

 Cartesian Hessian Update
 Hessian Updated using BFGS Update


** CONSTRAINED OPTIMIZATION IN DELOCALIZED INTERNAL COORDINATES **
   Searching for a Minimum

   Optimization Cycle:   3

                       Coordinates (Angstroms)
     ATOM                X               Y               Z
      1  Br       -4.3322930271    1.6542714082    0.0063142957
      2  Br        2.9099416430    0.8027639800    0.0140877042
      3  C         0.0931520967    0.0235485567    0.0193214404
      4  C        -0.9765565958   -1.0343952868   -0.0040813601
      5  C         1.5016536673   -0.5897609729   -0.0008926957
      6  H         0.0040004195    0.6369682498    0.9213532912
      7  H        -0.0025492897    0.6805487169   -0.8504023352
      8  H        -1.2919015834   -1.4815553678   -0.9477869654
      9  H        -1.2811452049   -1.5333567056    0.9179714917
     10  H         1.6819827205   -1.1736438647   -0.9029636836
     11  H         1.6936151541   -1.2066877137    0.8764788167
   Point Group: c1    Number of degrees of freedom:    27


   Energy is  -5265.602690406

              Constraints and their Current Values
                                        Value     Constraint
   Distance(Angs):        1   4             4.300000     4.300000
 Hessian Updated using BFGS Update

 26 Hessian modes will be used to form the next step
  Hessian Eigenvalues:
     0.026216    0.045037    0.048760    0.048796    0.051170    0.056152
     0.061962    0.062294    0.063275    0.068631    0.069367    0.086643
     0.121113    0.133022    0.157962    0.159731    0.160577    0.222103
     0.235614    0.270821    0.280988    0.290604    0.295807    0.321475
     0.348737    0.348799

 Minimum Search - Taking Simple RFO Step
 Searching for Lamda that Minimizes Along All modes
 Value Taken    Lamda =  -0.00038517
 Step Taken.  Stepsize is  0.079529

                             Maximum     Tolerance    Cnvgd?
         Gradient           0.006218      0.000300      NO
         Displacement       0.044691      0.001200      NO
         Energy change     -0.000795      0.000001      NO


 New Cartesian Coordinates Obtained by Inverse Iteration

 Displacement from previous Coordinates is:  0.073182
 ----------------------------------------------------------------
             Standard Nuclear Orientation (Angstroms)
    I     Atom           X                Y                Z
 ----------------------------------------------------------------
    1      Br     -4.3233831632     1.6503992171     0.0065078904
    2      Br      2.9071327028     0.7946600755     0.0139097719
    3      C       0.0878996737     0.0255312749     0.0193553273
    4      C      -0.9630357763    -1.0325029447    -0.0037438287
    5      C       1.4950057431    -0.5929395635    -0.0009345260
    6      H      -0.0061187767     0.6424537890     0.9200518266
    7      H      -0.0124943780     0.6861510205    -0.8490610395
    8      H      -1.2762799209    -1.4780706787    -0.9419025419
    9      H      -1.2656048003    -1.5292470809     0.9117019549
   10      H       1.6725900202    -1.1773856490    -0.9032132066
   11      H       1.6841886757    -1.2103484601     0.8767283717
 ----------------------------------------------------------------
 Nuclear Repulsion Energy =   402.3682759000 hartrees
 There are       48 alpha and       46 beta electrons

                       Distance Matrix (Angstroms)
             Br(  1)   Br(  2)   C (  3)   C (  4)   C (  5)   H (  6)
   Br(  2)  7.280982
   C (  3)  4.701040  2.922270
   C (  4)  4.300000  4.279841  1.491454
   C (  5)  6.235886  1.979837  1.537161  2.497037
   H (  6)  4.526510  3.054717  1.095759  2.138824  2.151229
   H (  7)  4.499504  3.046427  1.095739  2.138191  2.151267  1.769664
   H (  8)  4.468965  4.855906  2.246291  1.084801  3.057597  3.094642
   H (  9)  4.503281  4.859868  2.246240  1.084594  3.054595  2.510510
   H ( 10)  6.691461  2.500835  2.193031  2.788648  1.089596  3.074764
   H ( 11)  6.710595  2.502021  2.193314  2.795471  1.089622  2.508364
             H (  7)   H (  8)   H (  9)   H ( 10)
   H (  8)  2.507913
   H (  9)  3.094925  1.854342
   H ( 10)  2.513008  2.964413  3.471414
   H ( 11)  3.074702  3.484748  2.967187  1.780285
 
 Applying Cartesian multipole field
    Component          Value
    ---------          -----
     (2,0,0)        1.00000E-11
     (0,2,0)        2.00000E-11
     (0,0,2)       -3.00000E-10
 Nucleus-field energy     =     0.0000000393 hartrees
 Requested basis set is 6-31G(d,p)
 There are 46 shells and 145 basis functions
 A cutoff of  1.0D-14 yielded    881 shell pairs
 There are      8286 function pairs
 Smallest overlap matrix eigenvalue = 7.23E-04
 Guess from superposition of atomic densities
 Warning:  Energy on first SCF cycle will be non-variational
 SAD guess density has 93.945746 electrons

 -----------------------------------------------------------------------
  General SCF calculation program by
  Eric Jon Sundstrom, Paul Horn, Yuezhi Mao, Dmitri Zuev, Alec White,
  David Stuck, Shaama M.S., Shane Yost, Joonho Lee, David Small,
  Daniel Levine, Susi Lehtola, Hugh Burton, Evgeny Epifanovsky
 -----------------------------------------------------------------------
 Exchange:     0.2000 Hartree-Fock + 0.0800 Slater + 0.7200 B88
 Correlation:  0.1900 VWN1RPA + 0.8100 LYP
 Using SG-1 standard quadrature grid
 using 12 threads for integral computing
 -------------------------------------------------------
 OpenMP Integral computing Module                
 Release: version 1.0, May 2013, Q-Chem Inc. Pittsburgh 
 -------------------------------------------------------
 -------------------------------------------------------
 OpenMP BLAS3 based DFT computing Module                
 Release: version 1.0, May 2013, Q-Chem Inc. Pittsburgh 
 -------------------------------------------------------
 A unrestricted SCF calculation will be
 performed using DIIS
 SCF converges when DIIS error is below 1.0e-06
 Alpha HF Exchange    Energy = -19.60556787331890
 Beta HF Exchange     Energy = -19.60556787331890
 DFT Correlation      Energy =  -5.19221319561130
 DFT Exchange         Energy = -155.86332781491589
 One-Electron (alpha) Energy = -4058.86794928555582
 One-Electron (beta)  Energy = -4058.86794928555582
 Total Coulomb        Energy = 2643.25283408987980
 ---------------------------------------
  Cycle       Energy         DIIS error
 ---------------------------------------
    1   -5272.3814652991      1.83e-01  
 Alpha HF Exchange    Energy = -19.82791524861674
 Beta HF Exchange     Energy = -19.63023453144868
 DFT Correlation      Energy =  -5.23472040275647
 DFT Exchange         Energy = -157.02487075873708
 One-Electron (alpha) Energy = -4088.77844209545083
 One-Electron (beta)  Energy = -4045.70333090186705
 Total Coulomb        Energy = 2668.58181621761059
    2   -5265.2494217819      1.05e-02  
 Alpha HF Exchange    Energy = -19.68813160211807
 Beta HF Exchange     Energy = -19.53640429199679
 DFT Correlation      Energy =  -5.21267869978923
 DFT Exchange         Energy = -156.14156906182401
 One-Electron (alpha) Energy = -4064.16357901956189
 One-Electron (beta)  Energy = -4030.26910308149218
 Total Coulomb        Energy = 2635.20339815066109
    3   -5257.4397916668      1.18e-02  
 Alpha HF Exchange    Energy = -19.62778375850810
 Beta HF Exchange     Energy = -19.48608325261368
 DFT Correlation      Energy =  -5.15417836764519
 DFT Exchange         Energy = -155.80581761747146
 One-Electron (alpha) Energy = -4064.28381004398898
 One-Electron (beta)  Energy = -4024.07915632104323
 Total Coulomb        Energy = 2639.93867906277137
    4   -5246.1298743592      2.21e-02  
 Alpha HF Exchange    Energy = -19.79049296520336
 Beta HF Exchange     Energy = -19.59873242603078
 DFT Correlation      Energy =  -5.22308231687958
 DFT Exchange         Energy = -156.73838342144413
 One-Electron (alpha) Energy = -4086.87276578260753
 One-Electron (beta)  Energy = -4045.81850316840882
 Total Coulomb        Energy = 2666.64297636281026
    5   -5265.0307077784      5.31e-03  
 Alpha HF Exchange    Energy = -19.75727878652394
 Beta HF Exchange     Energy = -19.56859131610996
 DFT Correlation      Energy =  -5.21491769457030
 DFT Exchange         Energy = -156.48081532246761
 One-Electron (alpha) Energy = -4081.52215142068280
 One-Electron (beta)  Energy = -4039.02586159157590
 Total Coulomb        Energy = 2653.94317494750067
    6   -5265.2581652451      3.12e-03  
 Alpha HF Exchange    Energy = -19.76745567204341
 Beta HF Exchange     Energy = -19.58193466641878
 DFT Correlation      Energy =  -5.21373604262682
 DFT Exchange         Energy = -156.56119634069017
 One-Electron (alpha) Energy = -4083.98817703776649
 One-Electron (beta)  Energy = -4041.94960125494072
 Total Coulomb        Energy = 2659.16624085485637
    7   -5265.5275842203      2.40e-03  
 Alpha HF Exchange    Energy = -19.76341900208880
 Beta HF Exchange     Energy = -19.57596795216467
 DFT Correlation      Energy =  -5.21481516163588
 DFT Exchange         Energy = -156.52946647385721
 One-Electron (alpha) Energy = -4082.57726990873243
 One-Electron (beta)  Energy = -4040.52638263166591
 Total Coulomb        Energy = 2656.23139073892298
    8   -5265.5876544519      9.36e-04  
 Alpha HF Exchange    Energy = -19.75900740721193
 Beta HF Exchange     Energy = -19.57025117796356
 DFT Correlation      Energy =  -5.21276542790624
 DFT Exchange         Energy = -156.48673958412414
 One-Electron (alpha) Energy = -4081.84419594394467
 One-Electron (beta)  Energy = -4039.81563682549813
 Total Coulomb        Energy = 2654.72281980668595
    9   -5265.5975006206      5.65e-04  
 Alpha HF Exchange    Energy = -19.76097891895940
 Beta HF Exchange     Energy = -19.57165002759492
 DFT Correlation      Energy =  -5.21321676860300
 DFT Exchange         Energy = -156.50014418395889
 One-Electron (alpha) Energy = -4081.99617129976377
 One-Electron (beta)  Energy = -4039.91208089139718
 Total Coulomb        Energy = 2654.98461329595875
   10   -5265.6013528550      3.08e-04  
 Alpha HF Exchange    Energy = -19.76161354203403
 Beta HF Exchange     Energy = -19.57147076557300
 DFT Correlation      Energy =  -5.21332080569034
 DFT Exchange         Energy = -156.50158393327558
 One-Electron (alpha) Energy = -4082.00443294506022
 One-Electron (beta)  Energy = -4039.89832275572871
 Total Coulomb        Energy = 2654.97995433318965
   11   -5265.6025144749      1.47e-04  
 Alpha HF Exchange    Energy = -19.76128797776909
 Beta HF Exchange     Energy = -19.57097044998891
 DFT Correlation      Energy =  -5.21315948295012
 DFT Exchange         Energy = -156.49819393836117
 One-Electron (alpha) Energy = -4081.96761652534633
 One-Electron (beta)  Energy = -4039.84457343803297
 Total Coulomb        Energy = 2654.88465014316944
   12   -5265.6028757300      3.43e-05  
 Alpha HF Exchange    Energy = -19.76162891462018
 Beta HF Exchange     Energy = -19.57118972385309
 DFT Correlation      Energy =  -5.21324187441630
 DFT Exchange         Energy = -156.50044054671270
 One-Electron (alpha) Energy = -4081.98719083794913
 One-Electron (beta)  Energy = -4039.85912549087016
 Total Coulomb        Energy = 2654.92164814568241
   13   -5265.6028933034      7.01e-06  
 Alpha HF Exchange    Energy = -19.76167195668312
 Beta HF Exchange     Energy = -19.57120719965247
 DFT Correlation      Energy =  -5.21325391414213
 DFT Exchange         Energy = -156.50070016955840
 One-Electron (alpha) Energy = -4081.99259144394091
 One-Electron (beta)  Energy = -4039.86267777129433
 Total Coulomb        Energy = 2654.93093194052517
   14   -5265.6028945754      2.06e-06  
 Alpha HF Exchange    Energy = -19.76166085540992
 Beta HF Exchange     Energy = -19.57119489065848
 DFT Correlation      Energy =  -5.21325394488852
 DFT Exchange         Energy = -156.50061832918280
 One-Electron (alpha) Energy = -4081.99131606742412
 One-Electron (beta)  Energy = -4039.86139833001653
 Total Coulomb        Energy = 2654.92827168161466
   15   -5265.6028947966      1.08e-06  
 Alpha HF Exchange    Energy = -19.76165776199328
 Beta HF Exchange     Energy = -19.57119011718348
 DFT Correlation      Energy =  -5.21325327210178
 DFT Exchange         Energy = -156.50059211153243
 One-Electron (alpha) Energy = -4081.99099838047505
 One-Electron (beta)  Energy = -4039.86116338693910
 Total Coulomb        Energy = 2654.92768405306924
   16   -5265.6028950378      9.52e-07  Convergence criterion met
 ---------------------------------------
 SCF time:   CPU 54.98s  wall 5.00s 
<S^2> =          2.005310936
 Alpha HF Exchange    Energy = -19.76165776199328
 Beta HF Exchange     Energy = -19.57119011718348
 DFT Correlation      Energy =  -5.21325327210178
 DFT Exchange         Energy = -156.50059211153243
 One-Electron (alpha) Energy = -4081.99099838047505
 One-Electron (beta)  Energy = -4039.86116338693910
 Total Coulomb        Energy = 2654.92768405306924
 Nuclear repulsion Energy = 402.36827593931952
 SCF   energy in the final basis set =    -5265.6028950378
 Total energy in the final basis set =    -5265.6028950378
 
 --------------------------------------------------------------
 
                    Orbital Energies (a.u.)
 --------------------------------------------------------------
 
 Alpha MOs
 -- Occupied --
*******-482.848 -62.559 -62.506 -56.383 -56.375 -56.375 -56.328
-56.324 -56.324 -10.250 -10.212 -10.209  -8.746  -8.693  -6.582
 -6.560  -6.560  -6.524  -6.511  -6.511  -2.673  -2.668  -2.668
 -2.651  -2.651  -2.617  -2.613  -2.613  -2.603  -2.603  -0.829
 -0.798  -0.765  -0.668  -0.603  -0.495  -0.434  -0.432  -0.419
 -0.373  -0.362  -0.361  -0.324  -0.324  -0.278  -0.275  -0.225
 -- Virtual --
 -0.000   0.091   0.118   0.121   0.137   0.154   0.168   0.194
  0.205   0.240   0.254   0.282   0.309   0.310   0.340   0.349
  0.357   0.475   0.483   0.498   0.530   0.539   0.543   0.544
  0.556   0.579   0.580   0.582   0.616   0.620   0.623   0.678
  0.722   0.786   0.813   0.817   0.841   0.856   0.884   0.903
  0.925   0.992   1.142   1.211   1.309   1.413   1.481   1.507
  1.652   1.657   1.681   1.737   1.810   1.851   1.932   1.970
  2.007   2.054   2.106   2.168   2.200   2.234   2.331   2.335
  2.421   2.463   2.497   2.591   2.597   2.691   2.763   2.773
  2.836   2.870   3.195   3.256   3.363   3.369   3.452   3.533
  4.202   4.364   4.572   4.647   4.655   4.655   4.680   4.680
  4.729   4.744   4.811   4.813   4.983   6.205   6.303  90.124
 90.359
 
 Beta MOs
 -- Occupied --
*******-482.848 -62.557 -62.506 -56.377 -56.374 -56.374 -56.327
-56.324 -56.324 -10.248 -10.210 -10.198  -8.742  -8.693  -6.572
 -6.558  -6.558  -6.523  -6.511  -6.511  -2.665  -2.662  -2.662
 -2.650  -2.650  -2.617  -2.613  -2.613  -2.603  -2.603  -0.823
 -0.755  -0.755  -0.652  -0.591  -0.492  -0.428  -0.426  -0.409
 -0.359  -0.357  -0.310  -0.310  -0.276  -0.275
 -- Virtual --
 -0.237  -0.076   0.010   0.094   0.123   0.125   0.144   0.155
  0.177   0.198   0.209   0.244   0.261   0.311   0.314   0.314
  0.342   0.349   0.358   0.479   0.484   0.509   0.542   0.576
  0.587   0.587   0.588   0.589   0.590   0.596   0.617   0.626
  0.656   0.689   0.726   0.789   0.815   0.822   0.843   0.858
  0.890   0.908   0.928   1.007   1.145   1.220   1.321   1.442
  1.486   1.521   1.652   1.676   1.699   1.744   1.819   1.856
  1.935   2.014   2.022   2.056   2.106   2.174   2.202   2.235
  2.333   2.344   2.438   2.471   2.512   2.592   2.611   2.699
  2.764   2.776   2.840   2.873   3.197   3.260   3.365   3.374
  3.457   3.537   4.215   4.384   4.575   4.666   4.669   4.669
  4.683   4.683   4.729   4.744   4.812   4.813   4.984   6.221
  6.303  90.130  90.359
 --------------------------------------------------------------
 
          Ground-State Mulliken Net Atomic Charges

     Atom                 Charge (a.u.)    Spin (a.u.)
  --------------------------------------------------------
      1 Br                   -0.003282       1.001578
      2 Br                   -0.125784       0.030791
      3 C                    -0.197337      -0.073002
      4 C                    -0.232002       1.060296
      5 C                    -0.243556       0.044815
      6 H                     0.131246       0.013665
      7 H                     0.131468       0.013429
      8 H                     0.116810      -0.045846
      9 H                     0.116724      -0.045838
     10 H                     0.152858       0.000049
     11 H                     0.152855       0.000063
  --------------------------------------------------------
  Sum of atomic charges =     0.000000
  Sum of spin   charges =     2.000000

 -----------------------------------------------------------------
                    Cartesian Multipole Moments
 -----------------------------------------------------------------
    Charge (ESU x 10^10)
                 0.0000
    Dipole Moment (Debye)
         X      -1.6165      Y      -1.5464      Z      -0.0169
       Tot       2.2371
    Quadrupole Moments (Debye-Ang)
        XX     -62.8508     XY      -3.4577     YY     -54.9991
        XZ      -0.0168     YZ      -0.0279     ZZ     -56.1219
    Octopole Moments (Debye-Ang^2)
       XXX      39.2442    XXY     -23.9366    XYY      14.4579
       YYY     -97.1452    XXZ      -0.5558    XYZ      -0.0077
       YYZ      -0.3506    XZZ      22.4960    YZZ     -37.1110
       ZZZ      -1.4557
    Hexadecapole Moments (Debye-Ang^3)
      XXXX   -3163.8148   XXXY     173.6490   XXYY    -545.9074
      XYYY     233.5094   YYYY    -496.8153   XXXZ      -0.8864
      XXYZ      -0.1799   XYYZ      -0.2579   YYYZ      -1.5442
      XXZZ    -560.8672   XYZZ      88.6217   YYZZ     -98.3173
      XZZZ      -0.8526   YZZZ      -1.2380   ZZZZ     -84.7048
 -----------------------------------------------------------------
 Calculating analytic gradient of the SCF energy
 Gradient of SCF Energy
            1           2           3           4           5           6
    1  -0.0000900  -0.0002941  -0.0000080  -0.0015778   0.0004268   0.0000401
    2   0.0000038  -0.0001381  -0.0016159   0.0015425   0.0009042  -0.0005344
    3  -0.0000124   0.0000302   0.0000443   0.0000669   0.0000122   0.0004912
            7           8           9          10          11
[...]
 
 Applying Cartesian multipole field
    Component          Value
    ---------          -----
     (2,0,0)        1.00000E-11
     (0,2,0)        2.00000E-11
     (0,0,2)       -3.00000E-10
 Nucleus-field energy     =     0.0000000391 hartrees
 Requested basis set is 6-31G(d,p)
 There are 46 shells and 145 basis functions
 A cutoff of  1.0D-14 yielded    881 shell pairs
 There are      8286 function pairs
 Smallest overlap matrix eigenvalue = 7.23E-04
 Guess from superposition of atomic densities
 Warning:  Energy on first SCF cycle will be non-variational
 SAD guess density has 93.945746 electrons

 -----------------------------------------------------------------------
  General SCF calculation program by
  Eric Jon Sundstrom, Paul Horn, Yuezhi Mao, Dmitri Zuev, Alec White,
  David Stuck, Shaama M.S., Shane Yost, Joonho Lee, David Small,
  Daniel Levine, Susi Lehtola, Hugh Burton, Evgeny Epifanovsky
 -----------------------------------------------------------------------
 Exchange:     0.2000 Hartree-Fock + 0.0800 Slater + 0.7200 B88
 Correlation:  0.1900 VWN1RPA + 0.8100 LYP
 Using SG-1 standard quadrature grid
 using 12 threads for integral computing
 -------------------------------------------------------
 OpenMP Integral computing Module                
 Release: version 1.0, May 2013, Q-Chem Inc. Pittsburgh 
 -------------------------------------------------------
 -------------------------------------------------------
 OpenMP BLAS3 based DFT computing Module                
 Release: version 1.0, May 2013, Q-Chem Inc. Pittsburgh 
 -------------------------------------------------------
 A unrestricted SCF calculation will be
 performed using DIIS
 SCF converges when DIIS error is below 1.0e-06
 Alpha HF Exchange    Energy = -19.60518070041582
 Beta HF Exchange     Energy = -19.60518070041582
 DFT Correlation      Energy =  -5.19212975453027
 DFT Exchange         Energy = -155.86253921494597
 One-Electron (alpha) Energy = -4059.18575779688445
 One-Electron (beta)  Energy = -4059.18575779688445
 Total Coulomb        Energy = 2643.57320666248643
 ---------------------------------------
  Cycle       Energy         DIIS error
 ---------------------------------------
    1   -5272.3786250860      1.83e-01  
 Alpha HF Exchange    Energy = -19.82764025148875
 Beta HF Exchange     Energy = -19.63012774427844
 DFT Correlation      Energy =  -5.23463654815614
 DFT Exchange         Energy = -157.02362245058725
 One-Electron (alpha) Energy = -4089.12546278769059
 One-Electron (beta)  Energy = -4046.02255795948849
 Total Coulomb        Energy = 2668.92813160080186
    2   -5265.2512019253      1.05e-02  
 Alpha HF Exchange    Energy = -19.68798116693890
 Beta HF Exchange     Energy = -19.53816039177270
 DFT Correlation      Energy =  -5.21256833823156
 DFT Exchange         Energy = -156.14519292884091
 One-Electron (alpha) Energy = -4064.45979741203428
 One-Electron (beta)  Energy = -4030.56363587348415
 Total Coulomb        Energy = 2635.45048174335307
    3   -5257.4721401524      1.17e-02  
 Alpha HF Exchange    Energy = -19.62740895117844
 Beta HF Exchange     Energy = -19.48525832524969
 DFT Correlation      Energy =  -5.15349131951000
 DFT Exchange         Energy = -155.79965329388378
 One-Electron (alpha) Energy = -4064.71515938423408
 One-Electron (beta)  Energy = -4024.36599280480414
 Total Coulomb        Energy = 2640.47234767171994
    4   -5245.9899021915      2.21e-02  
 Alpha HF Exchange    Energy = -19.79021121996766
 Beta HF Exchange     Energy = -19.59885331721258
 DFT Correlation      Energy =  -5.22299941704491
 DFT Exchange         Energy = -156.73803326394349
 One-Electron (alpha) Energy = -4087.24127002759860
 One-Electron (beta)  Energy = -4046.15402784040589
 Total Coulomb        Energy = 2667.03041814788276
    5   -5265.0302627227      5.32e-03  
 Alpha HF Exchange    Energy = -19.75711874116234
 Beta HF Exchange     Energy = -19.56863921568668
 DFT Correlation      Energy =  -5.21482689188852
 DFT Exchange         Energy = -156.48040469561795
 One-Electron (alpha) Energy = -4081.88578778624151
 One-Electron (beta)  Energy = -4039.38144686713440
 Total Coulomb        Energy = 2654.34608357128400
    6   -5265.2574264109      3.14e-03  
 Alpha HF Exchange    Energy = -19.76731475177703
 Beta HF Exchange     Energy = -19.58192707440992
 DFT Correlation      Energy =  -5.21374104412684
 DFT Exchange         Energy = -156.56099169648058
 One-Electron (alpha) Energy = -4084.36322539905450
 One-Electron (beta)  Energy = -4042.27976003488220
 Total Coulomb        Energy = 2659.55499491816227
    7   -5265.5272508670      2.40e-03  
 Alpha HF Exchange    Energy = -19.76334497448511
 Beta HF Exchange     Energy = -19.57588815856317
 DFT Correlation      Energy =  -5.21481685180466
 DFT Exchange         Energy = -156.52907288482103
 One-Electron (alpha) Energy = -4082.91896601881126
 One-Electron (beta)  Energy = -4040.83755685913957
 Total Coulomb        Energy = 2656.56694389772474
    8   -5265.5879876343      9.27e-04  
 Alpha HF Exchange    Energy = -19.75880541228218
 Beta HF Exchange     Energy = -19.57009669715715
 DFT Correlation      Energy =  -5.21271134386601
 DFT Exchange         Energy = -156.48550048009324
 One-Electron (alpha) Energy = -4082.17941749291595
 One-Electron (beta)  Energy = -4040.12231263806098
 Total Coulomb        Energy = 2655.04644856078994
    9   -5265.5976812880      5.59e-04  
 Alpha HF Exchange    Energy = -19.76079734290895
 Beta HF Exchange     Energy = -19.57151165811774
 DFT Correlation      Energy =  -5.21317352723451
 DFT Exchange         Energy = -156.49907542322669
 One-Electron (alpha) Energy = -4082.33023550178177
 One-Electron (beta)  Energy = -4040.21900209990599
 Total Coulomb        Energy = 2655.30763922638744
   10   -5265.6014421112      3.05e-04  
 Alpha HF Exchange    Energy = -19.76141289528151
 Beta HF Exchange     Energy = -19.57131780977200
 DFT Correlation      Energy =  -5.21326098194607
 DFT Exchange         Energy = -156.50035372263659
 One-Electron (alpha) Energy = -4082.33667664773202
 One-Electron (beta)  Energy = -4040.20461450684843
 Total Coulomb        Energy = 2655.30035276305398
   11   -5265.6025695856      1.48e-04  
 Alpha HF Exchange    Energy = -19.76109082904337
 Beta HF Exchange     Energy = -19.57081872742302
 DFT Correlation      Energy =  -5.21310045783736
 DFT Exchange         Energy = -156.49698857499553
 One-Electron (alpha) Energy = -4082.30036345015287
 One-Electron (beta)  Energy = -4040.15142000216883
 Total Coulomb        Energy = 2655.20613487410264
   12   -5265.6029329519      3.49e-05  
 Alpha HF Exchange    Energy = -19.76143075741720
 Beta HF Exchange     Energy = -19.57103306947903
 DFT Correlation      Energy =  -5.21318079556985
 DFT Exchange         Energy = -156.49921029259434
 One-Electron (alpha) Energy = -4082.31932688718734
 One-Electron (beta)  Energy = -4040.16529797825706
 Total Coulomb        Energy = 2655.24181425048801
   13   -5265.6029513144      7.02e-06  
 Alpha HF Exchange    Energy = -19.76147517139452
 Beta HF Exchange     Energy = -19.57105077801188
 DFT Correlation      Energy =  -5.21319288425977
 DFT Exchange         Energy = -156.49947812211082
 One-Electron (alpha) Energy = -4082.32482177359088
 One-Electron (beta)  Energy = -4040.16891009227311
 Total Coulomb        Energy = 2655.25126197280633
   14   -5265.6029526332      2.15e-06  
 Alpha HF Exchange    Energy = -19.76146397850722
 Beta HF Exchange     Energy = -19.57103806319125
 DFT Correlation      Energy =  -5.21319299681533
 DFT Exchange         Energy = -156.49939518354233
 One-Electron (alpha) Energy = -4082.32353487233831
 One-Electron (beta)  Energy = -4040.16761348998216
 Total Coulomb        Energy = 2655.24857149430454
   15   -5265.6029528745      1.11e-06  
 Alpha HF Exchange    Energy = -19.76146063434982
 Beta HF Exchange     Energy = -19.57103290689306
 DFT Correlation      Energy =  -5.21319232612279
 DFT Exchange         Energy = -156.49936719924111
 One-Electron (alpha) Energy = -4082.32319447454984
 One-Electron (beta)  Energy = -4040.16736483401792
 Total Coulomb        Energy = 2655.24794501966107
   16   -5265.6029531399      9.91e-07  Convergence criterion met
 ---------------------------------------
 SCF time:   CPU 55.65s  wall 5.00s 
<S^2> =          2.005368930
 Alpha HF Exchange    Energy = -19.76146063434982
 Beta HF Exchange     Energy = -19.57103290689306
 DFT Correlation      Energy =  -5.21319232612279
 DFT Exchange         Energy = -156.49936719924111
 One-Electron (alpha) Energy = -4082.32319447454984
 One-Electron (beta)  Energy = -4040.16736483401792
 Total Coulomb        Energy = 2655.24794501966107
 Nuclear repulsion Energy = 402.68471421559263
 SCF   energy in the final basis set =    -5265.6029531399
 Total energy in the final basis set =    -5265.6029531399
 
 --------------------------------------------------------------
 
                    Orbital Energies (a.u.)
 --------------------------------------------------------------
 
 Alpha MOs
 -- Occupied --
*******-482.848 -62.559 -62.506 -56.383 -56.376 -56.376 -56.327
-56.323 -56.323 -10.250 -10.212 -10.209  -8.746  -8.693  -6.583
 -6.561  -6.561  -6.523  -6.510  -6.510  -2.674  -2.668  -2.668
 -2.652  -2.652  -2.617  -2.613  -2.613  -2.603  -2.603  -0.828
 -0.799  -0.765  -0.668  -0.603  -0.495  -0.435  -0.432  -0.419
 -0.373  -0.362  -0.361  -0.324  -0.324  -0.278  -0.275  -0.225
 -- Virtual --
 -0.000   0.091   0.117   0.121   0.136   0.153   0.168   0.194
  0.207   0.241   0.253   0.281   0.309   0.310   0.340   0.349
  0.357   0.475   0.483   0.498   0.529   0.539   0.543   0.543
  0.558   0.579   0.579   0.581   0.617   0.621   0.623   0.677
  0.727   0.785   0.813   0.815   0.840   0.855   0.882   0.903
  0.926   0.991   1.146   1.212   1.307   1.418   1.480   1.495
  1.652   1.662   1.681   1.735   1.808   1.852   1.928   1.972
  2.006   2.055   2.106   2.169   2.201   2.233   2.331   2.334
  2.423   2.461   2.506   2.589   2.592   2.687   2.761   2.771
  2.840   2.871   3.195   3.256   3.367   3.368   3.445   3.537
  4.204   4.364   4.572   4.647   4.655   4.655   4.680   4.680
  4.729   4.744   4.811   4.813   4.983   6.205   6.303  90.124
 90.358
 
 Beta MOs
 -- Occupied --
*******-482.847 -62.557 -62.506 -56.378 -56.375 -56.375 -56.327
-56.323 -56.323 -10.248 -10.210 -10.199  -8.742  -8.693  -6.572
 -6.559  -6.559  -6.523  -6.510  -6.510  -2.666  -2.662  -2.662
 -2.651  -2.651  -2.617  -2.613  -2.613  -2.603  -2.603  -0.823
 -0.755  -0.754  -0.651  -0.591  -0.491  -0.428  -0.426  -0.409
 -0.359  -0.357  -0.310  -0.310  -0.276  -0.275
 -- Virtual --
 -0.237  -0.075   0.011   0.094   0.123   0.125   0.144   0.155
  0.177   0.197   0.211   0.245   0.260   0.311   0.314   0.314
  0.342   0.349   0.359   0.479   0.484   0.509   0.541   0.579
  0.587   0.587   0.588   0.589   0.590   0.596   0.617   0.626
  0.655   0.688   0.730   0.788   0.815   0.820   0.843   0.857
  0.889   0.908   0.929   1.006   1.149   1.220   1.319   1.451
  1.485   1.505   1.652   1.681   1.699   1.743   1.818   1.857
  1.931   2.010   2.026   2.057   2.106   2.175   2.202   2.234
  2.335   2.339   2.440   2.470   2.521   2.593   2.603   2.694
  2.762   2.773   2.844   2.875   3.197   3.259   3.368   3.372
  3.450   3.540   4.217   4.384   4.575   4.666   4.669   4.669
  4.682   4.682   4.729   4.744   4.812   4.813   4.984   6.221
  6.303  90.130  90.359
 --------------------------------------------------------------
 
          Ground-State Mulliken Net Atomic Charges

     Atom                 Charge (a.u.)    Spin (a.u.)
  --------------------------------------------------------
      1 Br                   -0.003289       1.001466
      2 Br                   -0.127497       0.032171
      3 C                    -0.196924      -0.073314
      4 C                    -0.233928       1.062135
      5 C                    -0.243258       0.043535
      6 H                     0.131419       0.013676
      7 H                     0.131636       0.013349
      8 H                     0.117714      -0.046575
      9 H                     0.117628      -0.046565
     10 H                     0.153255       0.000058
     11 H                     0.153243       0.000064
  --------------------------------------------------------
  Sum of atomic charges =     0.000000
  Sum of spin   charges =     2.000000

 -----------------------------------------------------------------
                    Cartesian Multipole Moments
 -----------------------------------------------------------------
    Charge (ESU x 10^10)
                 0.0000
    Dipole Moment (Debye)
         X      -1.6753      Y      -1.5305      Z      -0.0163
       Tot       2.2692
    Quadrupole Moments (Debye-Ang)
        XX     -62.8561     XY      -3.4599     YY     -55.0392
        XZ      -0.0168     YZ      -0.0298     ZZ     -56.1255
    Octopole Moments (Debye-Ang^2)
       XXX      37.4096    XXY     -23.9215    XYY      13.9452
       YYY     -96.6274    XXZ      -0.5620    XYZ      -0.0064
       YYZ      -0.3477    XZZ      21.9763    YZZ     -36.9662
       ZZZ      -1.4640
    Hexadecapole Moments (Debye-Ang^3)
      XXXX   -3148.2875   XXXY     171.3927   XXYY    -543.5260
      XYYY     230.7022   YYYY    -496.0235   XXXZ      -0.8624
      XXYZ      -0.1909   XYYZ      -0.2573   YYYZ      -1.5780
      XXZZ    -558.0837   XYZZ      87.6485   YYZZ     -98.0950
      XZZZ      -0.8302   YZZZ      -1.2624   ZZZZ     -84.6845
 -----------------------------------------------------------------
 Calculating analytic gradient of the SCF energy
 Gradient of SCF Energy
            1           2           3           4           5           6
    1  -0.0000854   0.0000700   0.0001661   0.0000130  -0.0001394   0.0000082
    2  -0.0000041   0.0000869   0.0000446  -0.0001436  -0.0001206   0.0000426
    3  -0.0000136   0.0000293  -0.0000024  -0.0000145   0.0000034  -0.0000233
            7           8           9          10          11
    1   0.0000094  -0.0000255  -0.0000338   0.0000145   0.0000028
    2   0.0000609  -0.0000025  -0.0000195   0.0000373   0.0000180
    3   0.0000607  -0.0000225  -0.0000194  -0.0000153   0.0000176
 Max gradient component =       1.661E-04
 RMS gradient           =       6.050E-05
 Gradient time:  CPU 13.38 s  wall 1.18 s
 Geometry Optimization Parameters
   NAtoms,    NIC,     NZ,  NCons,   NDum,   NFix, NCnnct, MaxDiis
       11     156       0       1       0       0       0       0

 Cartesian Hessian Update
 Hessian Updated using BFGS Update


** CONSTRAINED OPTIMIZATION IN DELOCALIZED INTERNAL COORDINATES **
   Searching for a Minimum

   Optimization Cycle:  16

                       Coordinates (Angstroms)
     ATOM                X               Y               Z
      1  Br       -4.3044900916    1.6455599990    0.0067029834
      2  Br        2.9114863440    0.7929040139    0.0139508179
      3  C         0.0862114396    0.0292614104    0.0192065382
      4  C        -0.9505637645   -1.0453627527   -0.0040955318
      5  C         1.4923435817   -0.5906570442   -0.0008150048
      6  H        -0.0122376485    0.6483235192    0.9176913040
      7  H        -0.0185891232    0.6915427223   -0.8470379365
      8  H        -1.2813744558   -1.4782081563   -0.9427339431
      9  H        -1.2698080175   -1.5306322614    0.9125755252
     10  H         1.6677741468   -1.1756333059   -0.9030284067
     11  H         1.6791475890   -1.2083971442    0.8769836542
   Point Group: c1    Number of degrees of freedom:    27


   Energy is  -5265.602953140

              Constraints and their Current Values
                                        Value     Constraint
   Distance(Angs):        1   4             4.300000     4.300000
 Hessian Updated using BFGS Update

 26 Hessian modes will be used to form the next step
  Hessian Eigenvalues:
     0.002541    0.010964    0.027867    0.045037    0.048747    0.051132
     0.059249    0.061222    0.062008    0.062306    0.069384    0.073131
     0.103409    0.120983    0.129507    0.159761    0.190519    0.221440
     0.269320    0.272474    0.290632    0.295904    0.304585    0.348736
     0.350378    0.398455

 Minimum Search - Taking Simple RFO Step
 Searching for Lamda that Minimizes Along All modes
 Value Taken    Lamda =   0.00000000
 Step Taken.  Stepsize is  0.001578

                             Maximum     Tolerance    Cnvgd?
         Gradient           0.000131      0.000300     YES
         Displacement       0.001090      0.001200     YES
         Energy change     -0.000002      0.000001      NO


                       Distance Matrix (Angstroms)
             Br(  1)   Br(  2)   C (  3)   C (  4)   C (  5)   H (  6)
   Br(  2)  7.266181
   C (  3)  4.678765  2.926663
   C (  4)  4.300000  4.277263  1.493406
   C (  5)  6.213212  1.982026  1.536850  2.484867
   H (  6)  4.499757  3.063627  1.095539  2.144463  2.154644
   H (  7)  4.473027  3.055637  1.095436  2.143821  2.154773  1.765270
   H (  8)  4.449560  4.863464  2.251241  1.085280  3.060796  3.097423
   H (  9)  4.485320  4.867193  2.251703  1.085214  3.057338  2.515821
   H ( 10)  6.667435  2.502561  2.191718  2.771416  1.089478  3.076407
   H ( 11)  6.686283  2.503735  2.192037  2.778176  1.089509  2.511942
             H (  7)   H (  8)   H (  9)   H ( 10)
   H (  8)  2.512290
   H (  9)  3.098362  1.856086
   H ( 10)  2.516605  2.964896  3.471575
   H ( 11)  3.076415  3.485522  2.966722  1.780350
 
 Final energy is   -5265.60295313992     


 ******************************
 **  OPTIMIZATION CONVERGED  **
 ******************************

                       Coordinates (Angstroms)
     ATOM                X               Y               Z
      1  Br       -4.3044900916    1.6455599990    0.0067029834
      2  Br        2.9114863440    0.7929040139    0.0139508179
      3  C         0.0862114396    0.0292614104    0.0192065382
      4  C        -0.9505637645   -1.0453627527   -0.0040955318
      5  C         1.4923435817   -0.5906570442   -0.0008150048
      6  H        -0.0122376485    0.6483235192    0.9176913040
      7  H        -0.0185891232    0.6915427223   -0.8470379365
      8  H        -1.2813744558   -1.4782081563   -0.9427339431
      9  H        -1.2698080175   -1.5306322614    0.9125755252
     10  H         1.6677741468   -1.1756333059   -0.9030284067
     11  H         1.6791475890   -1.2083971442    0.8769836542

Z-matrix Print:
$molecule
0 3
Br
C  1 1.982026
H  2 1.089478 1 105.407611
H  2 1.089509 1 105.487184 3 115.919578 0
C  2 1.536850 1 111.927626 3 -121.999827 0
H  5 1.095436 2 108.729534 1 57.846138 0
H  5 1.095539 2 108.713665 1 -58.732382 0
C  5 1.493406 2 110.165127 1 179.534005 0
H  8 1.085214 5 120.851723 2 84.517432 0
H  8 1.085280 5 120.803862 2 -85.034373 0
Br 8 4.300000 5 95.229341 2 -179.102646 0
$end

PES scan, value:    4.3000 energy: -5265.6029531399
------- Summary of potential scan: ------ 
    4.3000     -5265.6029531399
----------------------------------------- 
Archival summary:
1\1\hpc0242\JobtypUnspecified\ProcedureUnspecified\6-31G**\r236(3)\knomura\ThuMar1405:56:562019ThuMar1405:56:562019\0\\#,JobtypUnspecified,ProcedureUnspecified,6-31G**,\\0,3\Br\C,1,1.98203\H,2,1.08948,1,105.408\H,2,1.08951,1,105.487,3,115.92,0\C,2,1.53685,1,111.928,3,-122,0\H,5,1.09544,2,108.73,1,57.8461,0\H,5,1.09554,2,108.714,1,-58.7324,0\C,5,1.49341,2,110.165,1,179.534,0\H,8,1.08521,5,120.852,2,84.5174,0\H,8,1.08528,5,120.804,2,-85.0344,0\Br,8,4.3,5,95.2293,2,-179.103,0\\\@

 Total job time:  109.46s(wall), 1270.02s(cpu) 
 Thu Mar 14 05:56:56 2019

        *************************************************************
        *                                                           *
        *  Thank you very much for using Q-Chem.  Have a nice day.  *
        *                                                           *
        *************************************************************


