
Running Job 1 of 1 halogens/Bromine/04/Br_1_4.xyz.data/inputs/bond_singlet_2.4.in
qchem halogens/Bromine/04/Br_1_4.xyz.data/inputs/bond_singlet_2.4.in_15119.0 /staging/scratch/2868759/qchem15119/ 1
/usr/usc/qchem/5.1.1/exe/qcprog.exe_s halogens/Bromine/04/Br_1_4.xyz.data/inputs/bond_singlet_2.4.in_15119.0 /staging/scratch/2868759/qchem15119/
Check license passed

                  Welcome to Q-Chem
     A Quantum Leap Into The Future Of Chemistry


 Q-Chem 5.1, Q-Chem, Inc., Pleasanton, CA (2018)

 Yihan Shao,  Zhengting Gan,  E. Epifanovsky,  A. T. B. Gilbert,  M. Wormit,  
 J. Kussmann,  A. W. Lange,  A. Behn,  Jia Deng,  Xintian Feng,  D. Ghosh,  
 M. Goldey,  P. R. Horn,  L. D. Jacobson,  I. Kaliman,  T. Kus,  A. Landau,  
 Jie Liu,  E. I. Proynov,  R. M. Richard,  R. P. Steele,  E. J. Sundstrom,  
 H. L. Woodcock III,  P. M. Zimmerman,  D. Zuev,  B. Albrecht,  E. Alguire,  
 S. A. Baeppler,  D. Barton,  Z. Benda,  Y. A. Bernard,  E. J. Berquist,  
 K. B. Bravaya,  H. Burton,  D. Casanova,  Chun-Min Chang,  Yunqing Chen,  
 A. Chien,  K. D. Closser,  M. P. Coons,  S. Coriani,  S. Dasgupta,  
 A. L. Dempwolff,  M. Diedenhofen,  Hainam Do,  R. G. Edgar,  Po-Tung Fang,  
 S. Faraji,  S. Fatehi,  Qingguo Feng,  K. D. Fenk,  J. Fosso-Tande,  
 Qinghui Ge,  A. Ghysels,  G. Gidofalvi,  J. Gomes,  J. Gonthier,  A. Gunina,  
 D. Hait,  M. W. D. Hanson-Heine,  P. H. P. Harbach,  A. W. Hauser,  
 J. E. Herr,  E. G. Hohenstein,  Z. C. Holden,  Kerwin Hui,  B. C. Huynh,  
 T.-C. Jagau,  Hyunjun Ji,  B. Kaduk,  K. Khistyaev,  Jaehoon Kim,  
 P. Klunzinger,  K. Koh,  D. Kosenkov,  L. Koulias,  T. Kowalczyk,  
 C. M. Krauter,  A. Kunitsa,  Ka Un Lao,  A. Laurent,  K. V. Lawler,  
 Joonho Lee,  D. Lefrancois,  S. Lehtola,  D. S. Levine,  Yi-Pei Li,  
 You-Sheng Lin,  Fenglai Liu,  E. Livshits,  A. Luenser,  P. Manohar,  
 E. Mansoor,  S. F. Manzer,  Shan-Ping Mao,  Yuezhi Mao,  N. Mardirossian,  
 A. V. Marenich,  T. Markovich,  L. A. Martinez-Martinez,  S. A. Maurer,  
 N. J. Mayhall,  S. C. McKenzie,  J.-M. Mewes,  A. F. Morrison,  
 J. W. Mullinax,  K. Nanda,  T. S. Nguyen-Beck,  R. Olivares-Amaya,  
 J. A. Parkhill,  T. M. Perrine,  F. Plasser,  P. Pokhilko,  S. Prager,  
 A. Prociuk,  E. Ramos,  D. R. Rehn,  F. Rob,  M. Schneider,  N. Sergueev,  
 S. M. Sharada,  S. Sharma,  D. W. Small,  T. Stauch,  T. Stein,  
 Yu-Chuan Su,  A. J. W. Thom,  A. Tkatchenko,  T. Tsuchimochi,  N. M. Tubman,  
 L. Vogt,  M. L. Vidal,  O. Vydrov,  M. A. Watson,  J. Wenzel,  
 M. de Wergifosse,  T. A. Wesolowski,  A. White,  J. Witte,  A. Yamada,  
 Jun Yang,  K. Yao,  S. Yeganeh,  S. R. Yost,  Zhi-Qiang You,  A. Zech,  
 Igor Ying Zhang,  Xing Zhang,  Yan Zhao,  Ying Zhu,  B. R. Brooks,  
 G. K. L. Chan,  C. J. Cramer,  M. S. Gordon,  W. J. Hehre,  A. Klamt,  
 M. W. Schmidt,  C. D. Sherrill,  D. G. Truhlar,  A. Aspuru-Guzik,  R. Baer,  
 A. T. Bell,  N. A. Besley,  Jeng-Da Chai,  A. E. DePrince, III,  
 R. A. DiStasio Jr.,  A. Dreuw,  B. D. Dunietz,  T. R. Furlani,  
 Chao-Ping Hsu,  Yousung Jung,  Jing Kong,  D. S. Lambrecht,  WanZhen Liang,  
 C. Ochsenfeld,  V. A. Rassolov,  L. V. Slipchenko,  J. E. Subotnik,  
 T. Van Voorhis,  J. M. Herbert,  A. I. Krylov,  P. M. W. Gill,  M. Head-Gordon

 Contributors to earlier versions of Q-Chem not listed above: 
 R. D. Adamson,  B. Austin,  J. Baker,  G. J. O. Beran,  K. Brandhorst,  
 S. T. Brown,  E. F. C. Byrd,  A. K. Chakraborty,  C.-L. Cheng,  
 Siu Hung Chien,  D. M. Chipman,  D. L. Crittenden,  H. Dachsel,  
 R. J. Doerksen,  A. D. Dutoi,  L. Fusti-Molnar,  W. A. Goddard III,  
 A. Golubeva-Zadorozhnaya,  S. R. Gwaltney,  G. Hawkins,  A. Heyden,  
 S. Hirata,  G. Kedziora,  F. J. Keil,  C. Kelley,  Jihan Kim,  R. A. King,  
 R. Z. Khaliullin,  P. P. Korambath,  W. Kurlancheek,  A. M. Lee,  M. S. Lee,  
 S. V. Levchenko,  Ching Yeh Lin,  D. Liotard,  R. C. Lochan,  I. Lotan,  
 P. E. Maslen,  N. Nair,  D. P. O'Neill,  D. Neuhauser,  E. Neuscamman,  
 C. M. Oana,  R. Olson,  B. Peters,  R. Peverati,  P. A. Pieniazek,  
 Y. M. Rhee,  J. Ritchie,  M. A. Rohrdanz,  E. Rosta,  N. J. Russ,  
 H. F. Schaefer III,  N. E. Schultz,  N. Shenvi,  A. C. Simmonett,  A. Sodt,  
 D. Stuck,  K. S. Thanthiriwatte,  V. Vanovschi,  Tao Wang,  A. Warshel,  
 C. F. Williams,  Q. Wu,  X. Xu,  W. Zhang

 Please cite Q-Chem as follows:
 Y. Shao et al., Mol. Phys. 113, 184-215 (2015)
 DOI: 10.1080/00268976.2014.952696

 Q-Chem 5.1.1 for Intel X86 EM64T Linux

 Parts of Q-Chem use Armadillo 8.300.2 (Tropical Shenanigans).
 http://arma.sourceforge.net/

 Q-Chem begins on Thu Mar 14 02:44:52 2019  

Host: 
0

     Scratch files written to /staging/scratch/2868759/qchem15119//
 Aug318 |scratch|qcdevops|jenkins|workspace|build_RNUM 6013   
Processing $rem in /usr/usc/qchem/5.1.1/config/preferences.
 MEM_TOTAL  2000 
Input Ideriv = 2
Curr. Ideriv = -1
Max.  Ideriv = 2

Checking the input file for inconsistencies... 	...done.

--------------------------------------------------------------
User input:
--------------------------------------------------------------

$comment
potential surface scanner
$end

$rem
JOBTYPE  PES_SCAN
UNRESTRICTED TRUE
SYM_IGNORE  TRUE
GEOM_OPT_MAX_CYCLES 400
SCF_MAX_CYCLES 400
METHOD   B3LYP
BASIS   6-31G**
PDB_PRINT 2
SCF_CONVERGENCE 6
THRESH 14
SCF_PRINT 1
$end
$molecule
0 1
Br -3.070438 0.625524 0.030113
Br 2.900238 0.525179 0.023471
C 0.016341 0.223713 0.017605
C -1.182709 -0.687926 -0.006341
C 1.293268 -0.625240 -0.003350
H 0.001667 0.843622 0.916875
H 0.002692 0.888736 -0.848843
H -1.361771 -1.234707 -0.928257
H -1.360368 -1.283855 0.885039
H 1.380150 -1.226571 -0.908615
H 1.380831 -1.269774 0.871705
$end
$scan
stre 1 4 2.400000 2.401000 0.100000
$end
--------------------------------------------------------------
 ----------------------------------------------------------------
             Standard Nuclear Orientation (Angstroms)
    I     Atom           X                Y                Z
 ----------------------------------------------------------------
    1      Br     -3.0704380000     0.6255240000     0.0301130000
    2      Br      2.9002380000     0.5251790000     0.0234710000
    3      C       0.0163410000     0.2237130000     0.0176050000
    4      C      -1.1827090000    -0.6879260000    -0.0063410000
    5      C       1.2932680000    -0.6252400000    -0.0033500000
    6      H       0.0016670000     0.8436220000     0.9168750000
    7      H       0.0026920000     0.8887360000    -0.8488430000
    8      H      -1.3617710000    -1.2347070000    -0.9282570000
    9      H      -1.3603680000    -1.2838550000     0.8850390000
   10      H       1.3801500000    -1.2265710000    -0.9086150000
   11      H       1.3808310000    -1.2697740000     0.8717050000
 ----------------------------------------------------------------
 Nuclear Repulsion Energy =   474.8464775939 hartrees
 There are       47 alpha and       47 beta electrons
 Requested basis set is 6-31G(d,p)
 There are 46 shells and 145 basis functions

 Total QAlloc Memory Limit   2000 MB
 Mega-Array Size       188 MB
 MEM_STATIC part       192 MB
A total of 1 constraints
  
            1
    1   1.0100000
    2   1.0100000
    3   4.0100000
    4   2.4000000
    5   2.4010000
    6   0.1000000
    7   0.0000000
    8   0.0000000
    9   0.0000000
   10   0.0000000

                       Distance Matrix (Angstroms)
             Br(  1)   Br(  2)   C (  3)   C (  4)   C (  5)   H (  6)
   Br(  2)  5.971523
   C (  3)  3.112846  2.899617
   C (  4)  2.300000  4.259456  1.506446
   C (  5)  4.539544  1.976496  1.533526  2.476772
   H (  6)  3.204956  3.049802  1.092332  2.144927  2.161620
   H (  7)  3.207175  3.047766  1.092325  2.144959  2.161612  1.766295
   H (  8)  2.701569  4.708259  2.218296  1.086721  2.876827  3.095630
   H (  9)  2.702030  4.708255  2.218227  1.086854  2.874855  2.526324
   H ( 10)  4.911130  2.499616  2.195719  2.769925  1.090253  3.085179
   H ( 11)  4.910624  2.499991  2.195865  2.771507  1.090327  2.524000
             H (  7)   H (  8)   H (  9)   H ( 10)
   H (  8)  2.525287
   H (  9)  3.095873  1.813962
   H ( 10)  2.524973  2.742003  3.275808
   H ( 11)  3.085242  3.280695  2.741268  1.780844
 
 A cutoff of  1.0D-14 yielded    951 shell pairs
 There are      9192 function pairs
 
 -------------------------------------------------------
 OpenMP Integral Computing Module                       
 Release: version 1.0, May 2013, Q-Chem Inc. Pittsburgh 
 -------------------------------------------------------
 Integral Job Info:
 Integral job number is                      11
 Integral operator is                         1
 short-range coefficients                     0
 long-range coefficients              100000000
 Omega coefficients                           0
 if combine SR and LR in K                    0
 Integral screening is                        0
 Integral computing path is                   2
 max size of driver memory is            800000
 size of driver memory is                593474
 size of scratch memory is             15267112
 max col of scratch BK array               1296
 max len of scratch array in speh3          155
 max len of scratch index in speh4           18
 max int batch size is                      520
 min int batch size is                       52
 fixed nKL is                                52
 max L of basis functions is                  2
 order of int derivative is                   0
 number of shells is                         46
 number of basis is                         145
 number of cartesian basis is               145
 number of contracted shell pairs           951
 number of primitive shell pairs           4110
 maxK2 (contraction) of shell pair           36
 max number of K2 of shell pair               1
 max number of CS2 of shell pair             67
 max number of PS2 of shell pair            402
 mem total for path MDJ                  528444
 -------------------------------------------------------
 Smallest overlap matrix eigenvalue = 7.23E-04

 Scale SEOQF with 1.000000e-01/1.000000e+00/1.000000e+00

 Standard Electronic Orientation quadrupole field applied
 Nucleus-field energy     =     0.0000000442 hartrees
 Guess from superposition of atomic densities
 Warning:  Energy on first SCF cycle will be non-variational
 SAD guess density has 93.945746 electrons

 -----------------------------------------------------------------------
  General SCF calculation program by
  Eric Jon Sundstrom, Paul Horn, Yuezhi Mao, Dmitri Zuev, Alec White,
  David Stuck, Shaama M.S., Shane Yost, Joonho Lee, David Small,
  Daniel Levine, Susi Lehtola, Hugh Burton, Evgeny Epifanovsky
 -----------------------------------------------------------------------
 Exchange:     0.2000 Hartree-Fock + 0.0800 Slater + 0.7200 B88
 Correlation:  0.1900 VWN1RPA + 0.8100 LYP
 Using SG-1 standard quadrature grid
 using 12 threads for integral computing
 -------------------------------------------------------
 OpenMP Integral computing Module                
 Release: version 1.0, May 2013, Q-Chem Inc. Pittsburgh 
 -------------------------------------------------------
 -------------------------------------------------------
 OpenMP BLAS3 based DFT computing Module                
 Release: version 1.0, May 2013, Q-Chem Inc. Pittsburgh 
 -------------------------------------------------------
 A unrestricted SCF calculation will be
 performed using DIIS
 SCF converges when DIIS error is below 1.0e-06
 Alpha HF Exchange    Energy = -19.62253646369779
 Beta HF Exchange     Energy = -19.62253646369779
 DFT Correlation      Energy =  -5.20559358696605
 DFT Exchange         Energy = -155.89270555399693
 One-Electron (alpha) Energy = -4131.30072799346544
 One-Electron (beta)  Energy = -4131.30072799346544
 Total Coulomb        Energy = 2715.42189971427160
 ---------------------------------------
  Cycle       Energy         DIIS error
 ---------------------------------------
    1   -5272.6764507030      1.83e-01  
 Alpha HF Exchange    Energy = -19.73023191247163
 Beta HF Exchange     Energy = -19.73023191247164
 DFT Correlation      Energy =  -5.25400113269758
 DFT Exchange         Energy = -157.03469685541546
 One-Electron (alpha) Energy = -4141.31337537909076
 One-Electron (beta)  Energy = -4141.31337537909076
 Total Coulomb        Energy = 2743.95177702556657
    2   -5265.5776579076      1.03e-02  
 Alpha HF Exchange    Energy = -19.59558871657493
 Beta HF Exchange     Energy = -19.59558871657491
 DFT Correlation      Energy =  -5.22228755668913
 DFT Exchange         Energy = -155.97909262526065
 One-Electron (alpha) Energy = -4125.83672095607562
 One-Electron (beta)  Energy = -4125.83672095607380
 Total Coulomb        Energy = 2711.64428317658985
    3   -5265.5752387126      4.04e-03  
 Alpha HF Exchange    Energy = -19.70393558935623
 Beta HF Exchange     Energy = -19.70393558935626
 DFT Correlation      Energy =  -5.24257842477794
 DFT Exchange         Energy = -156.80038366519682
 One-Electron (alpha) Energy = -4138.95150588964134
 One-Electron (beta)  Energy = -4138.95150588964498
 Total Coulomb        Energy = 2738.92270095698495
    4   -5265.5846664529      3.54e-03  
 Alpha HF Exchange    Energy = -19.66791479592118
 Beta HF Exchange     Energy = -19.66791479592119
 DFT Correlation      Energy =  -5.23981658539727
 DFT Exchange         Energy = -156.54671239659430
 One-Electron (alpha) Energy = -4134.16490006768072
 One-Electron (beta)  Energy = -4134.16490006768163
 Total Coulomb        Energy = 2728.91911859623815
    5   -5265.6865624749      1.00e-03  
 Alpha HF Exchange    Energy = -19.66108804167263
 Beta HF Exchange     Energy = -19.66108804167265
 DFT Correlation      Energy =  -5.23662664153050
 DFT Exchange         Energy = -156.48539814010493
 One-Electron (alpha) Energy = -4133.79207108812898
 One-Electron (beta)  Energy = -4133.79207108813171
 Total Coulomb        Energy = 2728.08373465441491
    6   -5265.6981307488      9.59e-05  
 Alpha HF Exchange    Energy = -19.66031017331338
 Beta HF Exchange     Energy = -19.66031017331337
 DFT Correlation      Energy =  -5.23649086941817
 DFT Exchange         Energy = -156.47989841089100
 One-Electron (alpha) Energy = -4133.63620183091371
 One-Electron (beta)  Energy = -4133.63620183091280
 Total Coulomb        Energy = 2727.76469800911536
    7   -5265.6982376416      5.09e-05  
 Alpha HF Exchange    Energy = -19.66061334714777
 Beta HF Exchange     Energy = -19.66061334714778
 DFT Correlation      Energy =  -5.23650164337484
 DFT Exchange         Energy = -156.48205205209496
 One-Electron (alpha) Energy = -4133.68497964236121
 One-Electron (beta)  Energy = -4133.68497964236030
 Total Coulomb        Energy = 2727.86499641289356
    8   -5265.6982656235      1.51e-05  
 Alpha HF Exchange    Energy = -19.66069675327592
 Beta HF Exchange     Energy = -19.66069675327591
 DFT Correlation      Energy =  -5.23654298150071
 DFT Exchange         Energy = -156.48271389800004
 One-Electron (alpha) Energy = -4133.69649909213149
 One-Electron (beta)  Energy = -4133.69649909213149
 Total Coulomb        Energy = 2727.88890270767752
    9   -5265.6982682246      2.99e-06  
 Alpha HF Exchange    Energy = -19.66069844885363
 Beta HF Exchange     Energy = -19.66069844885364
 DFT Correlation      Energy =  -5.23654256556178
 DFT Exchange         Energy = -156.48271910711952
 One-Electron (alpha) Energy = -4133.69722405894208
 One-Electron (beta)  Energy = -4133.69722405894299
 Total Coulomb        Energy = 2727.89036073605530
   10   -5265.6982683142      8.18e-07  Convergence criterion met
 ---------------------------------------
 SCF time:   CPU 39.87s  wall 4.00s 
<S^2> =         -0.000000000
 Alpha HF Exchange    Energy = -19.66069844885363
 Beta HF Exchange     Energy = -19.66069844885364
 DFT Correlation      Energy =  -5.23654256556178
 DFT Exchange         Energy = -156.48271910711952
 One-Electron (alpha) Energy = -4133.69722405894208
 One-Electron (beta)  Energy = -4133.69722405894299
 Total Coulomb        Energy = 2727.89036073605530
 Nuclear repulsion Energy = 474.84647763805299
 SCF   energy in the final basis set =    -5265.6982683142
 Total energy in the final basis set =    -5265.6982683142
 
 --------------------------------------------------------------
 
                    Orbital Energies (a.u.)
 --------------------------------------------------------------
 
 Alpha MOs
 -- Occupied --
*******-482.846 -62.523 -62.504 -56.344 -56.340 -56.340 -56.325
-56.321 -56.321 -10.281 -10.268 -10.229  -8.710  -8.690  -6.540
 -6.527  -6.527  -6.520  -6.507  -6.507  -2.634  -2.630  -2.630
 -2.620  -2.619  -2.613  -2.610  -2.610  -2.600  -2.600  -0.852
 -0.793  -0.741  -0.680  -0.627  -0.519  -0.458  -0.456  -0.441
 -0.384  -0.382  -0.335  -0.291  -0.290  -0.276  -0.276
 -- Virtual --
 -0.090  -0.008   0.070   0.100   0.102   0.127   0.142   0.172
  0.181   0.206   0.229   0.241   0.325   0.334   0.341   0.349
  0.351   0.356   0.445   0.466   0.470   0.487   0.541   0.552
  0.567   0.573   0.612   0.627   0.627   0.640   0.674   0.755
  0.763   0.791   0.793   0.827   0.838   0.846   0.873   0.893
  0.895   0.931   1.097   1.107   1.290   1.308   1.366   1.526
  1.576   1.626   1.628   1.718   1.738   1.804   1.839   1.947
  1.974   2.039   2.040   2.091   2.173   2.183   2.205   2.284
  2.291   2.407   2.447   2.513   2.599   2.604   2.697   2.757
  2.773   2.791   2.846   3.178   3.218   3.321   3.327   3.456
  3.491   4.196   4.370   4.570   4.714   4.729   4.731   4.738
  4.764   4.770   4.797   4.801   4.914   4.971   6.286   6.294
 90.286  90.344
 
 Beta MOs
 -- Occupied --
*******-482.846 -62.523 -62.504 -56.344 -56.340 -56.340 -56.325
-56.321 -56.321 -10.281 -10.268 -10.229  -8.710  -8.690  -6.540
 -6.527  -6.527  -6.520  -6.507  -6.507  -2.634  -2.630  -2.630
 -2.620  -2.619  -2.613  -2.610  -2.610  -2.600  -2.600  -0.852
 -0.793  -0.741  -0.680  -0.627  -0.519  -0.458  -0.456  -0.441
 -0.384  -0.382  -0.335  -0.291  -0.290  -0.276  -0.276
 -- Virtual --
 -0.090  -0.008   0.070   0.100   0.102   0.127   0.142   0.172
  0.181   0.206   0.229   0.241   0.325   0.334   0.341   0.349
  0.351   0.356   0.445   0.466   0.470   0.487   0.541   0.552
  0.567   0.573   0.612   0.627   0.627   0.640   0.674   0.755
  0.763   0.791   0.793   0.827   0.838   0.846   0.873   0.893
  0.895   0.931   1.097   1.107   1.290   1.308   1.366   1.526
  1.576   1.626   1.628   1.718   1.738   1.804   1.839   1.947
  1.974   2.039   2.040   2.091   2.173   2.183   2.205   2.284
  2.291   2.407   2.447   2.513   2.599   2.604   2.697   2.757
  2.773   2.791   2.846   3.178   3.218   3.321   3.327   3.456
  3.491   4.196   4.370   4.570   4.714   4.729   4.731   4.738
  4.764   4.770   4.797   4.801   4.914   4.971   6.286   6.294
 90.286  90.344
 --------------------------------------------------------------
 
          Ground-State Mulliken Net Atomic Charges

     Atom                 Charge (a.u.)    Spin (a.u.)
  --------------------------------------------------------
      1 Br                   -0.205636       0.000000
      2 Br                   -0.089412      -0.000000
      3 C                    -0.185638      -0.000000
      4 C                    -0.226288      -0.000000
      5 C                    -0.268333      -0.000000
      6 H                     0.156995       0.000000
      7 H                     0.156965       0.000000
      8 H                     0.171513       0.000000
      9 H                     0.171416       0.000000
     10 H                     0.159189       0.000000
     11 H                     0.159228       0.000000
  --------------------------------------------------------
  Sum of atomic charges =    -0.000000
  Sum of spin   charges =     0.000000

 -----------------------------------------------------------------
                    Cartesian Multipole Moments
 -----------------------------------------------------------------
    Charge (ESU x 10^10)
                -0.0000
    Dipole Moment (Debye)
         X       1.1262      Y      -2.5423      Z      -0.0659
       Tot       2.7814
    Quadrupole Moments (Debye-Ang)
        XX     -70.7519     XY       1.1407     YY     -54.7563
        XZ       0.0543     YZ      -0.0011     ZZ     -55.9209
    Octopole Moments (Debye-Ang^2)
       XXX      23.7502    XXY     -14.1442    XYY       3.8446
       YYY     -43.3516    XXZ      -1.2209    XYZ       0.0058
       YYZ      -0.9281    XZZ       3.5966    YZZ     -16.4050
       ZZZ      -3.2797
    Hexadecapole Moments (Debye-Ang^3)
      XXXX   -2252.8365   XXXY      30.2464   XXYY    -381.3101
      XYYY      24.7283   YYYY    -197.0476   XXXZ       1.6446
      XXYZ       0.0148   XYYZ       0.4355   YYYZ      -2.2066
      XXZZ    -388.7650   XYZZ       8.4354   YYZZ     -43.9832
      XZZZ       1.4533   YZZZ      -1.8375   ZZZZ     -83.8875
 -----------------------------------------------------------------
 Calculating analytic gradient of the SCF energy
 Gradient of SCF Energy
            1           2           3           4           5           6
    1  -0.0336375   0.0000070  -0.0000773   0.0337890  -0.0000443  -0.0000080
    2   0.0234201  -0.0000197  -0.0000174  -0.0232625  -0.0000432   0.0000296
    3   0.0006587   0.0000059   0.0000055  -0.0006450   0.0000228  -0.0000177
            7           8           9          10          11
    1   0.0000257  -0.0000484  -0.0000231   0.0000105   0.0000064
    2  -0.0000036  -0.0000364  -0.0000776   0.0000057   0.0000050
    3  -0.0000049   0.0000060  -0.0000359  -0.0000003   0.0000049
 Max gradient component =       3.379E-02
 RMS gradient           =       1.010E-02
 Gradient time:  CPU 15.58 s  wall 1.38 s
 Geometry Optimization Parameters
   NAtoms,    NIC,     NZ,  NCons,   NDum,   NFix, NCnnct, MaxDiis
       11      68       0       1       0       0       0       0


** CONSTRAINED OPTIMIZATION IN DELOCALIZED INTERNAL COORDINATES **
   Searching for a Minimum

   Optimization Cycle:   1

                       Coordinates (Angstroms)
     ATOM                X               Y               Z
      1  Br       -3.0704380000    0.6255240000    0.0301130000
      2  Br        2.9002380000    0.5251790000    0.0234710000
      3  C         0.0163410000    0.2237130000    0.0176050000
      4  C        -1.1827090000   -0.6879260000   -0.0063410000
      5  C         1.2932680000   -0.6252400000   -0.0033500000
      6  H         0.0016670000    0.8436220000    0.9168750000
      7  H         0.0026920000    0.8887360000   -0.8488430000
      8  H        -1.3617710000   -1.2347070000   -0.9282570000
      9  H        -1.3603680000   -1.2838550000    0.8850390000
     10  H         1.3801500000   -1.2265710000   -0.9086150000
     11  H         1.3808310000   -1.2697740000    0.8717050000
   Point Group: c1    Number of degrees of freedom:    27


   Energy is  -5265.698268314

              Constraints and their Current Values
                                        Value     Constraint
   Distance(Angs):        1   4             2.300000     2.400000

 Attempting to Generate Delocalized Internal Coordinates

   Using Lagrange Multiplier Algorithm


 28 Hessian modes will be used to form the next step
  Hessian Eigenvalues:
    -0.962258    0.045000    0.045000    0.071030    0.074147    0.079157
     0.082554    0.083180    0.085612    0.099143    0.128649    0.159987
     0.160000    0.160000    0.160000    0.160000    0.219080    0.221008
     0.222481    0.291002    0.317103    0.345445    0.345453    0.347749
     0.347834    0.351787    0.351944    1.039222

 Minimum Search - Taking P-RFO Step
 Searching for Lamda that Maximizes Along the Constraint modes Only
 Value Taken    Lamda =   0.02737344
 Searching for Lamda that Minimizes Along All other modes
 Value Taken    Lamda =  -0.00981964
 Step Taken.  Stepsize is  0.185038

                             Maximum     Tolerance    Cnvgd?
         Gradient            0.188972       0.000300      NO
         Displacement        0.185033       0.001200      NO
         Energy change     *********       0.000001      NO


 New Cartesian Coordinates Obtained by Inverse Iteration

 Displacement from previous Coordinates is:  0.174036
 ----------------------------------------------------------------
             Standard Nuclear Orientation (Angstroms)
    I     Atom           X                Y                Z
 ----------------------------------------------------------------
    1      Br     -3.1460894828     0.6682203576     0.0308870461
    2      Br      2.9053294238     0.5280131536     0.0234870531
    3      C       0.0223288612     0.2185234580     0.0175630006
    4      C      -1.1745391319    -0.6961813198    -0.0064738695
    5      C       1.3015881943    -0.6269072419    -0.0034718482
    6      H       0.0060007448     0.8382697251     0.9169130275
    7      H       0.0069059436     0.8835463395    -0.8488517517
    8      H      -1.3518506959    -1.2433252268    -0.9284767823
    9      H      -1.3506780927    -1.2922019362     0.8851076424
   10      H       1.3900560441    -1.2279361826    -0.9087889623
   11      H       1.3908491916    -1.2713201264     0.8715074444
 ----------------------------------------------------------------
 Nuclear Repulsion Energy =   469.0982984414 hartrees
 There are       47 alpha and       47 beta electrons

                       Distance Matrix (Angstroms)
             Br(  1)   Br(  2)   C (  3)   C (  4)   C (  5)   H (  6)
   Br(  2)  6.053047
   C (  3)  3.200200  2.899571
   C (  4)  2.397915  4.259680  1.506571
   C (  5)  4.632534  1.976500  1.533525  2.477098
   H (  6)  3.278663  3.049685  1.092329  2.144961  2.161573
   H (  7)  3.280501  3.047661  1.092322  2.144983  2.161559  1.766345
   H (  8)  2.791716  4.708233  2.218189  1.086690  2.876863  3.095523
   H (  9)  2.792212  4.708415  2.218124  1.086822  2.875188  2.525965
   H ( 10)  5.005499  2.499710  2.195689  2.770214  1.090258  3.085126
   H ( 11)  5.005225  2.500078  2.195838  2.771796  1.090332  2.523933
             H (  7)   H (  8)   H (  9)   H ( 10)
   H (  8)  2.525102
   H (  9)  3.095728  1.814243
   H ( 10)  2.524887  2.742021  3.276251
   H ( 11)  3.085188  3.280721  2.741641  1.780825
 
 Applying Cartesian multipole field
    Component          Value
    ---------          -----
     (2,0,0)        1.00000E-11
     (0,2,0)        2.00000E-10
     (0,0,2)       -3.00000E-10
 Nucleus-field energy     =     0.0000000463 hartrees
 Requested basis set is 6-31G(d,p)
 There are 46 shells and 145 basis functions
 A cutoff of  1.0D-14 yielded    951 shell pairs
 There are      9192 function pairs
 Smallest overlap matrix eigenvalue = 7.23E-04
 Guess from superposition of atomic densities
 Warning:  Energy on first SCF cycle will be non-variational
 SAD guess density has 93.945746 electrons

 -----------------------------------------------------------------------
  General SCF calculation program by
  Eric Jon Sundstrom, Paul Horn, Yuezhi Mao, Dmitri Zuev, Alec White,
  David Stuck, Shaama M.S., Shane Yost, Joonho Lee, David Small,
  Daniel Levine, Susi Lehtola, Hugh Burton, Evgeny Epifanovsky
 -----------------------------------------------------------------------
 Exchange:     0.2000 Hartree-Fock + 0.0800 Slater + 0.7200 B88
 Correlation:  0.1900 VWN1RPA + 0.8100 LYP
 Using SG-1 standard quadrature grid
 using 12 threads for integral computing
 -------------------------------------------------------
 OpenMP Integral computing Module                
 Release: version 1.0, May 2013, Q-Chem Inc. Pittsburgh 
 -------------------------------------------------------
 -------------------------------------------------------
 OpenMP BLAS3 based DFT computing Module                
 Release: version 1.0, May 2013, Q-Chem Inc. Pittsburgh 
 -------------------------------------------------------
 A unrestricted SCF calculation will be
 performed using DIIS
 SCF converges when DIIS error is below 1.0e-06
 Alpha HF Exchange    Energy = -19.61869382249083
 Beta HF Exchange     Energy = -19.61869382249083
 DFT Correlation      Energy =  -5.20387988920823
 DFT Exchange         Energy = -155.88544168407876
 One-Electron (alpha) Energy = -4125.56028739418616
 One-Electron (beta)  Energy = -4125.56028739418616
 Total Coulomb        Energy = 2709.71828242088213
 ---------------------------------------
  Cycle       Energy         DIIS error
 ---------------------------------------
    1   -5272.6307030980      1.83e-01  
 Alpha HF Exchange    Energy = -19.72933369512744
 Beta HF Exchange     Energy = -19.72933369512743
 DFT Correlation      Energy =  -5.25222933916984
 DFT Exchange         Energy = -157.02801673532102
 One-Electron (alpha) Energy = -4135.72337798199169
 One-Electron (beta)  Energy = -4135.72337798198987
 Total Coulomb        Energy = 2738.52594968990661
    2   -5265.5614212511      1.03e-02  
 Alpha HF Exchange    Energy = -19.59282053479066
 Beta HF Exchange     Energy = -19.59282053479066
 DFT Correlation      Energy =  -5.22098073650380
 DFT Exchange         Energy = -155.96369692514614
 One-Electron (alpha) Energy = -4119.53971613960039
 One-Electron (beta)  Energy = -4119.53971613960039
 Total Coulomb        Energy = 2704.83865460138122
    3   -5265.5127979213      4.53e-03  
 Alpha HF Exchange    Energy = -19.70347498178928
 Beta HF Exchange     Energy = -19.70347498178926
 DFT Correlation      Energy =  -5.23969497357055
 DFT Exchange         Energy = -156.78950173219255
 One-Electron (alpha) Energy = -4133.55460087285155
 One-Electron (beta)  Energy = -4133.55460087284882
 Total Coulomb        Energy = 2733.94200578583150
    4   -5265.5050441415      4.17e-03  
 Alpha HF Exchange    Energy = -19.66763363403199
 Beta HF Exchange     Energy = -19.66763363403200
 DFT Correlation      Energy =  -5.23862336232578
 DFT Exchange         Energy = -156.54959267601345
 One-Electron (alpha) Energy = -4128.55709016940182
 One-Electron (beta)  Energy = -4128.55709016940637
 Total Coulomb        Energy = 2723.46260676361590
    5   -5265.6767583939      1.08e-03  
 Alpha HF Exchange    Energy = -19.65853724567967
 Beta HF Exchange     Energy = -19.65853724567969
 DFT Correlation      Energy =  -5.23466857921082
 DFT Exchange         Energy = -156.46877634818179
 One-Electron (alpha) Energy = -4127.99872487687298
 One-Electron (beta)  Energy = -4127.99872487687662
 Total Coulomb        Energy = 2722.22977289037135
    6   -5265.6898977944      1.57e-04  
 Alpha HF Exchange    Energy = -19.65823418190212
 Beta HF Exchange     Energy = -19.65823418190210
 DFT Correlation      Energy =  -5.23474350188550
 DFT Exchange         Energy = -156.46773339718899
 One-Electron (alpha) Energy = -4127.85016656794505
 One-Electron (beta)  Energy = -4127.85016656794323
 Total Coulomb        Energy = 2721.93079445479361
    7   -5265.6901854562      7.21e-05  
 Alpha HF Exchange    Energy = -19.65872641059685
 Beta HF Exchange     Energy = -19.65872641059690
 DFT Correlation      Energy =  -5.23478845475831
 DFT Exchange         Energy = -156.47125075709903
 One-Electron (alpha) Energy = -4127.93119196388943
 One-Electron (beta)  Energy = -4127.93119196389580
 Total Coulomb        Energy = 2722.09733084911340
    8   -5265.6902466240      2.10e-05  
 Alpha HF Exchange    Energy = -19.65881352174855
 Beta HF Exchange     Energy = -19.65881352174856
 DFT Correlation      Energy =  -5.23483358452795
 DFT Exchange         Energy = -156.47191676766226
 One-Electron (alpha) Energy = -4127.94445547236501
 One-Electron (beta)  Energy = -4127.94445547236683
 Total Coulomb        Energy = 2722.12473802847944
    9   -5265.6902518242      3.52e-06  
 Alpha HF Exchange    Energy = -19.65881173427386
 Beta HF Exchange     Energy = -19.65881173427384
 DFT Correlation      Energy =  -5.23483166678600
 DFT Exchange         Energy = -156.47188988154335
 One-Electron (alpha) Energy = -4127.94487778994971
 One-Electron (beta)  Energy = -4127.94487778994608
 Total Coulomb        Energy = 2722.12555017175282
   10   -5265.6902519373      1.58e-06  
 Alpha HF Exchange    Energy = -19.65881334047462
 Beta HF Exchange     Energy = -19.65881334047464
 DFT Correlation      Energy =  -5.23483210704686
 DFT Exchange         Energy = -156.47190449007525
 One-Electron (alpha) Energy = -4127.94484004291098
 One-Electron (beta)  Energy = -4127.94484004291280
 Total Coulomb        Energy = 2722.12549291419600
   11   -5265.6902519620      1.45e-07  Convergence criterion met
 ---------------------------------------
 SCF time:   CPU 42.67s  wall 4.00s 
<S^2> =         -0.000000000
 Alpha HF Exchange    Energy = -19.65881334047462
 Beta HF Exchange     Energy = -19.65881334047464
 DFT Correlation      Energy =  -5.23483210704686
 DFT Exchange         Energy = -156.47190449007525
 One-Electron (alpha) Energy = -4127.94484004291098
 One-Electron (beta)  Energy = -4127.94484004291280
 Total Coulomb        Energy = 2722.12549291419600
 Nuclear repulsion Energy = 469.09829848774262
 SCF   energy in the final basis set =    -5265.6902519620
 Total energy in the final basis set =    -5265.6902519620
 
 --------------------------------------------------------------
 
                    Orbital Energies (a.u.)
 --------------------------------------------------------------
 
 Alpha MOs
 -- Occupied --
*******-482.844 -62.525 -62.501 -56.346 -56.342 -56.342 -56.322
-56.319 -56.319 -10.286 -10.271 -10.232  -8.712  -8.687  -6.542
 -6.529  -6.529  -6.517  -6.504  -6.504  -2.636  -2.632  -2.632
 -2.621  -2.621  -2.610  -2.607  -2.606  -2.597  -2.597  -0.854
 -0.792  -0.736  -0.683  -0.629  -0.521  -0.460  -0.458  -0.442
 -0.386  -0.384  -0.328  -0.293  -0.292  -0.273  -0.273
 -- Virtual --
 -0.105  -0.011   0.069   0.099   0.101   0.126   0.141   0.171
  0.178   0.206   0.228   0.240   0.324   0.332   0.340   0.349
  0.352   0.358   0.447   0.464   0.473   0.490   0.539   0.548
  0.569   0.573   0.612   0.617   0.628   0.629   0.669   0.748
  0.755   0.782   0.791   0.825   0.831   0.844   0.871   0.892
  0.893   0.924   1.091   1.094   1.285   1.293   1.361   1.511
  1.574   1.623   1.626   1.717   1.747   1.799   1.836   1.922
  1.968   2.035   2.037   2.087   2.171   2.181   2.203   2.280
  2.284   2.405   2.443   2.507   2.596   2.597   2.694   2.755
  2.770   2.787   2.843   3.176   3.216   3.318   3.324   3.452
  3.489   4.191   4.363   4.562   4.712   4.727   4.734   4.738
  4.758   4.763   4.794   4.798   4.900   4.969   6.284   6.291
 90.267  90.342
 
 Beta MOs
 -- Occupied --
*******-482.844 -62.525 -62.501 -56.346 -56.342 -56.342 -56.322
-56.319 -56.319 -10.286 -10.271 -10.232  -8.712  -8.687  -6.542
 -6.529  -6.529  -6.517  -6.504  -6.504  -2.636  -2.632  -2.632
 -2.621  -2.621  -2.610  -2.607  -2.606  -2.597  -2.597  -0.854
 -0.792  -0.736  -0.683  -0.629  -0.521  -0.460  -0.458  -0.442
 -0.386  -0.384  -0.328  -0.293  -0.292  -0.273  -0.273
 -- Virtual --
 -0.105  -0.011   0.069   0.099   0.101   0.126   0.141   0.171
  0.178   0.206   0.228   0.240   0.324   0.332   0.340   0.349
  0.352   0.358   0.447   0.464   0.473   0.490   0.539   0.548
  0.569   0.573   0.612   0.617   0.628   0.629   0.669   0.748
  0.755   0.782   0.791   0.825   0.831   0.844   0.871   0.892
  0.893   0.924   1.091   1.094   1.285   1.293   1.361   1.511
  1.574   1.623   1.626   1.717   1.747   1.799   1.836   1.922
  1.968   2.035   2.037   2.087   2.171   2.181   2.203   2.280
  2.284   2.405   2.443   2.507   2.596   2.597   2.694   2.755
  2.770   2.787   2.843   3.176   3.216   3.318   3.324   3.452
  3.489   4.191   4.363   4.562   4.712   4.727   4.734   4.738
  4.758   4.763   4.794   4.798   4.900   4.969   6.284   6.291
 90.267  90.342
 --------------------------------------------------------------
 
          Ground-State Mulliken Net Atomic Charges

     Atom                 Charge (a.u.)    Spin (a.u.)
  --------------------------------------------------------
      1 Br                   -0.232880       0.000000
      2 Br                   -0.085209       0.000000
      3 C                    -0.189435       0.000000
      4 C                    -0.207165       0.000000
      5 C                    -0.269367       0.000000
      6 H                     0.159425      -0.000000
      7 H                     0.159403      -0.000000
      8 H                     0.172421      -0.000000
      9 H                     0.172326      -0.000000
     10 H                     0.160221       0.000000
     11 H                     0.160261      -0.000000
  --------------------------------------------------------
  Sum of atomic charges =    -0.000000
  Sum of spin   charges =     0.000000

 -----------------------------------------------------------------
                    Cartesian Multipole Moments
 -----------------------------------------------------------------
    Charge (ESU x 10^10)
                 0.0000
    Dipole Moment (Debye)
         X       1.4840      Y      -2.6761      Z      -0.0691
       Tot       3.0608
    Quadrupole Moments (Debye-Ang)
        XX     -71.7781     XY       1.4857     YY     -54.7559
        XZ       0.0669     YZ      -0.0018     ZZ     -55.9581
    Octopole Moments (Debye-Ang^2)
       XXX      32.7317    XXY     -15.7296    XYY       5.5065
       YYY     -45.9580    XXZ      -1.2676    XYZ       0.0140
       YYZ      -0.9459    XZZ       5.1475    YZZ     -17.2508
       ZZZ      -3.3259
    Hexadecapole Moments (Debye-Ang^3)
      XXXX   -2324.0910   XXXY      42.7555   XXYY    -392.5616
      XYYY      35.1764   YYYY    -203.9455   XXXZ       2.0468
      XXYZ      -0.0311   XYYZ       0.5370   YYYZ      -2.3195
      XXZZ    -399.1131   XYZZ      11.8910   YYZZ     -45.1214
      XZZZ       1.7386   YZZZ      -1.9446   ZZZZ     -83.9673
 -----------------------------------------------------------------
 Calculating analytic gradient of the SCF energy
 Gradient of SCF Energy
            1           2           3           4           5           6
    1  -0.0372393   0.0003147   0.0033716   0.0297627  -0.0003314  -0.0001027
    2   0.0258290   0.0000169  -0.0018185  -0.0221898   0.0009030   0.0000812
    3   0.0007438   0.0000094  -0.0000380  -0.0006430   0.0000413  -0.0000391
            7           8           9          10          11
    1  -0.0000625   0.0021229   0.0021677  -0.0000008  -0.0000029
    2   0.0000461  -0.0013951  -0.0014347  -0.0000183  -0.0000198
    3   0.0000168   0.0003502  -0.0004452  -0.0000212   0.0000249
 Max gradient component =       3.724E-02
 RMS gradient           =       1.024E-02
 Gradient time:  CPU 15.61 s  wall 1.38 s
 Geometry Optimization Parameters
   NAtoms,    NIC,     NZ,  NCons,   NDum,   NFix, NCnnct, MaxDiis
       11      68       0       1       0       0       0       0

 Cartesian Hessian Update
 Hessian Updated using BFGS Update


** CONSTRAINED OPTIMIZATION IN DELOCALIZED INTERNAL COORDINATES **
   Searching for a Minimum

   Optimization Cycle:   2

                       Coordinates (Angstroms)
     ATOM                X               Y               Z
      1  Br       -3.1460894828    0.6682203576    0.0308870461
      2  Br        2.9053294238    0.5280131536    0.0234870531
      3  C         0.0223288612    0.2185234580    0.0175630006
      4  C        -1.1745391319   -0.6961813198   -0.0064738695
      5  C         1.3015881943   -0.6269072419   -0.0034718482
      6  H         0.0060007448    0.8382697251    0.9169130275
      7  H         0.0069059436    0.8835463395   -0.8488517517
      8  H        -1.3518506959   -1.2433252268   -0.9284767823
      9  H        -1.3506780927   -1.2922019362    0.8851076424
     10  H         1.3900560441   -1.2279361826   -0.9087889623
     11  H         1.3908491916   -1.2713201264    0.8715074444
   Point Group: c1    Number of degrees of freedom:    27


   Energy is  -5265.690251962

              Constraints and their Current Values
                                        Value     Constraint
   Distance(Angs):        1   4             2.397915     2.400000
 Hessian Updated using BFGS Update

   Using Lagrange Multiplier Algorithm


 26 Hessian modes will be used to form the next step
  Hessian Eigenvalues:
    -0.988661    0.045000    0.045000    0.071030    0.079101    0.082541
     0.083179    0.085607    0.087833    0.099193    0.128649    0.159987
     0.160000    0.165253    0.220455    0.221945    0.223910    0.291312
     0.323570    0.345446    0.345454    0.347751    0.347835    0.351792
     0.351946    1.012173

 Minimum Search - Taking P-RFO Step
 Searching for Lamda that Maximizes Along the Constraint modes Only
 Value Taken    Lamda =   0.00000633
 Searching for Lamda that Minimizes Along All other modes
 Value Taken    Lamda =  -0.00024108
 Step Taken.  Stepsize is  0.040356

                             Maximum     Tolerance    Cnvgd?
         Gradient            0.007436       0.000300      NO
         Displacement        0.032124       0.001200      NO
         Energy change      0.008016       0.000001      NO


 New Cartesian Coordinates Obtained by Inverse Iteration

 Displacement from previous Coordinates is:  0.026584
 ----------------------------------------------------------------
             Standard Nuclear Orientation (Angstroms)
    I     Atom           X                Y                Z
 ----------------------------------------------------------------
    1      Br     -3.1388208170     0.6690430357     0.0299648367
    2      Br      2.9030599347     0.5306142610     0.0232834112
    3      C       0.0219736511     0.2182906565     0.0178415760
    4      C      -1.1682949144    -0.7005212995    -0.0063292658
    5      C       1.3021860606    -0.6270564305    -0.0035909872
    6      H       0.0045669804     0.8376972174     0.9173843858
    7      H       0.0052567289     0.8832041614    -0.8486047035
    8      H      -1.3570110020    -1.2423889704    -0.9290911818
    9      H      -1.3564156110    -1.2909375336     0.8864140595
   10      H       1.3910961827    -1.2277108237    -0.9090802604
   11      H       1.3923038057    -1.2715332742     0.8712101295
 ----------------------------------------------------------------
 Nuclear Repulsion Energy =   469.5228382811 hartrees
 There are       47 alpha and       47 beta electrons

                       Distance Matrix (Angstroms)
             Br(  1)   Br(  2)   C (  3)   C (  4)   C (  5)   H (  6)
   Br(  2)  6.043470
   C (  3)  3.192796  2.897971
   C (  4)  2.399999  4.253528  1.503841
   C (  5)  4.626396  1.975784  1.534280  2.471575
   H (  6)  3.270603  3.048767  1.092312  2.143588  2.162756
   H (  7)  3.271540  3.046600  1.092300  2.143557  2.162628  1.766575
   H (  8)  2.783560  4.711556  2.220780  1.086611  2.882102  3.096793
   H (  9)  2.784241  4.712343  2.220843  1.086725  2.881147  2.526721
   H ( 10)  4.999963  2.499409  2.196497  2.764665  1.090230  3.086154
   H ( 11)  5.000462  2.499820  2.196729  2.766369  1.090297  2.525232
             H (  7)   H (  8)   H (  9)   H ( 10)
   H (  8)  2.525945
   H (  9)  3.096988  1.816154
   H ( 10)  2.525900  2.748219  3.282776
   H ( 11)  3.086188  3.286437  2.748830  1.780830
 
 Applying Cartesian multipole field
    Component          Value
    ---------          -----
     (2,0,0)        1.00000E-11
     (0,2,0)        2.00000E-10
     (0,0,2)       -3.00000E-10
 Nucleus-field energy     =     0.0000000464 hartrees
 Requested basis set is 6-31G(d,p)
 There are 46 shells and 145 basis functions
 A cutoff of  1.0D-14 yielded    951 shell pairs
 There are      9192 function pairs
 Smallest overlap matrix eigenvalue = 7.23E-04
 Guess from superposition of atomic densities
 Warning:  Energy on first SCF cycle will be non-variational
 SAD guess density has 93.945746 electrons

 -----------------------------------------------------------------------
  General SCF calculation program by
  Eric Jon Sundstrom, Paul Horn, Yuezhi Mao, Dmitri Zuev, Alec White,
  David Stuck, Shaama M.S., Shane Yost, Joonho Lee, David Small,
  Daniel Levine, Susi Lehtola, Hugh Burton, Evgeny Epifanovsky
 -----------------------------------------------------------------------
 Exchange:     0.2000 Hartree-Fock + 0.0800 Slater + 0.7200 B88
 Correlation:  0.1900 VWN1RPA + 0.8100 LYP
 Using SG-1 standard quadrature grid
 using 12 threads for integral computing
 -------------------------------------------------------
 OpenMP Integral computing Module                
 Release: version 1.0, May 2013, Q-Chem Inc. Pittsburgh 
 -------------------------------------------------------
 -------------------------------------------------------
 OpenMP BLAS3 based DFT computing Module                
 Release: version 1.0, May 2013, Q-Chem Inc. Pittsburgh 
 -------------------------------------------------------
 A unrestricted SCF calculation will be
 performed using DIIS
 SCF converges when DIIS error is below 1.0e-06
 Alpha HF Exchange    Energy = -19.61897325333489
 Beta HF Exchange     Energy = -19.61897325333489
 DFT Correlation      Energy =  -5.20397021542274
 DFT Exchange         Energy = -155.88599648159769
 One-Electron (alpha) Energy = -4125.98346361708172
 One-Electron (beta)  Energy = -4125.98346361708172
 Total Coulomb        Energy = 2710.13773477072527
 ---------------------------------------
  Cycle       Energy         DIIS error
 ---------------------------------------
    1   -5272.6342673396      1.83e-01  
 Alpha HF Exchange    Energy = -19.72958225216910
 Beta HF Exchange     Energy = -19.72958225216909
 DFT Correlation      Energy =  -5.25233392561651
 DFT Exchange         Energy = -157.02962880533869
 One-Electron (alpha) Energy = -4136.17369134032015
 One-Electron (beta)  Energy = -4136.17369134032015
 Total Coulomb        Energy = 2739.00497717439248
    2   -5265.5606944141      1.03e-02  
 Alpha HF Exchange    Energy = -19.59280559593159
 Beta HF Exchange     Energy = -19.59280559593157
 DFT Correlation      Energy =  -5.22109837804359
 DFT Exchange         Energy = -155.96377672310700
 One-Electron (alpha) Energy = -4119.92816761882023
 One-Electron (beta)  Energy = -4119.92816761881932
 Total Coulomb        Energy = 2705.19506886302088
    3   -5265.5089143401      4.57e-03  
 Alpha HF Exchange    Energy = -19.70362076956878
 Beta HF Exchange     Energy = -19.70362076956878
 DFT Correlation      Energy =  -5.23970956368636
 DFT Exchange         Energy = -156.79000367340086
 One-Electron (alpha) Energy = -4133.99873157839920
 One-Electron (beta)  Energy = -4133.99873157839920
 Total Coulomb        Energy = 2734.40999652176515
    4   -5265.5015830838      4.20e-03  
 Alpha HF Exchange    Energy = -19.66782496246299
 Beta HF Exchange     Energy = -19.66782496246296
 DFT Correlation      Energy =  -5.23874773930540
 DFT Exchange         Energy = -156.55108255560918
 One-Electron (alpha) Energy = -4128.99878464699577
 One-Electron (beta)  Energy = -4128.99878464699214
 Total Coulomb        Energy = 2723.92340811701115
    5   -5265.6768030693      1.08e-03  
 Alpha HF Exchange    Energy = -19.65860948259269
 Beta HF Exchange     Energy = -19.65860948259267
 DFT Correlation      Energy =  -5.23474469344617
 DFT Exchange         Energy = -156.46922285586396
 One-Electron (alpha) Energy = -4128.42693541682820
 One-Electron (beta)  Energy = -4128.42693541682638
 Total Coulomb        Energy = 2722.66238813792552
    6   -5265.6898308827      1.63e-04  
 Alpha HF Exchange    Energy = -19.65834794996055
 Beta HF Exchange     Energy = -19.65834794996056
 DFT Correlation      Energy =  -5.23484156788336
 DFT Exchange         Energy = -156.46857632165984
 One-Electron (alpha) Energy = -4128.28011785800300
 One-Electron (beta)  Energy = -4128.28011785800663
 Total Coulomb        Energy = 2722.36736860967994
    7   -5265.6901425683      7.33e-05  
 Alpha HF Exchange    Energy = -19.65884893625680
 Beta HF Exchange     Energy = -19.65884893625677
 DFT Correlation      Energy =  -5.23488787847073
 DFT Exchange         Energy = -156.47215557443457
 One-Electron (alpha) Energy = -4128.36239044136801
 One-Electron (beta)  Energy = -4128.36239044136528
 Total Coulomb        Energy = 2722.53647834013600
    8   -5265.6902055405      2.13e-05  
 Alpha HF Exchange    Energy = -19.65893601606905
 Beta HF Exchange     Energy = -19.65893601606906
 DFT Correlation      Energy =  -5.23493274827859
 DFT Exchange         Energy = -156.47281798884785
 One-Electron (alpha) Energy = -4128.37577647723447
 One-Electron (beta)  Energy = -4128.37577647723629
 Total Coulomb        Energy = 2722.56412647851312
    9   -5265.6902109177      3.54e-06  
 Alpha HF Exchange    Energy = -19.65893419230207
 Beta HF Exchange     Energy = -19.65893419230208
 DFT Correlation      Energy =  -5.23493089299586
 DFT Exchange         Energy = -156.47279088513460
 One-Electron (alpha) Energy = -4128.37619212555546
 One-Electron (beta)  Energy = -4128.37619212555546
 Total Coulomb        Energy = 2722.56492505505457
   10   -5265.6902110313      1.61e-06  
 Alpha HF Exchange    Energy = -19.65893591321353
 Beta HF Exchange     Energy = -19.65893591321350
 DFT Correlation      Energy =  -5.23493131785650
 DFT Exchange         Energy = -156.47280629547370
 One-Electron (alpha) Energy = -4128.37617055015835
 One-Electron (beta)  Energy = -4128.37617055015289
 Total Coulomb        Energy = 2722.56490115581937
   11   -5265.6902110568      1.51e-07  Convergence criterion met
 ---------------------------------------
 SCF time:   CPU 43.32s  wall 4.00s 
<S^2> =          0.000000000
 Alpha HF Exchange    Energy = -19.65893591321353
 Beta HF Exchange     Energy = -19.65893591321350
 DFT Correlation      Energy =  -5.23493131785650
 DFT Exchange         Energy = -156.47280629547370
 One-Electron (alpha) Energy = -4128.37617055015835
 One-Electron (beta)  Energy = -4128.37617055015289
 Total Coulomb        Energy = 2722.56490115581937
 Nuclear repulsion Energy = 469.52283832749100
 SCF   energy in the final basis set =    -5265.6902110568
 Total energy in the final basis set =    -5265.6902110568
 
 --------------------------------------------------------------
 
                    Orbital Energies (a.u.)
 --------------------------------------------------------------
 
 Alpha MOs
 -- Occupied --
*******-482.843 -62.525 -62.500 -56.346 -56.342 -56.342 -56.322
-56.318 -56.318 -10.286 -10.271 -10.232  -8.712  -8.686  -6.542
 -6.529  -6.529  -6.516  -6.504  -6.504  -2.636  -2.632  -2.632
 -2.622  -2.621  -2.609  -2.606  -2.606  -2.596  -2.596  -0.854
 -0.793  -0.736  -0.683  -0.630  -0.522  -0.460  -0.459  -0.442
 -0.386  -0.384  -0.327  -0.293  -0.292  -0.273  -0.273
 -- Virtual --
 -0.105  -0.011   0.069   0.099   0.101   0.126   0.140   0.172
  0.178   0.207   0.228   0.240   0.324   0.332   0.340   0.350
  0.353   0.359   0.447   0.464   0.472   0.491   0.539   0.550
  0.569   0.574   0.613   0.617   0.628   0.629   0.668   0.749
  0.755   0.782   0.790   0.824   0.831   0.843   0.870   0.892
  0.893   0.924   1.091   1.100   1.284   1.291   1.363   1.511
  1.569   1.625   1.625   1.716   1.749   1.799   1.836   1.925
  1.964   2.035   2.036   2.087   2.169   2.180   2.203   2.283
  2.287   2.408   2.443   2.504   2.596   2.596   2.696   2.752
  2.768   2.790   2.843   3.176   3.216   3.320   3.325   3.452
  3.488   4.192   4.363   4.562   4.712   4.727   4.735   4.739
  4.758   4.764   4.795   4.798   4.901   4.969   6.284   6.292
 90.269  90.342
 
 Beta MOs
 -- Occupied --
*******-482.843 -62.525 -62.500 -56.346 -56.342 -56.342 -56.322
-56.318 -56.318 -10.286 -10.271 -10.232  -8.712  -8.686  -6.542
 -6.529  -6.529  -6.516  -6.504  -6.504  -2.636  -2.632  -2.632
 -2.622  -2.621  -2.609  -2.606  -2.606  -2.596  -2.596  -0.854
 -0.793  -0.736  -0.683  -0.630  -0.522  -0.460  -0.459  -0.442
 -0.386  -0.384  -0.327  -0.293  -0.292  -0.273  -0.273
 -- Virtual --
 -0.105  -0.011   0.069   0.099   0.101   0.126   0.140   0.172
  0.178   0.207   0.228   0.240   0.324   0.332   0.340   0.350
  0.353   0.359   0.447   0.464   0.472   0.491   0.539   0.550
  0.569   0.574   0.613   0.617   0.628   0.629   0.668   0.749
  0.755   0.782   0.790   0.824   0.831   0.843   0.870   0.892
  0.893   0.924   1.091   1.100   1.284   1.291   1.363   1.511
  1.569   1.625   1.625   1.716   1.749   1.799   1.836   1.925
  1.964   2.035   2.036   2.087   2.169   2.180   2.203   2.283
  2.287   2.408   2.443   2.504   2.596   2.596   2.696   2.752
  2.768   2.790   2.843   3.176   3.216   3.320   3.325   3.452
  3.488   4.192   4.363   4.562   4.712   4.727   4.735   4.739
  4.758   4.764   4.795   4.798   4.901   4.969   6.284   6.292
 90.269  90.342
 --------------------------------------------------------------
 
          Ground-State Mulliken Net Atomic Charges

     Atom                 Charge (a.u.)    Spin (a.u.)
  --------------------------------------------------------
      1 Br                   -0.236641      -0.000000
      2 Br                   -0.085204       0.000000
      3 C                    -0.188939      -0.000000
      4 C                    -0.207274       0.000000
      5 C                    -0.269781       0.000000
      6 H                     0.159947       0.000000
      7 H                     0.159967      -0.000000
      8 H                     0.173580      -0.000000
      9 H                     0.173496      -0.000000
     10 H                     0.160406      -0.000000
     11 H                     0.160444       0.000000
  --------------------------------------------------------
  Sum of atomic charges =     0.000000
  Sum of spin   charges =    -0.000000

 -----------------------------------------------------------------
                    Cartesian Multipole Moments
 -----------------------------------------------------------------
    Charge (ESU x 10^10)
                 0.0000
    Dipole Moment (Debye)
         X       1.5083      Y      -2.6971      Z      -0.0681
       Tot       3.0909
    Quadrupole Moments (Debye-Ang)
        XX     -71.8695     XY       1.5432     YY     -54.7495
        XZ       0.0657     YZ      -0.0025     ZZ     -55.9441
    Octopole Moments (Debye-Ang^2)
       XXX      32.7929    XXY     -15.9950    XYY       5.4286
       YYY     -46.0982    XXZ      -1.2496    XYZ       0.0179
       YYZ      -0.9264    XZZ       5.0262    YZZ     -17.3144
       ZZZ      -3.2665
    Hexadecapole Moments (Debye-Ang^3)
      XXXX   -2319.6654   XXXY      42.9697   XXYY    -391.5566
      XYYY      34.8485   YYYY    -204.5280   XXXZ       1.9399
      XXYZ      -0.0406   XYYZ       0.4979   YYYZ      -2.2886
      XXZZ    -397.9813   XYZZ      11.7900   YYZZ     -45.2092
      XZZZ       1.6041   YZZZ      -1.9091   ZZZZ     -83.9425
 -----------------------------------------------------------------
 Calculating analytic gradient of the SCF energy
 Gradient of SCF Energy
            1           2           3           4           5           6
    1  -0.0365159   0.0000094   0.0020317   0.0325614  -0.0004732  -0.0001039
    2   0.0254932  -0.0000371  -0.0010641  -0.0228414   0.0004006   0.0001773
    3   0.0007063   0.0000057  -0.0000224  -0.0006147   0.0000345  -0.0000443
            7           8           9          10          11
    1  -0.0000598   0.0012030   0.0012440   0.0000518   0.0000515
    2   0.0001390  -0.0010736  -0.0011277  -0.0000318  -0.0000344
    3   0.0000285   0.0002052  -0.0002954  -0.0000084   0.0000050
 Max gradient component =       3.652E-02
 RMS gradient           =       1.041E-02
 Gradient time:  CPU 15.61 s  wall 1.38 s
 Geometry Optimization Parameters
   NAtoms,    NIC,     NZ,  NCons,   NDum,   NFix, NCnnct, MaxDiis
       11      68       0       1       0       0       0       0

 Cartesian Hessian Update
 Hessian Updated using BFGS Update


** CONSTRAINED OPTIMIZATION IN DELOCALIZED INTERNAL COORDINATES **
   Searching for a Minimum

   Optimization Cycle:   3

                       Coordinates (Angstroms)
     ATOM                X               Y               Z
      1  Br       -3.1388208170    0.6690430357    0.0299648367
      2  Br        2.9030599347    0.5306142610    0.0232834112
      3  C         0.0219736511    0.2182906565    0.0178415760
      4  C        -1.1682949144   -0.7005212995   -0.0063292658
      5  C         1.3021860606   -0.6270564305   -0.0035909872
      6  H         0.0045669804    0.8376972174    0.9173843858
      7  H         0.0052567289    0.8832041614   -0.8486047035
      8  H        -1.3570110020   -1.2423889704   -0.9290911818
      9  H        -1.3564156110   -1.2909375336    0.8864140595
     10  H         1.3910961827   -1.2277108237   -0.9090802604
     11  H         1.3923038057   -1.2715332742    0.8712101295
   Point Group: c1    Number of degrees of freedom:    27


   Energy is  -5265.690211057

              Constraints and their Current Values
                                        Value     Constraint
   Distance(Angs):        1   4             2.399999     2.400000
 Hessian Updated using BFGS Update

   Using Lagrange Multiplier Algorithm


 27 Hessian modes will be used to form the next step
  Hessian Eigenvalues:
    -0.986463    0.038165    0.045000    0.045374    0.071030    0.079123
     0.082660    0.083180    0.085611    0.099119    0.128649    0.158710
     0.159994    0.160000    0.162916    0.220573    0.222026    0.233267
     0.289638    0.317075    0.345449    0.345597    0.347748    0.347834
     0.351851    0.352494    1.014627

 Minimum Search - Taking P-RFO Step
 Searching for Lamda that Maximizes Along the Constraint modes Only
 Value Taken    Lamda =   0.00000000
 Searching for Lamda that Minimizes Along All other modes
 Value Taken    Lamda =  -0.00014826
 Step Taken.  Stepsize is  0.061084

                             Maximum     Tolerance    Cnvgd?
         Gradient            0.001854       0.000300      NO
         Displacement        0.048298       0.001200      NO
         Energy change      0.000041       0.000001      NO


 New Cartesian Coordinates Obtained by Inverse Iteration

 Displacement from previous Coordinates is:  0.046641
 ----------------------------------------------------------------
             Standard Nuclear Orientation (Angstroms)
    I     Atom           X                Y                Z
 ----------------------------------------------------------------
    1      Br     -3.1284403077     0.6692383321     0.0279714445
    2      Br      2.9031015908     0.5360578003     0.0230014655
    3      C       0.0210607298     0.2157686857     0.0183350325
    4      C      -1.1625145851    -0.7069819856    -0.0059884213
    5      C       1.3054645007    -0.6265257512    -0.0038846856
    6      H       0.0026430322     0.8336872866     0.9186076128
    7      H       0.0027876240     0.8798273037    -0.8484465818
    8      H      -1.3676772887    -1.2387877108    -0.9304703865
    9      H      -1.3681739942    -1.2863334758     0.8894654277
   10      H       1.3948481616    -1.2262301287    -0.9098638886
   11      H       1.3968015367    -1.2710193564     0.8706749806
 ----------------------------------------------------------------
 Nuclear Repulsion Energy =   469.9492566374 hartrees
 There are       47 alpha and       47 beta electrons

                       Distance Matrix (Angstroms)
             Br(  1)   Br(  2)   C (  3)   C (  4)   C (  5)   H (  6)
   Br(  2)  6.033014
   C (  3)  3.181994  2.899787
   C (  4)  2.400000  4.251497  1.500970
   C (  5)  4.619473  1.976048  1.536114  2.469291
   H (  6)  3.259442  3.050140  1.092087  2.141526  2.163460
   H (  7)  3.258381  3.047855  1.092071  2.141408  2.163181  1.767656
   H (  8)  2.767573  4.722154  2.223637  1.086083  2.894670  3.097099
   H (  9)  2.768568  4.723946  2.223770  1.086177  2.895128  2.524773
   H ( 10)  4.993243  2.500145  2.197318  2.761651  1.090153  3.086228
   H ( 11)  4.995254  2.500604  2.197654  2.763472  1.090215  2.525028
             H (  7)   H (  8)   H (  9)   H ( 10)
   H (  8)  2.524566
   H (  9)  3.097116  1.820557
   H ( 10)  2.525289  2.762631  3.297801
   H ( 11)  3.086227  3.299622  2.765082  1.781103
 
 Applying Cartesian multipole field
    Component          Value
    ---------          -----
     (2,0,0)        1.00000E-11
     (0,2,0)        2.00000E-10
     (0,0,2)       -3.00000E-10
 Nucleus-field energy     =     0.0000000465 hartrees
 Requested basis set is 6-31G(d,p)
 There are 46 shells and 145 basis functions
 A cutoff of  1.0D-14 yielded    951 shell pairs
 There are      9192 function pairs
 Smallest overlap matrix eigenvalue = 7.23E-04
 Guess from superposition of atomic densities
 Warning:  Energy on first SCF cycle will be non-variational
 SAD guess density has 93.945746 electrons

 -----------------------------------------------------------------------
  General SCF calculation program by
  Eric Jon Sundstrom, Paul Horn, Yuezhi Mao, Dmitri Zuev, Alec White,
  David Stuck, Shaama M.S., Shane Yost, Joonho Lee, David Small,
  Daniel Levine, Susi Lehtola, Hugh Burton, Evgeny Epifanovsky
 -----------------------------------------------------------------------
 Exchange:     0.2000 Hartree-Fock + 0.0800 Slater + 0.7200 B88
 Correlation:  0.1900 VWN1RPA + 0.8100 LYP
 Using SG-1 standard quadrature grid
 using 12 threads for integral computing
 -------------------------------------------------------
 OpenMP Integral computing Module                
 Release: version 1.0, May 2013, Q-Chem Inc. Pittsburgh 
 -------------------------------------------------------
 -------------------------------------------------------
 OpenMP BLAS3 based DFT computing Module                
 Release: version 1.0, May 2013, Q-Chem Inc. Pittsburgh 
 -------------------------------------------------------
 A unrestricted SCF calculation will be
 performed using DIIS
 SCF converges when DIIS error is below 1.0e-06
 Alpha HF Exchange    Energy = -19.61920846121962
 Beta HF Exchange     Energy = -19.61920846121962
 DFT Correlation      Energy =  -5.20405955191619
 DFT Exchange         Energy = -155.88649760733406
 One-Electron (alpha) Energy = -4126.40828829255315
 One-Electron (beta)  Energy = -4126.40828829255315
 Total Coulomb        Energy = 2710.55908231994272
 ---------------------------------------
  Cycle       Energy         DIIS error
 ---------------------------------------
    1   -5272.6372116630      1.83e-01  
 Alpha HF Exchange    Energy = -19.72986599984810
 Beta HF Exchange     Energy = -19.72986599984810
 DFT Correlation      Energy =  -5.25244476322463
 DFT Exchange         Energy = -157.03148531279982
 One-Electron (alpha) Energy = -4136.62838490120976
 One-Electron (beta)  Energy = -4136.62838490121067
 Total Coulomb        Energy = 2739.49107044702987
    2   -5265.5601047473      1.03e-02  
 Alpha HF Exchange    Energy = -19.59279611249242
 Beta HF Exchange     Energy = -19.59279611249244
 DFT Correlation      Energy =  -5.22122991145388
 DFT Exchange         Energy = -155.96393027535311
 One-Electron (alpha) Energy = -4120.31860406385385
 One-Electron (beta)  Energy = -4120.31860406385658
 Total Coulomb        Energy = 2705.55348990460107
    3   -5265.5052139510      4.60e-03  
 Alpha HF Exchange    Energy = -19.70377688819767
 Beta HF Exchange     Energy = -19.70377688819766
 DFT Correlation      Energy =  -5.23972746131400
 DFT Exchange         Energy = -156.79058448198197
 One-Electron (alpha) Energy = -4134.44785486065393
 One-Electron (beta)  Energy = -4134.44785486065302
 Total Coulomb        Energy = 2734.88574905287987
    4   -5265.4985697043      4.23e-03  
 Alpha HF Exchange    Energy = -19.66803009304962
 Beta HF Exchange     Energy = -19.66803009304962
 DFT Correlation      Energy =  -5.23887620368803
 DFT Exchange         Energy = -156.55264764250660
 One-Electron (alpha) Energy = -4129.44293782986279
 One-Electron (beta)  Energy = -4129.44293782986279
 Total Coulomb        Energy = 2724.38718225508501
    5   -5265.6770207531      1.08e-03  
 Alpha HF Exchange    Energy = -19.65870733917343
 Beta HF Exchange     Energy = -19.65870733917344
 DFT Correlation      Energy =  -5.23482968222289
 DFT Exchange         Energy = -156.46983992104620
 One-Electron (alpha) Energy = -4128.85908824305352
 One-Electron (beta)  Energy = -4128.85908824305534
 Total Coulomb        Energy = 2723.10112242967534
    6   -5265.6898816542      1.69e-04  
 Alpha HF Exchange    Energy = -19.65848604841295
 Beta HF Exchange     Energy = -19.65848604841296
 DFT Correlation      Energy =  -5.23494773745394
 DFT Exchange         Energy = -156.46957772156415
 One-Electron (alpha) Energy = -4128.71399664123055
 One-Electron (beta)  Energy = -4128.71399664122964
 Total Coulomb        Energy = 2722.81001524896828
    7   -5265.6902189055      7.41e-05  
 Alpha HF Exchange    Energy = -19.65899630755156
 Beta HF Exchange     Energy = -19.65899630755154
 DFT Correlation      Energy =  -5.23499630443734
 DFT Exchange         Energy = -156.47322492573301
 One-Electron (alpha) Energy = -4128.79745756302327
 One-Electron (beta)  Energy = -4128.79745756302054
 Total Coulomb        Energy = 2722.98158920838614
    8   -5265.6902830791      2.16e-05  
 Alpha HF Exchange    Energy = -19.65908266719810
 Beta HF Exchange     Energy = -19.65908266719809
 DFT Correlation      Energy =  -5.23504063095099
 DFT Exchange         Energy = -156.47387841060419
 One-Electron (alpha) Energy = -4128.81085794431328
 One-Electron (beta)  Energy = -4128.81085794431056
 Total Coulomb        Energy = 2723.00925500260246
    9   -5265.6902885781      3.55e-06  
 Alpha HF Exchange    Energy = -19.65908085734959
 Beta HF Exchange     Energy = -19.65908085734960
 DFT Correlation      Energy =  -5.23503885829209
 DFT Exchange         Energy = -156.47385157220492
 One-Electron (alpha) Energy = -4128.81126970721834
 One-Electron (beta)  Energy = -4128.81126970722107
 Total Coulomb        Energy = 2723.01004618370507
   10   -5265.6902886921      1.63e-06  
 Alpha HF Exchange    Energy = -19.65908267151909
 Beta HF Exchange     Energy = -19.65908267151908
 DFT Correlation      Energy =  -5.23503926438788
 DFT Exchange         Energy = -156.47386761506914
 One-Electron (alpha) Energy = -4128.81126095908166
 One-Electron (beta)  Energy = -4128.81126095908076
 Total Coulomb        Energy = 2723.01004873858756
   11   -5265.6902887182      1.56e-07  Convergence criterion met
 ---------------------------------------
 SCF time:   CPU 43.26s  wall 4.00s 
<S^2> =         -0.000000000
 Alpha HF Exchange    Energy = -19.65908267151909
 Beta HF Exchange     Energy = -19.65908267151908
 DFT Correlation      Energy =  -5.23503926438788
 DFT Exchange         Energy = -156.47386761506914
 One-Electron (alpha) Energy = -4128.81126095908166
 One-Electron (beta)  Energy = -4128.81126095908076
 Total Coulomb        Energy = 2723.01004873858756
 Nuclear repulsion Energy = 469.94925668385866
 SCF   energy in the final basis set =    -5265.6902887182
 Total energy in the final basis set =    -5265.6902887182
 
 --------------------------------------------------------------
 
                    Orbital Energies (a.u.)
 --------------------------------------------------------------
 
 Alpha MOs
 -- Occupied --
*******-482.842 -62.525 -62.499 -56.346 -56.342 -56.342 -56.321
-56.317 -56.317 -10.287 -10.271 -10.233  -8.712  -8.685  -6.542
 -6.529  -6.529  -6.515  -6.503  -6.503  -2.636  -2.632  -2.632
 -2.622  -2.622  -2.608  -2.605  -2.605  -2.595  -2.595  -0.854
 -0.793  -0.735  -0.683  -0.630  -0.522  -0.461  -0.460  -0.443
 -0.387  -0.385  -0.326  -0.293  -0.292  -0.272  -0.272
 -- Virtual --
 -0.105  -0.011   0.069   0.098   0.101   0.126   0.140   0.173
  0.176   0.208   0.228   0.240   0.324   0.332   0.340   0.351
  0.354   0.359   0.447   0.463   0.472   0.492   0.538   0.550
  0.568   0.575   0.613   0.617   0.629   0.629   0.667   0.749
  0.756   0.783   0.790   0.825   0.830   0.842   0.868   0.892
  0.894   0.925   1.092   1.107   1.285   1.290   1.365   1.511
  1.561   1.624   1.627   1.716   1.752   1.799   1.836   1.930
  1.958   2.034   2.035   2.087   2.168   2.180   2.204   2.286
  2.292   2.414   2.443   2.499   2.595   2.597   2.696   2.749
  2.766   2.793   2.843   3.176   3.218   3.323   3.327   3.451
  3.488   4.192   4.363   4.562   4.712   4.727   4.735   4.740
  4.758   4.765   4.794   4.798   4.902   4.969   6.284   6.293
 90.272  90.342
 
 Beta MOs
 -- Occupied --
*******-482.842 -62.525 -62.499 -56.346 -56.342 -56.342 -56.321
-56.317 -56.317 -10.287 -10.271 -10.233  -8.712  -8.685  -6.542
 -6.529  -6.529  -6.515  -6.503  -6.503  -2.636  -2.632  -2.632
 -2.622  -2.622  -2.608  -2.605  -2.605  -2.595  -2.595  -0.854
 -0.793  -0.735  -0.683  -0.630  -0.522  -0.461  -0.460  -0.443
 -0.387  -0.385  -0.326  -0.293  -0.292  -0.272  -0.272
 -- Virtual --
 -0.105  -0.011   0.069   0.098   0.101   0.126   0.140   0.173
  0.176   0.208   0.228   0.240   0.324   0.332   0.340   0.351
  0.354   0.359   0.447   0.463   0.472   0.492   0.538   0.550
  0.568   0.575   0.613   0.617   0.629   0.629   0.667   0.749
  0.756   0.783   0.790   0.825   0.830   0.842   0.868   0.892
  0.894   0.925   1.092   1.107   1.285   1.290   1.365   1.511
  1.561   1.624   1.627   1.716   1.752   1.799   1.836   1.930
  1.958   2.034   2.035   2.087   2.168   2.180   2.204   2.286
  2.292   2.414   2.443   2.499   2.595   2.597   2.696   2.749
  2.766   2.793   2.843   3.176   3.218   3.323   3.327   3.451
  3.488   4.192   4.363   4.562   4.712   4.727   4.735   4.740
  4.758   4.765   4.794   4.798   4.902   4.969   6.284   6.293
 90.272  90.342
 --------------------------------------------------------------
 
          Ground-State Mulliken Net Atomic Charges

     Atom                 Charge (a.u.)    Spin (a.u.)
  --------------------------------------------------------
      1 Br                   -0.240786      -0.000000
      2 Br                   -0.085241       0.000000
      3 C                    -0.188551       0.000000
      4 C                    -0.208003       0.000000
      5 C                    -0.270081      -0.000000
      6 H                     0.160428      -0.000000
      7 H                     0.160539      -0.000000
      8 H                     0.175352      -0.000000
      9 H                     0.175285      -0.000000
     10 H                     0.160515      -0.000000
     11 H                     0.160543      -0.000000
  --------------------------------------------------------
  Sum of atomic charges =    -0.000000
  Sum of spin   charges =     0.000000

 -----------------------------------------------------------------
                    Cartesian Multipole Moments
 -----------------------------------------------------------------
    Charge (ESU x 10^10)
                 0.0000
    Dipole Moment (Debye)
         X       1.5252      Y      -2.7232      Z      -0.0655
       Tot       3.1219
    Quadrupole Moments (Debye-Ang)
        XX     -71.9471     XY       1.6126     YY     -54.7650
        XZ       0.0609     YZ      -0.0040     ZZ     -55.9158
    Octopole Moments (Debye-Ang^2)
       XXX      32.5113    XXY     -16.3456    XYY       5.2478
       YYY     -46.2885    XXZ      -1.2053    XYZ       0.0250
       YYZ      -0.8873    XZZ       4.7707    YZZ     -17.4142
       ZZZ      -3.1442
    Hexadecapole Moments (Debye-Ang^3)
      XXXX   -2315.2130   XXXY      42.6130   XXYY    -390.5075
      XYYY      33.7723   YYYY    -205.3295   XXXZ       1.6645
      XXYZ      -0.0514   XYYZ       0.4059   YYYZ      -2.2181
      XXZZ    -396.7627   XYZZ      11.4563   YYZZ     -45.3346
      XZZZ       1.2873   YZZZ      -1.8324   ZZZZ     -83.8972
 -----------------------------------------------------------------
 Calculating analytic gradient of the SCF energy
 Gradient of SCF Energy
            1           2           3           4           5           6
    1  -0.0354546   0.0001393  -0.0001587   0.0356421  -0.0001325  -0.0000290
    2   0.0248854   0.0000736  -0.0001080  -0.0243712  -0.0001378   0.0000540
    3   0.0006371   0.0000078   0.0000090  -0.0005960   0.0000207  -0.0000510
            7           8           9          10          11
    1   0.0000135  -0.0000132   0.0000328  -0.0000205  -0.0000194
    2   0.0000149  -0.0001624  -0.0002284  -0.0000076  -0.0000124
    3   0.0000319   0.0000385  -0.0000901  -0.0000046  -0.0000033
 Max gradient component =       3.564E-02
 RMS gradient           =       1.065E-02
 Gradient time:  CPU 15.63 s  wall 1.50 s
 Geometry Optimization Parameters
   NAtoms,    NIC,     NZ,  NCons,   NDum,   NFix, NCnnct, MaxDiis
       11      68       0       1       0       0       0       0

 Cartesian Hessian Update
 Hessian Updated using BFGS Update


** CONSTRAINED OPTIMIZATION IN DELOCALIZED INTERNAL COORDINATES **
   Searching for a Minimum

   Optimization Cycle:   4

                       Coordinates (Angstroms)
     ATOM                X               Y               Z
      1  Br       -3.1284403077    0.6692383321    0.0279714445
      2  Br        2.9031015908    0.5360578003    0.0230014655
      3  C         0.0210607298    0.2157686857    0.0183350325
      4  C        -1.1625145851   -0.7069819856   -0.0059884213
      5  C         1.3054645007   -0.6265257512   -0.0038846856
      6  H         0.0026430322    0.8336872866    0.9186076128
      7  H         0.0027876240    0.8798273037   -0.8484465818
      8  H        -1.3676772887   -1.2387877108   -0.9304703865
      9  H        -1.3681739942   -1.2863334758    0.8894654277
     10  H         1.3948481616   -1.2262301287   -0.9098638886
     11  H         1.3968015367   -1.2710193564    0.8706749806
   Point Group: c1    Number of degrees of freedom:    27


   Energy is  -5265.690288718

              Constraints and their Current Values
                                        Value     Constraint
   Distance(Angs):        1   4             2.400000     2.400000
 Hessian Updated using BFGS Update

 26 Hessian modes will be used to form the next step
  Hessian Eigenvalues:
     0.034891    0.045000    0.045698    0.071031    0.079121    0.082666
     0.083180    0.085611    0.099114    0.128649    0.159727    0.160000
     0.160000    0.160747    0.163310    0.220566    0.222324    0.234379
     0.289941    0.320622    0.345449    0.345604    0.347747    0.347834
     0.351849    0.352444

 Minimum Search - Taking Simple RFO Step
 Searching for Lamda that Minimizes Along All modes
 Value Taken    Lamda =  -0.00000178
 Step Taken.  Stepsize is  0.005598

                             Maximum     Tolerance    Cnvgd?
         Gradient           0.000228      0.000300     YES
         Displacement       0.003809      0.001200      NO
         Energy change     -0.000078      0.000001      NO


 New Cartesian Coordinates Obtained by Inverse Iteration

 Displacement from previous Coordinates is:  0.006400
 ----------------------------------------------------------------
             Standard Nuclear Orientation (Angstroms)
    I     Atom           X                Y                Z
 ----------------------------------------------------------------
    1      Br     -3.1283208575     0.6692228820     0.0271665416
    2      Br      2.9024878694     0.5367247346     0.0228914177
    3      C       0.0212147351     0.2152338951     0.0185270962
    4      C      -1.1627217072    -0.7074879247    -0.0058018883
    5      C       1.3060345298    -0.6265182084    -0.0040300690
    6      H       0.0029703144     0.8328140784     0.9190535744
    7      H       0.0028776325     0.8792647495    -0.8482939215
    8      H      -1.3686472000    -1.2382289298    -0.9306147654
    9      H      -1.3696201463    -1.2852315962     0.8902941672
   10      H       1.3957075148    -1.2259453778    -0.9101579763
   11      H       1.3979183151    -1.2711473026     0.8703678233
 ----------------------------------------------------------------
 Nuclear Repulsion Energy =   469.9870962496 hartrees
 There are       47 alpha and       47 beta electrons

                       Distance Matrix (Angstroms)
             Br(  1)   Br(  2)   C (  3)   C (  4)   C (  5)   H (  6)
   Br(  2)  6.032266
   C (  3)  3.182099  2.899157
   C (  4)  2.400000  4.251449  1.501237
   C (  5)  4.619895  1.975480  1.536170  2.470084
   H (  6)  3.259940  3.049259  1.092102  2.141664  2.163264
   H (  7)  3.258060  3.046972  1.092086  2.141541  2.162957  1.767958
   H (  8)  2.766255  4.722524  2.223767  1.085988  2.895975  3.097067
   H (  9)  2.767293  4.724703  2.223915  1.086086  2.897041  2.524074
   H ( 10)  4.993703  2.499595  2.197427  2.762647  1.090148  3.086134
   H ( 11)  4.996285  2.500069  2.197789  2.764464  1.090211  2.524857
             H (  7)   H (  8)   H (  9)   H ( 10)
   H (  8)  2.524210
   H (  9)  3.097012  1.821516
   H ( 10)  2.525017  2.764458  3.300330
   H ( 11)  3.086132  3.301289  2.767646  1.781101
 
 Applying Cartesian multipole field
    Component          Value
    ---------          -----
     (2,0,0)        1.00000E-11
     (0,2,0)        2.00000E-10
     (0,0,2)       -3.00000E-10
 Nucleus-field energy     =     0.0000000465 hartrees
 Requested basis set is 6-31G(d,p)
 There are 46 shells and 145 basis functions
 A cutoff of  1.0D-14 yielded    951 shell pairs
 There are      9192 function pairs
 Smallest overlap matrix eigenvalue = 7.23E-04
 Guess from superposition of atomic densities
 Warning:  Energy on first SCF cycle will be non-variational
 SAD guess density has 93.945746 electrons

 -----------------------------------------------------------------------
  General SCF calculation program by
  Eric Jon Sundstrom, Paul Horn, Yuezhi Mao, Dmitri Zuev, Alec White,
  David Stuck, Shaama M.S., Shane Yost, Joonho Lee, David Small,
  Daniel Levine, Susi Lehtola, Hugh Burton, Evgeny Epifanovsky
 -----------------------------------------------------------------------
 Exchange:     0.2000 Hartree-Fock + 0.0800 Slater + 0.7200 B88
 Correlation:  0.1900 VWN1RPA + 0.8100 LYP
 Using SG-1 standard quadrature grid
 using 12 threads for integral computing
 -------------------------------------------------------
 OpenMP Integral computing Module                
 Release: version 1.0, May 2013, Q-Chem Inc. Pittsburgh 
 -------------------------------------------------------
 -------------------------------------------------------
 OpenMP BLAS3 based DFT computing Module                
 Release: version 1.0, May 2013, Q-Chem Inc. Pittsburgh 
 -------------------------------------------------------
 A unrestricted SCF calculation will be
 performed using DIIS
 SCF converges when DIIS error is below 1.0e-06
 Alpha HF Exchange    Energy = -19.61922788883658
 Beta HF Exchange     Energy = -19.61922788883658
 DFT Correlation      Energy =  -5.20406773363515
 DFT Exchange         Energy = -155.88654528271326
 One-Electron (alpha) Energy = -4126.44600944953891
 One-Electron (beta)  Energy = -4126.44600944953891
 Total Coulomb        Energy = 2710.59648040871662
 ---------------------------------------
  Cycle       Energy         DIIS error
 ---------------------------------------
    1   -5272.6375109884      1.83e-01  
 Alpha HF Exchange    Energy = -19.72988842747288
 Beta HF Exchange     Energy = -19.72988842747287
 DFT Correlation      Energy =  -5.25245582966825
 DFT Exchange         Energy = -157.03162731890995
 One-Electron (alpha) Energy = -4136.66777249042752
 One-Electron (beta)  Energy = -4136.66777249042661
 Total Coulomb        Energy = 2739.53224250988842
    2   -5265.5600661785      1.03e-02  
 Alpha HF Exchange    Energy = -19.59280301855739
 Beta HF Exchange     Energy = -19.59280301855738
 DFT Correlation      Energy =  -5.22124039636676
 DFT Exchange         Energy = -155.96397624928761
 One-Electron (alpha) Energy = -4120.35426552101217
 One-Electron (beta)  Energy = -4120.35426552100944
 Total Coulomb        Energy = 2705.58734813493265
    3   -5265.5049092938      4.61e-03  
 Alpha HF Exchange    Energy = -19.70379436940844
 Beta HF Exchange     Energy = -19.70379436940844
 DFT Correlation      Energy =  -5.23973601694426
 DFT Exchange         Energy = -156.79067260620710
 One-Electron (alpha) Energy = -4134.48721205838865
 One-Electron (beta)  Energy = -4134.48721205838774
 Total Coulomb        Energy = 2734.92702995531818
    4   -5265.4982952274      4.23e-03  
 Alpha HF Exchange    Energy = -19.66804620415184
 Beta HF Exchange     Energy = -19.66804620415181
 DFT Correlation      Energy =  -5.23888559773954
 DFT Exchange         Energy = -156.55275290093854
 One-Electron (alpha) Energy = -4129.48185437569100
 One-Electron (beta)  Energy = -4129.48185437568645
 Total Coulomb        Energy = 2724.42730178187367
    5   -5265.6770415805      1.08e-03  
 Alpha HF Exchange    Energy = -19.65871669843776
 Beta HF Exchange     Energy = -19.65871669843779
 DFT Correlation      Energy =  -5.23483805379750
 DFT Exchange         Energy = -156.46988915936939
 One-Electron (alpha) Energy = -4128.89714857660601
 One-Electron (beta)  Energy = -4128.89714857661056
 Total Coulomb        Energy = 2723.13948099626714
    6   -5265.6898804710      1.70e-04  
 Alpha HF Exchange    Energy = -19.65849984466210
 Beta HF Exchange     Energy = -19.65849984466207
 DFT Correlation      Energy =  -5.23495828866428
 DFT Exchange         Energy = -156.46966802071711
 One-Electron (alpha) Energy = -4128.75230172895772
 One-Electron (beta)  Energy = -4128.75230172895499
 Total Coulomb        Energy = 2722.84891344023708
    7   -5265.6902197204      7.42e-05  
 Alpha HF Exchange    Energy = -19.65901041148730
 Beta HF Exchange     Energy = -19.65901041148729
 DFT Correlation      Energy =  -5.23500665179462
 DFT Exchange         Energy = -156.47331655826562
 One-Electron (alpha) Energy = -4128.83582861428386
 One-Electron (beta)  Energy = -4128.83582861428204
 Total Coulomb        Energy = 2723.02062081294753
    8   -5265.6902841526      2.16e-05  
 Alpha HF Exchange    Energy = -19.65909710082285
 Beta HF Exchange     Energy = -19.65909710082284
 DFT Correlation      Energy =  -5.23505109935420
 DFT Exchange         Energy = -156.47397249326843
 One-Electron (alpha) Energy = -4128.84927970189165
 One-Electron (beta)  Energy = -4128.84927970189165
 Total Coulomb        Energy = 2723.04839122097474
    9   -5265.6902896810      3.55e-06  
 Alpha HF Exchange    Energy = -19.65909527700455
 Beta HF Exchange     Energy = -19.65909527700455
 DFT Correlation      Energy =  -5.23504933000026
 DFT Exchange         Energy = -156.47394553847909
 One-Electron (alpha) Energy = -4128.84968945104174
 One-Electron (beta)  Energy = -4128.84968945104265
 Total Coulomb        Energy = 2723.04917823363530
   10   -5265.6902897949      1.63e-06  
 Alpha HF Exchange    Energy = -19.65909709508716
 Beta HF Exchange     Energy = -19.65909709508713
 DFT Correlation      Energy =  -5.23504973367439
 DFT Exchange         Energy = -156.47396160652357
 One-Electron (alpha) Energy = -4128.84968128271066
 One-Electron (beta)  Energy = -4128.84968128270793
 Total Coulomb        Energy = 2723.04918197868301
   11   -5265.6902898211      1.57e-07  Convergence criterion met
 ---------------------------------------
 SCF time:   CPU 43.48s  wall 4.00s 
<S^2> =         -0.000000000
 Alpha HF Exchange    Energy = -19.65909709508716
 Beta HF Exchange     Energy = -19.65909709508713
 DFT Correlation      Energy =  -5.23504973367439
 DFT Exchange         Energy = -156.47396160652357
 One-Electron (alpha) Energy = -4128.84968128271066
 One-Electron (beta)  Energy = -4128.84968128270793
 Total Coulomb        Energy = 2723.04918197868301
 Nuclear repulsion Energy = 469.98709629602928
 SCF   energy in the final basis set =    -5265.6902898211
 Total energy in the final basis set =    -5265.6902898211
 
 --------------------------------------------------------------
 
                    Orbital Energies (a.u.)
 --------------------------------------------------------------
 
 Alpha MOs
 -- Occupied --
*******-482.842 -62.525 -62.499 -56.346 -56.342 -56.342 -56.321
-56.317 -56.317 -10.287 -10.271 -10.233  -8.712  -8.685  -6.542
 -6.529  -6.529  -6.515  -6.503  -6.503  -2.636  -2.632  -2.632
 -2.622  -2.622  -2.608  -2.605  -2.605  -2.595  -2.595  -0.854
 -0.793  -0.735  -0.683  -0.630  -0.522  -0.461  -0.460  -0.442
 -0.387  -0.385  -0.326  -0.293  -0.292  -0.272  -0.272
 -- Virtual --
 -0.105  -0.011   0.069   0.098   0.101   0.126   0.140   0.173
  0.176   0.208   0.228   0.240   0.324   0.332   0.340   0.351
  0.354   0.359   0.447   0.463   0.472   0.492   0.538   0.550
  0.568   0.575   0.613   0.617   0.629   0.630   0.666   0.750
  0.756   0.783   0.790   0.825   0.830   0.842   0.868   0.891
  0.894   0.925   1.092   1.108   1.285   1.290   1.366   1.511
  1.561   1.624   1.628   1.717   1.752   1.799   1.836   1.930
  1.958   2.034   2.035   2.087   2.167   2.180   2.205   2.287
  2.292   2.415   2.443   2.499   2.594   2.597   2.696   2.749
  2.766   2.793   2.842   3.176   3.218   3.324   3.327   3.450
  3.488   4.192   4.363   4.562   4.712   4.727   4.735   4.740
  4.758   4.765   4.794   4.798   4.902   4.969   6.284   6.294
 90.272  90.342
 
 Beta MOs
 -- Occupied --
*******-482.842 -62.525 -62.499 -56.346 -56.342 -56.342 -56.321
-56.317 -56.317 -10.287 -10.271 -10.233  -8.712  -8.685  -6.542
 -6.529  -6.529  -6.515  -6.503  -6.503  -2.636  -2.632  -2.632
 -2.622  -2.622  -2.608  -2.605  -2.605  -2.595  -2.595  -0.854
 -0.793  -0.735  -0.683  -0.630  -0.522  -0.461  -0.460  -0.442
 -0.387  -0.385  -0.326  -0.293  -0.292  -0.272  -0.272
 -- Virtual --
 -0.105  -0.011   0.069   0.098   0.101   0.126   0.140   0.173
  0.176   0.208   0.228   0.240   0.324   0.332   0.340   0.351
  0.354   0.359   0.447   0.463   0.472   0.492   0.538   0.550
  0.568   0.575   0.613   0.617   0.629   0.630   0.666   0.750
  0.756   0.783   0.790   0.825   0.830   0.842   0.868   0.891
  0.894   0.925   1.092   1.108   1.285   1.290   1.366   1.511
  1.561   1.624   1.628   1.717   1.752   1.799   1.836   1.930
  1.958   2.034   2.035   2.087   2.167   2.180   2.205   2.287
  2.292   2.415   2.443   2.499   2.594   2.597   2.696   2.749
  2.766   2.793   2.842   3.176   3.218   3.324   3.327   3.450
  3.488   4.192   4.363   4.562   4.712   4.727   4.735   4.740
  4.758   4.765   4.794   4.798   4.902   4.969   6.284   6.294
 90.272  90.342
 --------------------------------------------------------------
 
          Ground-State Mulliken Net Atomic Charges

     Atom                 Charge (a.u.)    Spin (a.u.)
  --------------------------------------------------------
      1 Br                   -0.241034       0.000000
      2 Br                   -0.085155       0.000000
      3 C                    -0.188621       0.000000
      4 C                    -0.208035       0.000000
      5 C                    -0.270049       0.000000
      6 H                     0.160402       0.000000
      7 H                     0.160554       0.000000
      8 H                     0.175489       0.000000
      9 H                     0.175433      -0.000000
     10 H                     0.160497      -0.000000
     11 H                     0.160520      -0.000000
  --------------------------------------------------------
  Sum of atomic charges =    -0.000000
  Sum of spin   charges =     0.000000

 -----------------------------------------------------------------
                    Cartesian Multipole Moments
 -----------------------------------------------------------------
    Charge (ESU x 10^10)
                -0.0000
    Dipole Moment (Debye)
         X       1.5277      Y      -2.7251      Z      -0.0643
       Tot       3.1248
    Quadrupole Moments (Debye-Ang)
        XX     -71.9481     XY       1.6161     YY     -54.7699
        XZ       0.0581     YZ      -0.0042     ZZ     -55.9111
    Octopole Moments (Debye-Ang^2)
       XXX      32.5736    XXY     -16.3766    XYY       5.2658
       YYY     -46.3049    XXZ      -1.1845    XYZ       0.0272
       YYZ      -0.8722    XZZ       4.7748    YZZ     -17.4260
       ZZZ      -3.0947
    Hexadecapole Moments (Debye-Ang^3)
      XXXX   -2315.0394   XXXY      42.5501   XXYY    -390.4491
      XYYY      33.6857   YYYY    -205.4080   XXXZ       1.5510
      XXYZ      -0.0523   XYYZ       0.3717   YYYZ      -2.1869
      XXZZ    -396.6876   XYZZ      11.4313   YYZZ     -45.3467
      XZZZ       1.1653   YZZZ      -1.7990   ZZZZ     -83.8887
 -----------------------------------------------------------------
 Calculating analytic gradient of the SCF energy
 Gradient of SCF Energy
            1           2           3           4           5           6
    1  -0.0354086   0.0000074  -0.0000890   0.0355477  -0.0000361  -0.0000090
    2   0.0248321  -0.0000205   0.0000024  -0.0246986  -0.0000545   0.0000283
    3   0.0006143   0.0000041   0.0000124  -0.0005893   0.0000225  -0.0000156
            7           8           9          10          11
    1   0.0000322  -0.0000519  -0.0000074   0.0000070   0.0000077
    2  -0.0000060  -0.0000119  -0.0000805   0.0000076   0.0000015
    3  -0.0000030  -0.0000012  -0.0000369  -0.0000066  -0.0000008
 Max gradient component =       3.555E-02
 RMS gradient           =       1.065E-02
 Gradient time:  CPU 15.65 s  wall 1.37 s
 Geometry Optimization Parameters
   NAtoms,    NIC,     NZ,  NCons,   NDum,   NFix, NCnnct, MaxDiis
       11      68       0       1       0       0       0       0

 Cartesian Hessian Update
 Hessian Updated using BFGS Update


** CONSTRAINED OPTIMIZATION IN DELOCALIZED INTERNAL COORDINATES **
   Searching for a Minimum

   Optimization Cycle:   5

                       Coordinates (Angstroms)
     ATOM                X               Y               Z
      1  Br       -3.1283208575    0.6692228820    0.0271665416
      2  Br        2.9024878694    0.5367247346    0.0228914177
      3  C         0.0212147351    0.2152338951    0.0185270962
      4  C        -1.1627217072   -0.7074879247   -0.0058018883
      5  C         1.3060345298   -0.6265182084   -0.0040300690
      6  H         0.0029703144    0.8328140784    0.9190535744
      7  H         0.0028776325    0.8792647495   -0.8482939215
      8  H        -1.3686472000   -1.2382289298   -0.9306147654
      9  H        -1.3696201463   -1.2852315962    0.8902941672
     10  H         1.3957075148   -1.2259453778   -0.9101579763
     11  H         1.3979183151   -1.2711473026    0.8703678233
   Point Group: c1    Number of degrees of freedom:    27


   Energy is  -5265.690289821

              Constraints and their Current Values
                                        Value     Constraint
   Distance(Angs):        1   4             2.400000     2.400000
 Hessian Updated using BFGS Update

 26 Hessian modes will be used to form the next step
  Hessian Eigenvalues:
     0.028611    0.045000    0.048523    0.071030    0.079134    0.083175
     0.083716    0.085617    0.099362    0.128648    0.147076    0.159822
     0.160000    0.160009    0.169259    0.214064    0.220607    0.228518
     0.289591    0.310583    0.345449    0.345718    0.347764    0.347857
     0.350873    0.351889

 Minimum Search - Taking Simple RFO Step
 Searching for Lamda that Minimizes Along All modes
 Value Taken    Lamda =   0.00000000
 Step Taken.  Stepsize is  0.002774

                             Maximum     Tolerance    Cnvgd?
         Gradient           0.000081      0.000300     YES
         Displacement       0.001166      0.001200     YES
         Energy change     -0.000001      0.000001      NO


                       Distance Matrix (Angstroms)
             Br(  1)   Br(  2)   C (  3)   C (  4)   C (  5)   H (  6)
   Br(  2)  6.032266
   C (  3)  3.182099  2.899157
   C (  4)  2.400000  4.251449  1.501237
   C (  5)  4.619895  1.975480  1.536170  2.470084
   H (  6)  3.259940  3.049259  1.092102  2.141664  2.163264
   H (  7)  3.258060  3.046972  1.092086  2.141541  2.162957  1.767958
   H (  8)  2.766255  4.722524  2.223767  1.085988  2.895975  3.097067
   H (  9)  2.767293  4.724703  2.223915  1.086086  2.897041  2.524074
   H ( 10)  4.993703  2.499595  2.197427  2.762647  1.090148  3.086134
   H ( 11)  4.996285  2.500069  2.197789  2.764464  1.090211  2.524857
             H (  7)   H (  8)   H (  9)   H ( 10)
   H (  8)  2.524210
   H (  9)  3.097012  1.821516
   H ( 10)  2.525017  2.764458  3.300330
   H ( 11)  3.086132  3.301289  2.767646  1.781101
 
 Final energy is   -5265.69028982108     


 ******************************
 **  OPTIMIZATION CONVERGED  **
 ******************************

                       Coordinates (Angstroms)
     ATOM                X               Y               Z
      1  Br       -3.1283208575    0.6692228820    0.0271665416
      2  Br        2.9024878694    0.5367247346    0.0228914177
      3  C         0.0212147351    0.2152338951    0.0185270962
      4  C        -1.1627217072   -0.7074879247   -0.0058018883
      5  C         1.3060345298   -0.6265182084   -0.0040300690
      6  H         0.0029703144    0.8328140784    0.9190535744
      7  H         0.0028776325    0.8792647495   -0.8482939215
      8  H        -1.3686472000   -1.2382289298   -0.9306147654
      9  H        -1.3696201463   -1.2852315962    0.8902941672
     10  H         1.3957075148   -1.2259453778   -0.9101579763
     11  H         1.3979183151   -1.2711473026    0.8703678233

Z-matrix Print:
$molecule
0 1
Br
C  1 1.975480
H  2 1.090148 1 105.582837
H  2 1.090211 1 105.612754 3 116.015090 0
C  2 1.536170 1 110.673862 3 -121.967787 0
H  5 1.092086 2 109.606989 1 59.137072 0
H  5 1.092102 2 109.630166 1 -59.343473 0
C  5 1.501237 2 108.818333 1 179.884311 0
H  8 1.085988 5 117.627975 2 -71.125523 0
H  8 1.086086 5 117.634054 2 71.242450 0
Br 8 2.400000 5 107.043491 2 -179.902561 0
$end

PES scan, value:    2.4000 energy: -5265.6902898211
------- Summary of potential scan: ------ 
    2.4000     -5265.6902898211
----------------------------------------- 
Archival summary:
1\1\hpc0242\JobtypUnspecified\ProcedureUnspecified\6-31G**\r236\knomura\ThuMar1402:45:202019ThuMar1402:45:202019\0\\#,JobtypUnspecified,ProcedureUnspecified,6-31G**,\\0,1\Br\C,1,1.97548\H,2,1.09015,1,105.583\H,2,1.09021,1,105.613,3,116.015,0\C,2,1.53617,1,110.674,3,-121.968,0\H,5,1.09209,2,109.607,1,59.1371,0\H,5,1.0921,2,109.63,1,-59.3435,0\C,5,1.50124,2,108.818,1,179.884,0\H,8,1.08599,5,117.628,2,-71.1255,0\H,8,1.08609,5,117.634,2,71.2424,0\Br,8,2.4,5,107.043,2,-179.903,0\\\@

 Total job time:  28.07s(wall), 320.57s(cpu) 
 Thu Mar 14 02:45:20 2019

        *************************************************************
        *                                                           *
        *  Thank you very much for using Q-Chem.  Have a nice day.  *
        *                                                           *
        *************************************************************


