
Running Job 1 of 1 thio_ketone/CHOSx.xyz.data/inputs/bond_singlet_1.4.in
qchem thio_ketone/CHOSx.xyz.data/inputs/bond_singlet_1.4.in_3281.0 /staging/scratch/2868766/qchem3281/ 1
/usr/usc/qchem/5.1.1/exe/qcprog.exe_s thio_ketone/CHOSx.xyz.data/inputs/bond_singlet_1.4.in_3281.0 /staging/scratch/2868766/qchem3281/
Check license passed

                  Welcome to Q-Chem
     A Quantum Leap Into The Future Of Chemistry


 Q-Chem 5.1, Q-Chem, Inc., Pleasanton, CA (2018)

 Yihan Shao,  Zhengting Gan,  E. Epifanovsky,  A. T. B. Gilbert,  M. Wormit,  
 J. Kussmann,  A. W. Lange,  A. Behn,  Jia Deng,  Xintian Feng,  D. Ghosh,  
 M. Goldey,  P. R. Horn,  L. D. Jacobson,  I. Kaliman,  T. Kus,  A. Landau,  
 Jie Liu,  E. I. Proynov,  R. M. Richard,  R. P. Steele,  E. J. Sundstrom,  
 H. L. Woodcock III,  P. M. Zimmerman,  D. Zuev,  B. Albrecht,  E. Alguire,  
 S. A. Baeppler,  D. Barton,  Z. Benda,  Y. A. Bernard,  E. J. Berquist,  
 K. B. Bravaya,  H. Burton,  D. Casanova,  Chun-Min Chang,  Yunqing Chen,  
 A. Chien,  K. D. Closser,  M. P. Coons,  S. Coriani,  S. Dasgupta,  
 A. L. Dempwolff,  M. Diedenhofen,  Hainam Do,  R. G. Edgar,  Po-Tung Fang,  
 S. Faraji,  S. Fatehi,  Qingguo Feng,  K. D. Fenk,  J. Fosso-Tande,  
 Qinghui Ge,  A. Ghysels,  G. Gidofalvi,  J. Gomes,  J. Gonthier,  A. Gunina,  
 D. Hait,  M. W. D. Hanson-Heine,  P. H. P. Harbach,  A. W. Hauser,  
 J. E. Herr,  E. G. Hohenstein,  Z. C. Holden,  Kerwin Hui,  B. C. Huynh,  
 T.-C. Jagau,  Hyunjun Ji,  B. Kaduk,  K. Khistyaev,  Jaehoon Kim,  
 P. Klunzinger,  K. Koh,  D. Kosenkov,  L. Koulias,  T. Kowalczyk,  
 C. M. Krauter,  A. Kunitsa,  Ka Un Lao,  A. Laurent,  K. V. Lawler,  
 Joonho Lee,  D. Lefrancois,  S. Lehtola,  D. S. Levine,  Yi-Pei Li,  
 You-Sheng Lin,  Fenglai Liu,  E. Livshits,  A. Luenser,  P. Manohar,  
 E. Mansoor,  S. F. Manzer,  Shan-Ping Mao,  Yuezhi Mao,  N. Mardirossian,  
 A. V. Marenich,  T. Markovich,  L. A. Martinez-Martinez,  S. A. Maurer,  
 N. J. Mayhall,  S. C. McKenzie,  J.-M. Mewes,  A. F. Morrison,  
 J. W. Mullinax,  K. Nanda,  T. S. Nguyen-Beck,  R. Olivares-Amaya,  
 J. A. Parkhill,  T. M. Perrine,  F. Plasser,  P. Pokhilko,  S. Prager,  
 A. Prociuk,  E. Ramos,  D. R. Rehn,  F. Rob,  M. Schneider,  N. Sergueev,  
 S. M. Sharada,  S. Sharma,  D. W. Small,  T. Stauch,  T. Stein,  
 Yu-Chuan Su,  A. J. W. Thom,  A. Tkatchenko,  T. Tsuchimochi,  N. M. Tubman,  
 L. Vogt,  M. L. Vidal,  O. Vydrov,  M. A. Watson,  J. Wenzel,  
 M. de Wergifosse,  T. A. Wesolowski,  A. White,  J. Witte,  A. Yamada,  
 Jun Yang,  K. Yao,  S. Yeganeh,  S. R. Yost,  Zhi-Qiang You,  A. Zech,  
 Igor Ying Zhang,  Xing Zhang,  Yan Zhao,  Ying Zhu,  B. R. Brooks,  
 G. K. L. Chan,  C. J. Cramer,  M. S. Gordon,  W. J. Hehre,  A. Klamt,  
 M. W. Schmidt,  C. D. Sherrill,  D. G. Truhlar,  A. Aspuru-Guzik,  R. Baer,  
 A. T. Bell,  N. A. Besley,  Jeng-Da Chai,  A. E. DePrince, III,  
 R. A. DiStasio Jr.,  A. Dreuw,  B. D. Dunietz,  T. R. Furlani,  
 Chao-Ping Hsu,  Yousung Jung,  Jing Kong,  D. S. Lambrecht,  WanZhen Liang,  
 C. Ochsenfeld,  V. A. Rassolov,  L. V. Slipchenko,  J. E. Subotnik,  
 T. Van Voorhis,  J. M. Herbert,  A. I. Krylov,  P. M. W. Gill,  M. Head-Gordon

 Contributors to earlier versions of Q-Chem not listed above: 
 R. D. Adamson,  B. Austin,  J. Baker,  G. J. O. Beran,  K. Brandhorst,  
 S. T. Brown,  E. F. C. Byrd,  A. K. Chakraborty,  C.-L. Cheng,  
 Siu Hung Chien,  D. M. Chipman,  D. L. Crittenden,  H. Dachsel,  
 R. J. Doerksen,  A. D. Dutoi,  L. Fusti-Molnar,  W. A. Goddard III,  
 A. Golubeva-Zadorozhnaya,  S. R. Gwaltney,  G. Hawkins,  A. Heyden,  
 S. Hirata,  G. Kedziora,  F. J. Keil,  C. Kelley,  Jihan Kim,  R. A. King,  
 R. Z. Khaliullin,  P. P. Korambath,  W. Kurlancheek,  A. M. Lee,  M. S. Lee,  
 S. V. Levchenko,  Ching Yeh Lin,  D. Liotard,  R. C. Lochan,  I. Lotan,  
 P. E. Maslen,  N. Nair,  D. P. O'Neill,  D. Neuhauser,  E. Neuscamman,  
 C. M. Oana,  R. Olson,  B. Peters,  R. Peverati,  P. A. Pieniazek,  
 Y. M. Rhee,  J. Ritchie,  M. A. Rohrdanz,  E. Rosta,  N. J. Russ,  
 H. F. Schaefer III,  N. E. Schultz,  N. Shenvi,  A. C. Simmonett,  A. Sodt,  
 D. Stuck,  K. S. Thanthiriwatte,  V. Vanovschi,  Tao Wang,  A. Warshel,  
 C. F. Williams,  Q. Wu,  X. Xu,  W. Zhang

 Please cite Q-Chem as follows:
 Y. Shao et al., Mol. Phys. 113, 184-215 (2015)
 DOI: 10.1080/00268976.2014.952696

 Q-Chem 5.1.1 for Intel X86 EM64T Linux

 Parts of Q-Chem use Armadillo 8.300.2 (Tropical Shenanigans).
 http://arma.sourceforge.net/

 Q-Chem begins on Wed Mar 13 13:42:42 2019  

Host: 
0

     Scratch files written to /staging/scratch/2868766/qchem3281//
 Aug318 |scratch|qcdevops|jenkins|workspace|build_RNUM 6013   
Processing $rem in /usr/usc/qchem/5.1.1/config/preferences.
 MEM_TOTAL  2000 
Input Ideriv = 2
Curr. Ideriv = -1
Max.  Ideriv = 2

Checking the input file for inconsistencies... 	...done.

--------------------------------------------------------------
User input:
--------------------------------------------------------------

$comment
potential surface scanner
$end

$rem
JOBTYPE  PES_SCAN
UNRESTRICTED TRUE
SYM_IGNORE  TRUE
GEOM_OPT_MAX_CYCLES 400
SCF_MAX_CYCLES 400
METHOD   B3LYP
BASIS   6-31G**
PDB_PRINT 2
SCF_CONVERGENCE 6
THRESH 14
SCF_PRINT 1
$end
$molecule
0 1
S -1.384800 -0.000090 -0.000650
C 0.254740 0.000000 -0.000460
C 1.069650 1.268800 0.000070
C 1.069930 -1.268640 0.000060
H 1.723780 1.290230 0.882300
H 1.730580 1.287500 -0.877070
H 0.440180 2.158930 -0.003450
H 0.440730 -2.158960 -0.002030
H 1.725260 -1.289320 0.881400
H 1.729680 -1.287880 -0.877960
$end
$scan
stre 1 2 1.400000 1.401000 0.100000
$end
--------------------------------------------------------------
 ----------------------------------------------------------------
             Standard Nuclear Orientation (Angstroms)
    I     Atom           X                Y                Z
 ----------------------------------------------------------------
    1      S      -1.3848000000    -0.0000900000    -0.0006500000
    2      C       0.2547400000     0.0000000000    -0.0004600000
    3      C       1.0696500000     1.2688000000     0.0000700000
    4      C       1.0699300000    -1.2686400000     0.0000600000
    5      H       1.7237800000     1.2902300000     0.8823000000
    6      H       1.7305800000     1.2875000000    -0.8770700000
    7      H       0.4401800000     2.1589300000    -0.0034500000
    8      H       0.4407300000    -2.1589600000    -0.0020300000
    9      H       1.7252600000    -1.2893200000     0.8814000000
   10      H       1.7296800000    -1.2878800000    -0.8779600000
 ----------------------------------------------------------------
 Nuclear Repulsion Energy =   152.0886319128 hartrees
 There are       20 alpha and       20 beta electrons
 Requested basis set is 6-31G(d,p)
 There are 35 shells and 94 basis functions

 Total QAlloc Memory Limit   2000 MB
 Mega-Array Size       188 MB
 MEM_STATIC part       192 MB
A total of 1 constraints
  
            1
    1   1.0100000
    2   1.0100000
    3   2.0100000
    4   1.4000000
    5   1.4010000
    6   0.1000000
    7   0.0000000
    8   0.0000000
    9   0.0000000
   10   0.0000000

                       Distance Matrix (Angstroms)
             S (  1)   C (  2)   C (  3)   C (  4)   H (  5)   H (  6)
   C (  2)  1.639540
   C (  3)  2.763043  1.507956
   C (  4)  2.763136  1.507973  2.537440
   H (  5)  3.479626  2.145236  1.098488  2.784544
   H (  6)  3.483044  2.145741  1.098432  2.782026  1.759385
   H (  7)  2.827000  2.166882  1.090218  3.484944  1.785167  1.785423
   H (  8)  2.827239  2.166957  3.484980  1.090214  3.784860  3.782525
   H (  9)  3.480316  2.145333  2.783980  1.098474  2.579551  3.119655
   H ( 10)  3.482537  2.145714  2.782659  1.098435  3.121730  2.575380
             H (  7)   H (  8)   H (  9)
   H (  8)  4.317890
   H (  9)  3.784814  1.785144
   H ( 10)  3.782602  1.785336  1.759366
 
 A cutoff of  1.0D-14 yielded    618 shell pairs
 There are      4559 function pairs
 
 -------------------------------------------------------
 OpenMP Integral Computing Module                       
 Release: version 1.0, May 2013, Q-Chem Inc. Pittsburgh 
 -------------------------------------------------------
 Integral Job Info:
 Integral job number is                      11
 Integral operator is                         1
 short-range coefficients                     0
 long-range coefficients              100000000
 Omega coefficients                           0
 if combine SR and LR in K                    0
 Integral screening is                        0
 Integral computing path is                   2
 max size of driver memory is            800000
 size of driver memory is                593474
 size of scratch memory is             15267112
 max col of scratch BK array               1296
 max len of scratch array in speh3          155
 max len of scratch index in speh4           18
 max int batch size is                      520
 min int batch size is                       52
 fixed nKL is                                52
 max L of basis functions is                  2
 order of int derivative is                   0
 number of shells is                         35
 number of basis is                          94
 number of cartesian basis is                94
 number of contracted shell pairs           618
 number of primitive shell pairs           2444
 maxK2 (contraction) of shell pair           36
 max number of K2 of shell pair               1
 max number of CS2 of shell pair             48
 max number of PS2 of shell pair            222
 mem total for path MDJ                  514716
 -------------------------------------------------------
 Smallest overlap matrix eigenvalue = 6.98E-03

 Scale SEOQF with 1.000000e-01/1.000000e-01/1.000000e+00

 Standard Electronic Orientation quadrupole field applied
 Nucleus-field energy     =     0.0000000012 hartrees
 Guess from superposition of atomic densities
 Warning:  Energy on first SCF cycle will be non-variational
 SAD guess density has 40.000000 electrons

 -----------------------------------------------------------------------
  General SCF calculation program by
  Eric Jon Sundstrom, Paul Horn, Yuezhi Mao, Dmitri Zuev, Alec White,
  David Stuck, Shaama M.S., Shane Yost, Joonho Lee, David Small,
  Daniel Levine, Susi Lehtola, Hugh Burton, Evgeny Epifanovsky
 -----------------------------------------------------------------------
 Exchange:     0.2000 Hartree-Fock + 0.0800 Slater + 0.7200 B88
 Correlation:  0.1900 VWN1RPA + 0.8100 LYP
 Using SG-1 standard quadrature grid
 using 12 threads for integral computing
 -------------------------------------------------------
 OpenMP Integral computing Module                
 Release: version 1.0, May 2013, Q-Chem Inc. Pittsburgh 
 -------------------------------------------------------
 -------------------------------------------------------
 OpenMP BLAS3 based DFT computing Module                
 Release: version 1.0, May 2013, Q-Chem Inc. Pittsburgh 
 -------------------------------------------------------
 A unrestricted SCF calculation will be
 performed using DIIS
 SCF converges when DIIS error is below 1.0e-06
 Alpha HF Exchange    Energy =  -4.28762153746005
 Beta HF Exchange     Energy =  -4.28762153746005
 DFT Correlation      Energy =  -1.80748628486553
 DFT Exchange         Energy = -33.52459644869808
 One-Electron (alpha) Energy = -502.97045582560901
 One-Electron (beta)  Energy = -502.97045582560901
 Total Coulomb        Energy = 381.14796058129843
 ---------------------------------------
  Cycle       Energy         DIIS error
 ---------------------------------------
    1    -516.6116449643      3.31e-02  
 Alpha HF Exchange    Energy =  -4.28987483232540
 Beta HF Exchange     Energy =  -4.28987483232539
 DFT Correlation      Energy =  -1.83316990267284
 DFT Exchange         Energy = -34.04686896617910
 One-Electron (alpha) Energy = -506.25596947774864
 One-Electron (beta)  Energy = -506.25596947774818
 Total Coulomb        Energy = 388.83551766873120
    2    -516.0475779062      3.87e-03  
 Alpha HF Exchange    Energy =  -4.24117025636718
 Beta HF Exchange     Energy =  -4.24117025636718
 DFT Correlation      Energy =  -1.81049949929900
 DFT Exchange         Energy = -33.63949253409923
 One-Electron (alpha) Energy = -503.15124383415332
 One-Electron (beta)  Energy = -503.15124383415326
 Total Coulomb        Energy = 382.09713913997984
    3    -516.0490491604      3.90e-03  
 Alpha HF Exchange    Energy =  -4.26311254901480
 Beta HF Exchange     Energy =  -4.26311254901480
 DFT Correlation      Energy =  -1.82142946599115
 DFT Exchange         Energy = -33.82217796391884
 One-Electron (alpha) Energy = -504.58422642776600
 One-Electron (beta)  Energy = -504.58422642776588
 Total Coulomb        Energy = 385.13140639827441
    4    -516.1182470711      2.97e-04  
 Alpha HF Exchange    Energy =  -4.26408315082238
 Beta HF Exchange     Energy =  -4.26408315082237
 DFT Correlation      Energy =  -1.82143225700151
 DFT Exchange         Energy = -33.82867333927753
 One-Electron (alpha) Energy = -504.67161073743551
 One-Electron (beta)  Energy = -504.67161073743529
 Total Coulomb        Energy = 385.31453681737071
    5    -516.1183246413      2.85e-04  
 Alpha HF Exchange    Energy =  -4.26403153340835
 Beta HF Exchange     Energy =  -4.26403153340835
 DFT Correlation      Energy =  -1.82163197298817
 DFT Exchange         Energy = -33.82933345211082
 One-Electron (alpha) Energy = -504.67242603796103
 One-Electron (beta)  Energy = -504.67242603796097
 Total Coulomb        Energy = 385.31651519330887
    6    -516.1187334605      7.86e-05  
 Alpha HF Exchange    Energy =  -4.26381864501153
 Beta HF Exchange     Energy =  -4.26381864501153
 DFT Correlation      Energy =  -1.82150778768896
 DFT Exchange         Energy = -33.82734829072738
 One-Electron (alpha) Energy = -504.64725323370925
 One-Electron (beta)  Energy = -504.64725323370925
 Total Coulomb        Energy = 385.26360626050308
    7    -516.1187616613      7.95e-06  
 Alpha HF Exchange    Energy =  -4.26384976477079
 Beta HF Exchange     Energy =  -4.26384976477080
 DFT Correlation      Energy =  -1.82152261141206
 DFT Exchange         Energy = -33.82760156926797
 One-Electron (alpha) Energy = -504.65108096982823
 One-Electron (beta)  Energy = -504.65108096982846
 Total Coulomb        Energy = 385.27159175924578
    8    -516.1187619766      7.37e-07  Convergence criterion met
 ---------------------------------------
 SCF time:   CPU 16.73s  wall 1.00s 
<S^2> =         -0.000000000
 Alpha HF Exchange    Energy =  -4.26384976477079
 Beta HF Exchange     Energy =  -4.26384976477080
 DFT Correlation      Energy =  -1.82152261141206
 DFT Exchange         Energy = -33.82760156926797
 One-Electron (alpha) Energy = -504.65108096982823
 One-Electron (beta)  Energy = -504.65108096982846
 Total Coulomb        Energy = 385.27159175924578
 Nuclear repulsion Energy = 152.08863191407539
 SCF   energy in the final basis set =     -516.1187619766
 Total energy in the final basis set =     -516.1187619766
 
 --------------------------------------------------------------
 
                    Orbital Energies (a.u.)
 --------------------------------------------------------------
 
 Alpha MOs
 -- Occupied --
-88.854 -10.267 -10.200 -10.200  -7.917  -5.880  -5.880  -5.871
 -0.833  -0.712  -0.704  -0.527  -0.455  -0.445  -0.441  -0.405
 -0.376  -0.355  -0.283  -0.216
 -- Virtual --
 -0.070   0.081   0.096   0.145   0.149   0.155   0.170   0.174
  0.221   0.232   0.315   0.370   0.432   0.435   0.499   0.501
  0.549   0.581   0.597   0.655   0.694   0.702   0.740   0.771
  0.805   0.812   0.851   0.875   0.888   0.893   0.905   0.939
  0.941   1.066   1.088   1.245   1.294   1.415   1.467   1.670
  1.715   1.822   1.854   1.867   1.907   2.017   2.024   2.032
  2.048   2.081   2.085   2.143   2.303   2.352   2.372   2.499
  2.575   2.583   2.689   2.689   2.803   2.849   2.886   2.922
  3.157   3.203   3.380   3.396   3.418   3.458   3.954   4.168
  4.470   4.527
 
 Beta MOs
 -- Occupied --
-88.854 -10.267 -10.200 -10.200  -7.917  -5.880  -5.880  -5.871
 -0.833  -0.712  -0.704  -0.527  -0.455  -0.445  -0.441  -0.405
 -0.376  -0.355  -0.283  -0.216
 -- Virtual --
 -0.070   0.081   0.096   0.145   0.149   0.155   0.170   0.174
  0.221   0.232   0.315   0.370   0.432   0.435   0.499   0.501
  0.549   0.581   0.597   0.655   0.694   0.702   0.740   0.771
  0.805   0.812   0.851   0.875   0.888   0.893   0.905   0.939
  0.941   1.066   1.088   1.245   1.294   1.415   1.467   1.670
  1.715   1.822   1.854   1.867   1.907   2.017   2.024   2.032
  2.048   2.081   2.085   2.143   2.303   2.352   2.372   2.499
  2.575   2.583   2.689   2.689   2.803   2.849   2.886   2.922
  3.157   3.203   3.380   3.396   3.418   3.458   3.954   4.168
  4.470   4.527
 --------------------------------------------------------------
 
          Ground-State Mulliken Net Atomic Charges

     Atom                 Charge (a.u.)    Spin (a.u.)
  --------------------------------------------------------
      1 S                    -0.133213      -0.000000
      2 C                    -0.011430      -0.000000
      3 C                    -0.334602       0.000000
      4 C                    -0.334614       0.000000
      5 H                     0.130951       0.000000
      6 H                     0.130716       0.000000
      7 H                     0.145260       0.000000
      8 H                     0.145259      -0.000000
      9 H                     0.130905      -0.000000
     10 H                     0.130769      -0.000000
  --------------------------------------------------------
  Sum of atomic charges =    -0.000000
  Sum of spin   charges =    -0.000000

 -----------------------------------------------------------------
                    Cartesian Multipole Moments
 -----------------------------------------------------------------
    Charge (ESU x 10^10)
                -0.0000
    Dipole Moment (Debye)
         X       3.0645      Y       0.0002      Z       0.0026
       Tot       3.0645
    Quadrupole Moments (Debye-Ang)
        XX     -33.1618     XY      -0.0005     YY     -32.0352
        XZ       0.0012     YZ       0.0006     ZZ     -32.1403
    Octopole Moments (Debye-Ang^2)
       XXX       4.1856    XXY      -0.0004    XYY       3.6066
       YYY      -0.0003    XXZ       0.0040    XYZ       0.0016
       YYZ       0.0064    XZZ       1.9747    YZZ       0.0002
       ZZZ       0.0382
    Hexadecapole Moments (Debye-Ang^3)
      XXXX    -307.9735   XXXY       0.0001   XXYY     -91.0783
      XYYY      -0.0034   YYYY    -200.3239   XXXZ      -0.0721
      XXYZ       0.0014   XYYZ      -0.0033   YYYZ      -0.0052
      XXZZ     -56.2451   XYZZ       0.0003   YYZZ     -43.4105
      XZZZ      -0.0189   YZZZ       0.0043   ZZZZ     -49.3398
 -----------------------------------------------------------------
 Calculating analytic gradient of the SCF energy
 Gradient of SCF Energy
            1           2           3           4           5           6
    1  -0.0010658  -0.0000442   0.0006987   0.0007040  -0.0000705  -0.0000595
    2   0.0000074   0.0000035   0.0004670  -0.0004628  -0.0002913  -0.0002950
    3   0.0000101   0.0000190  -0.0000232  -0.0000237   0.0003636  -0.0003503
            7           8           9          10
    1  -0.0000210  -0.0000087  -0.0000735  -0.0000595
    2   0.0005093  -0.0005115   0.0002866   0.0002867
    3  -0.0000037  -0.0000007   0.0003580  -0.0003490
 Max gradient component =       1.066E-03
 RMS gradient           =       3.622E-04
 Gradient time:  CPU 7.54 s  wall 0.67 s
 Geometry Optimization Parameters
   NAtoms,    NIC,     NZ,  NCons,   NDum,   NFix, NCnnct, MaxDiis
       10      56       0       1       0       0       0       0


** CONSTRAINED OPTIMIZATION IN DELOCALIZED INTERNAL COORDINATES **
   Searching for a Minimum

   Optimization Cycle:   1

                       Coordinates (Angstroms)
     ATOM                X               Y               Z
      1  S        -1.3848000000   -0.0000900000   -0.0006500000
      2  C         0.2547400000    0.0000000000   -0.0004600000
      3  C         1.0696500000    1.2688000000    0.0000700000
      4  C         1.0699300000   -1.2686400000    0.0000600000
      5  H         1.7237800000    1.2902300000    0.8823000000
      6  H         1.7305800000    1.2875000000   -0.8770700000
      7  H         0.4401800000    2.1589300000   -0.0034500000
      8  H         0.4407300000   -2.1589600000   -0.0020300000
      9  H         1.7252600000   -1.2893200000    0.8814000000
     10  H         1.7296800000   -1.2878800000   -0.8779600000
   Point Group: c1    Number of degrees of freedom:    24


   Energy is   -516.118761977

              Constraints and their Current Values
                                        Value     Constraint
   Distance(Angs):        1   2             1.639540     1.400000

 Attempting to Generate Delocalized Internal Coordinates
**WARNING** Constraint Gradient Reduced for constraint   1

   Using Lagrange Multiplier Algorithm


 25 Hessian modes will be used to form the next step
  Hessian Eigenvalues:
    -0.802840    0.045000    0.045000    0.045000    0.092884    0.092890
     0.096015    0.096018    0.160000    0.160000    0.160000    0.160000
     0.160000    0.160000    0.250000    0.250000    0.315551    0.315568
     0.338499    0.338514    0.338558    0.338561    0.347874    0.347879
     1.245579

 Minimum Search - Taking P-RFO Step
 Searching for Lamda that Maximizes Along the Constraint modes Only
 Value Taken    Lamda =   0.06285627


 ********************************************
 ** ERROR IN DETERMINING Lamda IN CONFormD **
 ********************************************


 ** Scaling Hessian by  2.793612 **


 25 Hessian modes will be used to form the next step
  Hessian Eigenvalues:
    -0.557353    0.125713    0.125713    0.125713    0.259482    0.259497
     0.268228    0.268238    0.446978    0.446978    0.446978    0.446978
     0.446978    0.446978    0.698403    0.698403    0.881526    0.881573
     0.945635    0.945678    0.945799    0.945809    0.971825    0.971839
     1.794194

 Minimum Search - Taking P-RFO Step
 Searching for Lamda that Maximizes Along the Constraint modes Only
 Value Taken    Lamda =   0.10349818
 Searching for Lamda that Minimizes Along All other modes
 Value Taken    Lamda =  -0.01197218
 Step Taken.  Stepsize is  0.263785

                             Maximum     Tolerance    Cnvgd?
         Gradient            0.300000       0.000300      NO
         Displacement        0.306060       0.001200      NO
         Energy change     *********       0.000001      NO


 New Cartesian Coordinates Obtained by Inverse Iteration

 Displacement from previous Coordinates is:  0.253321
 ----------------------------------------------------------------
             Standard Nuclear Orientation (Angstroms)
    I     Atom           X                Y                Z
 ----------------------------------------------------------------
    1      S      -1.2577583222    -0.0001133075    -0.0006592129
    2      C       0.2422119317    -0.0000056053    -0.0004704573
    3      C       1.0557195640     1.2692549189     0.0000765192
    4      C       1.0559951956    -1.2690973025     0.0000697568
    5      H       1.7100943534     1.2926438175     0.8819069036
    6      H       1.7168462058     1.2899430812    -0.8767053413
    7      H       0.4242968946     2.1577185447    -0.0034228969
    8      H       0.4248168893    -2.1577370394    -0.0020081659
    9      H       1.7115679605    -1.2917318434     0.8810172022
   10      H       1.7159393273    -1.2903052643    -0.8775943075
 ----------------------------------------------------------------
 Nuclear Repulsion Energy =   157.2645587494 hartrees
 There are       20 alpha and       20 beta electrons

                       Distance Matrix (Angstroms)
             S (  1)   C (  2)   C (  3)   C (  4)   H (  5)   H (  6)
   C (  2)  1.499970
   C (  3)  2.638840  1.507587
   C (  4)  2.638897  1.507593  2.538352
   H (  5)  3.355338  2.145743  1.098353  2.787113
   H (  6)  3.358567  2.146230  1.098300  2.784627  1.758627
   H (  7)  2.735974  2.165395  1.089988  3.484555  1.784780  1.785032
   H (  8)  2.736129  2.165445  3.484583  1.089987  3.786604  3.784301
   H (  9)  3.355969  2.145830  2.786547  1.098343  2.584376  3.123245
   H ( 10)  3.358048  2.146181  2.785237  1.098303  3.125301  2.580249
             H (  7)   H (  8)   H (  9)
   H (  8)  4.315456
   H (  9)  3.786556  1.784776
   H ( 10)  3.784360  1.784961  1.758618
 
 Applying Cartesian multipole field
    Component          Value
    ---------          -----
     (2,0,0)        1.00000E-11
     (0,2,0)        2.00000E-11
     (0,0,2)       -3.00000E-10
 Nucleus-field energy     =     0.0000000010 hartrees
 Requested basis set is 6-31G(d,p)
 There are 35 shells and 94 basis functions
 A cutoff of  1.0D-14 yielded    620 shell pairs
 There are      4567 function pairs
 Smallest overlap matrix eigenvalue = 6.92E-03
 Guess from superposition of atomic densities
 Warning:  Energy on first SCF cycle will be non-variational
 SAD guess density has 40.000000 electrons

 -----------------------------------------------------------------------
  General SCF calculation program by
  Eric Jon Sundstrom, Paul Horn, Yuezhi Mao, Dmitri Zuev, Alec White,
  David Stuck, Shaama M.S., Shane Yost, Joonho Lee, David Small,
  Daniel Levine, Susi Lehtola, Hugh Burton, Evgeny Epifanovsky
 -----------------------------------------------------------------------
 Exchange:     0.2000 Hartree-Fock + 0.0800 Slater + 0.7200 B88
 Correlation:  0.1900 VWN1RPA + 0.8100 LYP
 Using SG-1 standard quadrature grid
 using 12 threads for integral computing
 -------------------------------------------------------
 OpenMP Integral computing Module                
 Release: version 1.0, May 2013, Q-Chem Inc. Pittsburgh 
 -------------------------------------------------------
 -------------------------------------------------------
 OpenMP BLAS3 based DFT computing Module                
 Release: version 1.0, May 2013, Q-Chem Inc. Pittsburgh 
 -------------------------------------------------------
 A unrestricted SCF calculation will be
 performed using DIIS
 SCF converges when DIIS error is below 1.0e-06
 Alpha HF Exchange    Energy =  -4.30683398442457
 Beta HF Exchange     Energy =  -4.30683398442457
 DFT Correlation      Energy =  -1.81191787925598
 DFT Exchange         Energy = -33.56562906678160
 One-Electron (alpha) Energy = -508.02193277015891
 One-Electron (beta)  Energy = -508.02193277015891
 Total Coulomb        Energy = 385.95009854771172
 ---------------------------------------
  Cycle       Energy         DIIS error
 ---------------------------------------
    1    -516.8204231571      3.61e-02  
 Alpha HF Exchange    Energy =  -4.30159577891200
 Beta HF Exchange     Energy =  -4.30159577891200
 DFT Correlation      Energy =  -1.83964259324957
 DFT Exchange         Energy = -34.13313758029069
 One-Electron (alpha) Energy = -511.61799170874571
 One-Electron (beta)  Energy = -511.61799170874548
 Total Coulomb        Energy = 394.52385204498535
    2    -516.0235443535      4.03e-03  
 Alpha HF Exchange    Energy =  -4.24801080752939
 Beta HF Exchange     Energy =  -4.24801080752939
 DFT Correlation      Energy =  -1.81340013797093
 DFT Exchange         Energy = -33.67836752455881
 One-Electron (alpha) Energy = -507.97076292063542
 One-Electron (beta)  Energy = -507.97076292063520
 Total Coulomb        Energy = 386.66098107100026
    3    -516.0037752975      4.50e-03  
 Alpha HF Exchange    Energy =  -4.27255239266503
 Beta HF Exchange     Energy =  -4.27255239266503
 DFT Correlation      Energy =  -1.82698967077172
 DFT Exchange         Energy = -33.88875816755800
 One-Electron (alpha) Energy = -509.75825527711112
 One-Electron (beta)  Energy = -509.75825527711118
 Total Coulomb        Energy = 390.41738221677451
    4    -516.0954222107      1.08e-03  
 Alpha HF Exchange    Energy =  -4.27351046975447
 Beta HF Exchange     Energy =  -4.27351046975447
 DFT Correlation      Energy =  -1.82672783323884
 DFT Exchange         Energy = -33.89413998866318
 One-Electron (alpha) Energy = -509.79804983122432
 One-Electron (beta)  Energy = -509.79804983122477
 Total Coulomb        Energy = 390.49825570554265
    5    -516.1011739679      1.45e-04  
 Alpha HF Exchange    Energy =  -4.27368331984225
 Beta HF Exchange     Energy =  -4.27368331984225
 DFT Correlation      Energy =  -1.82679917253351
 DFT Exchange         Energy = -33.89579600033122
 One-Electron (alpha) Energy = -509.82329747730569
 One-Electron (beta)  Energy = -509.82329747730574
 Total Coulomb        Energy = 390.55074878685571
    6    -516.1012492299      5.33e-05  
 Alpha HF Exchange    Energy =  -4.27348714361247
 Beta HF Exchange     Energy =  -4.27348714361247
 DFT Correlation      Energy =  -1.82672571176053
 DFT Exchange         Energy = -33.89414771485126
 One-Electron (alpha) Energy = -509.79995746332361
 One-Electron (beta)  Energy = -509.79995746332355
 Total Coulomb        Energy = 390.50194149464369
    7    -516.1012623954      8.90e-06  
 Alpha HF Exchange    Energy =  -4.27352024178996
 Beta HF Exchange     Energy =  -4.27352024178996
 DFT Correlation      Energy =  -1.82673971317964
 DFT Exchange         Energy = -33.89441032809972
 One-Electron (alpha) Energy = -509.80422712549506
 One-Electron (beta)  Energy = -509.80422712549517
 Total Coulomb        Energy = 390.51082322438208
    8    -516.1012628011      6.20e-07  Convergence criterion met
 ---------------------------------------
 SCF time:   CPU 16.52s  wall 1.00s 
<S^2> =         -0.000000000
 Alpha HF Exchange    Energy =  -4.27352024178996
 Beta HF Exchange     Energy =  -4.27352024178996
 DFT Correlation      Energy =  -1.82673971317964
 DFT Exchange         Energy = -33.89441032809972
 One-Electron (alpha) Energy = -509.80422712549506
 One-Electron (beta)  Energy = -509.80422712549517
 Total Coulomb        Energy = 390.51082322438208
 Nuclear repulsion Energy = 157.26455875039619
 SCF   energy in the final basis set =     -516.1012628011
 Total energy in the final basis set =     -516.1012628011
 
 --------------------------------------------------------------
 
                    Orbital Energies (a.u.)
 --------------------------------------------------------------
 
 Alpha MOs
 -- Occupied --
-88.845 -10.247 -10.194 -10.194  -7.914  -5.877  -5.877  -5.868
 -0.854  -0.717  -0.708  -0.518  -0.453  -0.445  -0.439  -0.400
 -0.373  -0.362  -0.303  -0.212
 -- Virtual --
 -0.053   0.083   0.122   0.150   0.152   0.159   0.171   0.172
  0.223   0.228   0.318   0.359   0.443   0.484   0.510   0.511
  0.549   0.595   0.598   0.679   0.683   0.711   0.748   0.761
  0.799   0.805   0.856   0.881   0.885   0.897   0.909   0.945
  0.945   1.096   1.176   1.300   1.319   1.418   1.511   1.674
  1.735   1.825   1.863   1.906   1.949   2.021   2.029   2.054
  2.065   2.088   2.091   2.175   2.308   2.379   2.383   2.503
  2.588   2.620   2.696   2.698   2.808   2.859   2.895   2.945
  3.164   3.210   3.386   3.402   3.424   3.468   3.985   4.190
  4.476   4.553
 
 Beta MOs
 -- Occupied --
-88.845 -10.247 -10.194 -10.194  -7.914  -5.877  -5.877  -5.868
 -0.854  -0.717  -0.708  -0.518  -0.453  -0.445  -0.439  -0.400
 -0.373  -0.362  -0.303  -0.212
 -- Virtual --
 -0.053   0.083   0.122   0.150   0.152   0.159   0.171   0.172
  0.223   0.228   0.318   0.359   0.443   0.484   0.510   0.511
  0.549   0.595   0.598   0.679   0.683   0.711   0.748   0.761
  0.799   0.805   0.856   0.881   0.885   0.897   0.909   0.945
  0.945   1.096   1.176   1.300   1.319   1.418   1.511   1.674
  1.735   1.825   1.863   1.906   1.949   2.021   2.029   2.054
  2.065   2.088   2.091   2.175   2.308   2.379   2.383   2.503
  2.588   2.620   2.696   2.698   2.808   2.859   2.895   2.945
  3.164   3.210   3.386   3.402   3.424   3.468   3.985   4.190
  4.476   4.553
 --------------------------------------------------------------
 
          Ground-State Mulliken Net Atomic Charges

     Atom                 Charge (a.u.)    Spin (a.u.)
  --------------------------------------------------------
      1 S                    -0.126466       0.000000
      2 C                     0.019816      -0.000000
      3 C                    -0.335795      -0.000000
      4 C                    -0.335801      -0.000000
      5 H                     0.125593       0.000000
      6 H                     0.125375      -0.000000
      7 H                     0.138153       0.000000
      8 H                     0.138152      -0.000000
      9 H                     0.125549      -0.000000
     10 H                     0.125423       0.000000
  --------------------------------------------------------
  Sum of atomic charges =    -0.000000
  Sum of spin   charges =    -0.000000

 -----------------------------------------------------------------
                    Cartesian Multipole Moments
 -----------------------------------------------------------------
    Charge (ESU x 10^10)
                 0.0000
    Dipole Moment (Debye)
         X       2.5790      Y       0.0002      Z       0.0024
       Tot       2.5790
    Quadrupole Moments (Debye-Ang)
        XX     -33.0604     XY      -0.0004     YY     -32.1409
        XZ       0.0011     YZ       0.0005     ZZ     -31.7240
    Octopole Moments (Debye-Ang^2)
       XXX      -1.2948    XXY      -0.0000    XYY       1.2737
       YYY       0.0009    XXZ       0.0040    XYZ       0.0015
       YYZ       0.0062    XZZ      -0.1276    YZZ       0.0004
       ZZZ       0.0366
    Hexadecapole Moments (Debye-Ang^3)
      XXXX    -280.9309   XXXY      -0.0002   XXYY     -86.3844
      XYYY      -0.0038   YYYY    -202.2850   XXXZ      -0.0683
      XXYZ       0.0013   XYYZ      -0.0030   YYYZ      -0.0049
      XXZZ     -51.1553   XYZZ       0.0001   YYZZ     -43.4600
      XZZZ      -0.0171   YZZZ       0.0041   ZZZZ     -48.2481
 -----------------------------------------------------------------
 Calculating analytic gradient of the SCF energy
 Gradient of SCF Energy
            1           2           3           4           5           6
    1   0.1509403  -0.1328390  -0.0086625  -0.0086586  -0.0003111  -0.0003033
    2   0.0000175  -0.0000097  -0.0012392   0.0012423  -0.0008458  -0.0008584
    3   0.0000334  -0.0000034  -0.0000295  -0.0000280   0.0004849  -0.0004697
            7           8           9          10
    1   0.0002216   0.0002299  -0.0003136  -0.0003036
    2   0.0005094  -0.0005115   0.0008444   0.0008511
    3   0.0000001   0.0000012   0.0004809  -0.0004699
 Max gradient component =       1.509E-01
 RMS gradient           =       3.678E-02
 Gradient time:  CPU 7.54 s  wall 0.67 s
 Geometry Optimization Parameters
   NAtoms,    NIC,     NZ,  NCons,   NDum,   NFix, NCnnct, MaxDiis
       10      56       0       1       0       0       0       0

 Cartesian Hessian Update
 Hessian Updated using BFGS Update


** CONSTRAINED OPTIMIZATION IN DELOCALIZED INTERNAL COORDINATES **
   Searching for a Minimum

   Optimization Cycle:   2

                       Coordinates (Angstroms)
     ATOM                X               Y               Z
      1  S        -1.2577583222   -0.0001133075   -0.0006592129
      2  C         0.2422119317   -0.0000056053   -0.0004704573
      3  C         1.0557195640    1.2692549189    0.0000765192
      4  C         1.0559951956   -1.2690973025    0.0000697568
      5  H         1.7100943534    1.2926438175    0.8819069036
      6  H         1.7168462058    1.2899430812   -0.8767053413
      7  H         0.4242968946    2.1577185447   -0.0034228969
      8  H         0.4248168893   -2.1577370394   -0.0020081659
      9  H         1.7115679605   -1.2917318434    0.8810172022
     10  H         1.7159393273   -1.2903052643   -0.8775943075
   Point Group: c1    Number of degrees of freedom:    24


   Energy is   -516.101262801

              Constraints and their Current Values
                                        Value     Constraint
   Distance(Angs):        1   2             1.499970     1.400000
 Hessian Updated using BFGS Update

   Using Lagrange Multiplier Algorithm


 23 Hessian modes will be used to form the next step
  Hessian Eigenvalues:
    -0.753550    0.125713    0.125713    0.125713    0.259482    0.259497
     0.268230    0.268241    0.446967    0.446978    0.446978    0.446996
     0.698403    0.701456    0.881549    0.882733    0.945634    0.945677
     0.945798    0.945808    0.971821    0.971837    1.332944

 Minimum Search - Taking P-RFO Step
 Searching for Lamda that Maximizes Along the Constraint modes Only
 Value Taken    Lamda =   0.00430415
 Searching for Lamda that Minimizes Along All other modes
 Value Taken    Lamda =  -0.04204146
 Step Taken.  Stepsize is  0.187640

                             Maximum     Tolerance    Cnvgd?
         Gradient            0.188916       0.000300      NO
         Displacement        0.184214       0.001200      NO
         Energy change      0.017499       0.000001      NO


 New Cartesian Coordinates Obtained by Inverse Iteration

 Displacement from previous Coordinates is:  0.149543
 ----------------------------------------------------------------
             Standard Nuclear Orientation (Angstroms)
    I     Atom           X                Y                Z
 ----------------------------------------------------------------
    1      S      -1.1861156155    -0.0001440145    -0.0006993109
    2      C       0.2163725168    -0.0000124879    -0.0004869168
    3      C       1.0478732109     1.2655633271     0.0000893882
    4      C       1.0481434568    -1.2654071598     0.0000860937
    5      H       1.7035331232     1.2870522539     0.8808022589
    6      H       1.7102021378     1.2843531080    -0.8756267608
    7      H       0.4224737227     2.1579668041    -0.0033878790
    8      H       0.4229610872    -2.1579683616    -0.0019775261
    9      H       1.7049928252    -1.2861314502     0.8799237694
   10      H       1.7092935348    -1.2847020191    -0.8765131164
 ----------------------------------------------------------------
 Nuclear Repulsion Energy =   160.9142519536 hartrees
 There are       20 alpha and       20 beta electrons

                       Distance Matrix (Angstroms)
             S (  1)   C (  2)   C (  3)   C (  4)   H (  5)   H (  6)
   C (  2)  1.402488
   C (  3)  2.567630  1.514291
   C (  4)  2.567646  1.514288  2.530971
   H (  5)  3.283898  2.155192  1.098183  2.778533
   H (  6)  3.286957  2.155688  1.098140  2.776053  1.756444
   H (  7)  2.691655  2.167801  1.089734  3.480081  1.783647  1.783885
   H (  8)  2.691716  2.167823  3.480099  1.089735  3.779859  3.777543
   H (  9)  3.284474  2.155276  2.777960  1.098178  2.573184  3.112776
   H ( 10)  3.286416  2.155612  2.776646  1.098143  3.114821  2.569055
             H (  7)   H (  8)   H (  9)
   H (  8)  4.315935
   H (  9)  3.779803  1.783663
   H ( 10)  3.777595  1.783832  1.756443
 
 Applying Cartesian multipole field
    Component          Value
    ---------          -----
     (2,0,0)        1.00000E-11
     (0,2,0)        2.00000E-11
     (0,0,2)       -3.00000E-10
 Nucleus-field energy     =     0.0000000009 hartrees
 Requested basis set is 6-31G(d,p)
 There are 35 shells and 94 basis functions
 A cutoff of  1.0D-14 yielded    620 shell pairs
 There are      4567 function pairs
 Smallest overlap matrix eigenvalue = 6.87E-03
 Guess from superposition of atomic densities
 Warning:  Energy on first SCF cycle will be non-variational
 SAD guess density has 40.000000 electrons

 -----------------------------------------------------------------------
  General SCF calculation program by
  Eric Jon Sundstrom, Paul Horn, Yuezhi Mao, Dmitri Zuev, Alec White,
  David Stuck, Shaama M.S., Shane Yost, Joonho Lee, David Small,
  Daniel Levine, Susi Lehtola, Hugh Burton, Evgeny Epifanovsky
 -----------------------------------------------------------------------
 Exchange:     0.2000 Hartree-Fock + 0.0800 Slater + 0.7200 B88
 Correlation:  0.1900 VWN1RPA + 0.8100 LYP
 Using SG-1 standard quadrature grid
 using 12 threads for integral computing
 -------------------------------------------------------
 OpenMP Integral computing Module                
 Release: version 1.0, May 2013, Q-Chem Inc. Pittsburgh 
 -------------------------------------------------------
 -------------------------------------------------------
 OpenMP BLAS3 based DFT computing Module                
 Release: version 1.0, May 2013, Q-Chem Inc. Pittsburgh 
 -------------------------------------------------------
 A unrestricted SCF calculation will be
 performed using DIIS
 SCF converges when DIIS error is below 1.0e-06
 Alpha HF Exchange    Energy =  -4.32123883334351
 Beta HF Exchange     Energy =  -4.32123883334351
 DFT Correlation      Energy =  -1.81499005726141
 DFT Exchange         Energy = -33.59758275549862
 One-Electron (alpha) Energy = -511.53653367827127
 One-Electron (beta)  Energy = -511.53653367827127
 Total Coulomb        Energy = 389.23128192761720
 ---------------------------------------
  Cycle       Energy         DIIS error
 ---------------------------------------
    1    -516.9825839539      3.88e-02  
 Alpha HF Exchange    Energy =  -4.31144558496013
 Beta HF Exchange     Energy =  -4.31144558496013
 DFT Correlation      Energy =  -1.84446248795581
 DFT Exchange         Energy = -34.20763301919571
 One-Electron (alpha) Energy = -515.41848704771064
 One-Electron (beta)  Energy = -515.41848704771076
 Total Coulomb        Energy = 398.62902393991908
    2    -515.9686848781      4.34e-03  
 Alpha HF Exchange    Energy =  -4.25252502658031
 Beta HF Exchange     Energy =  -4.25252502658032
 DFT Correlation      Energy =  -1.81531959654709
 DFT Exchange         Energy = -33.70705134338619
 One-Electron (alpha) Energy = -511.23248560940522
 One-Electron (beta)  Energy = -511.23248560940527
 Total Coulomb        Energy = 389.65531896233563
    3    -515.9228212951      5.28e-03  
 Alpha HF Exchange    Energy =  -4.27953523751912
 Beta HF Exchange     Energy =  -4.27953523751911
 DFT Correlation      Energy =  -1.83046466032426
 DFT Exchange         Energy = -33.93870011350316
 One-Electron (alpha) Energy = -513.33734542271998
 One-Electron (beta)  Energy = -513.33734542271986
 Total Coulomb        Energy = 394.03599288298858
    4    -516.0526812568      1.12e-03  
 Alpha HF Exchange    Energy =  -4.28119840136360
 Beta HF Exchange     Energy =  -4.28119840136359
 DFT Correlation      Energy =  -1.83056829707302
 DFT Exchange         Energy = -33.95038842429933
 One-Electron (alpha) Energy = -513.41114957097250
 One-Electron (beta)  Energy = -513.41114957097250
 Total Coulomb        Energy = 394.19288904140546
    5    -516.0585116701      1.47e-04  
 Alpha HF Exchange    Energy =  -4.28115379899522
 Beta HF Exchange     Energy =  -4.28115379899522
 DFT Correlation      Energy =  -1.83051189053540
 DFT Exchange         Energy = -33.95011134081682
 One-Electron (alpha) Energy = -513.41819615517988
 One-Electron (beta)  Energy = -513.41819615517988
 Total Coulomb        Energy = 394.20648270214338
    6    -516.0585884831      5.38e-05  
 Alpha HF Exchange    Energy =  -4.28098893453980
 Beta HF Exchange     Energy =  -4.28098893453981
 DFT Correlation      Energy =  -1.83045907255138
 DFT Exchange         Energy = -33.94874737597528
 One-Electron (alpha) Energy = -513.39751430037427
 One-Electron (beta)  Energy = -513.39751430037461
 Total Coulomb        Energy = 394.16335982336233
    7    -516.0586011405      1.06e-05  
 Alpha HF Exchange    Energy =  -4.28102686682274
 Beta HF Exchange     Energy =  -4.28102686682273
 DFT Correlation      Energy =  -1.83047450671309
 DFT Exchange         Energy = -33.94904801670592
 One-Electron (alpha) Energy = -513.40250235231167
 One-Electron (beta)  Energy = -513.40250235231156
 Total Coulomb        Energy = 394.17372729215333
    8    -516.0586017150      7.21e-07  Convergence criterion met
 ---------------------------------------
 SCF time:   CPU 16.54s  wall 2.00s 
<S^2> =         -0.000000000
 Alpha HF Exchange    Energy =  -4.28102686682274
 Beta HF Exchange     Energy =  -4.28102686682273
 DFT Correlation      Energy =  -1.83047450671309
 DFT Exchange         Energy = -33.94904801670592
 One-Electron (alpha) Energy = -513.40250235231167
 One-Electron (beta)  Energy = -513.40250235231156
 Total Coulomb        Energy = 394.17372729215333
 Nuclear repulsion Energy = 160.91425195449872
 SCF   energy in the final basis set =     -516.0586017150
 Total energy in the final basis set =     -516.0586017150
 
 --------------------------------------------------------------
 
                    Orbital Energies (a.u.)
 --------------------------------------------------------------
 
 Alpha MOs
 -- Occupied --
-88.838 -10.234 -10.189 -10.189  -7.914  -5.876  -5.876  -5.867
 -0.874  -0.722  -0.705  -0.511  -0.453  -0.450  -0.435  -0.396
 -0.370  -0.367  -0.318  -0.208
 -- Virtual --
 -0.041   0.084   0.135   0.152   0.154   0.161   0.168   0.175
  0.222   0.223   0.318   0.351   0.451   0.499   0.517   0.538
  0.547   0.602   0.609   0.667   0.693   0.719   0.757   0.766
  0.793   0.799   0.861   0.885   0.886   0.899   0.913   0.948
  0.950   1.112   1.207   1.308   1.424   1.442   1.535   1.667
  1.742   1.825   1.867   1.931   1.989   2.025   2.032   2.058
  2.083   2.094   2.097   2.189   2.319   2.389   2.405   2.499
  2.600   2.649   2.701   2.712   2.810   2.867   2.900   2.962
  3.166   3.217   3.390   3.406   3.429   3.472   3.990   4.213
  4.481   4.577
 
 Beta MOs
 -- Occupied --
-88.838 -10.234 -10.189 -10.189  -7.914  -5.876  -5.876  -5.867
 -0.874  -0.722  -0.705  -0.511  -0.453  -0.450  -0.435  -0.396
 -0.370  -0.367  -0.318  -0.208
 -- Virtual --
 -0.041   0.084   0.135   0.152   0.154   0.161   0.168   0.175
  0.222   0.223   0.318   0.351   0.451   0.499   0.517   0.538
  0.547   0.602   0.609   0.667   0.693   0.719   0.757   0.766
  0.793   0.799   0.861   0.885   0.886   0.899   0.913   0.948
  0.950   1.112   1.207   1.308   1.424   1.442   1.535   1.667
  1.742   1.825   1.867   1.931   1.989   2.025   2.032   2.058
  2.083   2.094   2.097   2.189   2.319   2.389   2.405   2.499
  2.600   2.649   2.701   2.712   2.810   2.867   2.900   2.962
  3.166   3.217   3.390   3.406   3.429   3.472   3.990   4.213
  4.481   4.577
 --------------------------------------------------------------
 
          Ground-State Mulliken Net Atomic Charges

     Atom                 Charge (a.u.)    Spin (a.u.)
  --------------------------------------------------------
      1 S                    -0.117594      -0.000000
      2 C                     0.047959       0.000000
      3 C                    -0.340586      -0.000000
      4 C                    -0.340588       0.000000
      5 H                     0.121983       0.000000
      6 H                     0.121785       0.000000
      7 H                     0.131635       0.000000
      8 H                     0.131634       0.000000
      9 H                     0.121941      -0.000000
     10 H                     0.121829      -0.000000
  --------------------------------------------------------
  Sum of atomic charges =    -0.000000
  Sum of spin   charges =     0.000000

 -----------------------------------------------------------------
                    Cartesian Multipole Moments
 -----------------------------------------------------------------
    Charge (ESU x 10^10)
                 0.0000
    Dipole Moment (Debye)
         X       2.2351      Y       0.0002      Z       0.0022
       Tot       2.2351
    Quadrupole Moments (Debye-Ang)
        XX     -33.0017     XY      -0.0003     YY     -32.2702
        XZ       0.0009     YZ       0.0005     ZZ     -31.4078
    Octopole Moments (Debye-Ang^2)
       XXX      -4.1853    XXY       0.0005    XYY      -0.0580
       YYY       0.0024    XXZ       0.0046    XYZ       0.0014
       YYZ       0.0066    XZZ      -1.3393    YZZ       0.0007
       ZZZ       0.0362
    Hexadecapole Moments (Debye-Ang^3)
      XXXX    -266.8057   XXXY      -0.0009   XXYY     -83.8819
      XYYY      -0.0047   YYYY    -203.2108   XXXZ      -0.0679
      XXYZ       0.0012   XYYZ      -0.0038   YYYZ      -0.0047
      XXZZ     -48.4670   XYZZ      -0.0003   YYZZ     -43.3822
      XZZZ      -0.0184   YZZZ       0.0040   ZZZZ     -47.3849
 -----------------------------------------------------------------
 Calculating analytic gradient of the SCF energy
 Gradient of SCF Energy
            1           2           3           4           5           6
    1   0.3339900  -0.3093227  -0.0127599  -0.0127597  -0.0000360  -0.0000295
    2   0.0000340  -0.0000309  -0.0022658   0.0022686  -0.0007665  -0.0007812
    3   0.0000684  -0.0000428  -0.0000286  -0.0000263   0.0003490  -0.0003345
            7           8           9          10
    1   0.0004910   0.0004946  -0.0000375  -0.0000303
    2   0.0000689  -0.0000707   0.0007670   0.0007766
    3   0.0000018   0.0000017   0.0003469  -0.0003355
 Max gradient component =       3.340E-01
 RMS gradient           =       8.318E-02
 Gradient time:  CPU 7.55 s  wall 0.67 s
 Geometry Optimization Parameters
   NAtoms,    NIC,     NZ,  NCons,   NDum,   NFix, NCnnct, MaxDiis
       10      56       0       1       0       0       0       0

 Cartesian Hessian Update
 Hessian Updated using BFGS Update


** CONSTRAINED OPTIMIZATION IN DELOCALIZED INTERNAL COORDINATES **
   Searching for a Minimum

   Optimization Cycle:   3

                       Coordinates (Angstroms)
     ATOM                X               Y               Z
      1  S        -1.1861156155   -0.0001440145   -0.0006993109
      2  C         0.2163725168   -0.0000124879   -0.0004869168
      3  C         1.0478732109    1.2655633271    0.0000893882
      4  C         1.0481434568   -1.2654071598    0.0000860937
      5  H         1.7035331232    1.2870522539    0.8808022589
      6  H         1.7102021378    1.2843531080   -0.8756267608
      7  H         0.4224737227    2.1579668041   -0.0033878790
      8  H         0.4229610872   -2.1579683616   -0.0019775261
      9  H         1.7049928252   -1.2861314502    0.8799237694
     10  H         1.7092935348   -1.2847020191   -0.8765131164
   Point Group: c1    Number of degrees of freedom:    24


   Energy is   -516.058601715

              Constraints and their Current Values
                                        Value     Constraint
   Distance(Angs):        1   2             1.402488     1.400000
 Hessian Updated using BFGS Update

   Using Lagrange Multiplier Algorithm


 23 Hessian modes will be used to form the next step
  Hessian Eigenvalues:
    -0.616839    0.125713    0.125713    0.125713    0.259482    0.259497
     0.268204    0.268234    0.446278    0.446978    0.446978    0.446980
     0.687666    0.698403    0.872455    0.881550    0.945631    0.945674
     0.945795    0.945806    0.971828    0.971843    1.661307

 Minimum Search - Taking P-RFO Step
 Searching for Lamda that Maximizes Along the Constraint modes Only
 Value Taken    Lamda =   0.00271361
 Searching for Lamda that Minimizes Along All other modes
 Value Taken    Lamda =  -0.00271844
 Step Taken.  Stepsize is  0.031545

                             Maximum     Tolerance    Cnvgd?
         Gradient            0.073442       0.000300      NO
         Displacement        0.072677       0.001200      NO
         Energy change      0.042661       0.000001      NO


 New Cartesian Coordinates Obtained by Inverse Iteration

 Displacement from previous Coordinates is:  0.051118
 ----------------------------------------------------------------
             Standard Nuclear Orientation (Angstroms)
    I     Atom           X                Y                Z
 ----------------------------------------------------------------
    1      S      -1.1984635488    -0.0001546902    -0.0007496410
    2      C       0.2015934333    -0.0000150580    -0.0005002190
    3      C       1.0494747555     1.2620732135     0.0000997488
    4      C       1.0497439771    -1.2619177194     0.0000980961
    5      H       1.7055739369     1.2802323836     0.8803815983
    6      H       1.7121848069     1.2775339504    -0.8752193517
    7      H       0.4304192799     2.1590318261    -0.0033573917
    8      H       0.4308969716    -2.1590261238    -0.0019497997
    9      H       1.7070248442    -1.2793056233     0.8795086999
   10      H       1.7112815433    -1.2778821591    -0.8761017400
 ----------------------------------------------------------------
 Nuclear Repulsion Energy =   160.6734559769 hartrees
 There are       20 alpha and       20 beta electrons

                       Distance Matrix (Angstroms)
             S (  1)   C (  2)   C (  3)   C (  4)   H (  5)   H (  6)
   C (  2)  1.400057
   C (  3)  2.578070  1.520451
   C (  4)  2.578078  1.520447  2.523991
   H (  5)  3.293815  2.162624  1.098040  2.769032
   H (  6)  3.296826  2.163135  1.098001  2.766554  1.755615
   H (  7)  2.704691  2.171141  1.089852  3.476560  1.783060  1.783285
   H (  8)  2.704726  2.171154  3.476574  1.089853  3.772507  3.770178
   H (  9)  3.294381  2.162712  2.768454  1.098036  2.559539  3.101052
   H ( 10)  3.296277  2.163049  2.767145  1.098004  3.103098  2.555416
             H (  7)   H (  8)   H (  9)
   H (  8)  4.318058
   H (  9)  3.772445  1.783081
   H ( 10)  3.770235  1.783239  1.755616
 
 Applying Cartesian multipole field
    Component          Value
    ---------          -----
     (2,0,0)        1.00000E-11
     (0,2,0)        2.00000E-11
     (0,0,2)       -3.00000E-10
 Nucleus-field energy     =     0.0000000009 hartrees
 Requested basis set is 6-31G(d,p)
 There are 35 shells and 94 basis functions
 A cutoff of  1.0D-14 yielded    620 shell pairs
 There are      4567 function pairs
 Smallest overlap matrix eigenvalue = 6.95E-03
 Guess from superposition of atomic densities
 Warning:  Energy on first SCF cycle will be non-variational
 SAD guess density has 40.000000 electrons

 -----------------------------------------------------------------------
  General SCF calculation program by
  Eric Jon Sundstrom, Paul Horn, Yuezhi Mao, Dmitri Zuev, Alec White,
  David Stuck, Shaama M.S., Shane Yost, Joonho Lee, David Small,
  Daniel Levine, Susi Lehtola, Hugh Burton, Evgeny Epifanovsky
 -----------------------------------------------------------------------
 Exchange:     0.2000 Hartree-Fock + 0.0800 Slater + 0.7200 B88
 Correlation:  0.1900 VWN1RPA + 0.8100 LYP
 Using SG-1 standard quadrature grid
 using 12 threads for integral computing
 -------------------------------------------------------
 OpenMP Integral computing Module                
 Release: version 1.0, May 2013, Q-Chem Inc. Pittsburgh 
 -------------------------------------------------------
 -------------------------------------------------------
 OpenMP BLAS3 based DFT computing Module                
 Release: version 1.0, May 2013, Q-Chem Inc. Pittsburgh 
 -------------------------------------------------------
 A unrestricted SCF calculation will be
 performed using DIIS
 SCF converges when DIIS error is below 1.0e-06
 Alpha HF Exchange    Energy =  -4.32011161551553
 Beta HF Exchange     Energy =  -4.32011161551553
 DFT Correlation      Energy =  -1.81473535011793
 DFT Exchange         Energy = -33.59561920720189
 One-Electron (alpha) Energy = -511.29662181028164
 One-Electron (beta)  Energy = -511.29662181028164
 Total Coulomb        Energy = 388.99729004698622
 ---------------------------------------
  Cycle       Energy         DIIS error
 ---------------------------------------
    1    -516.9730753841      3.87e-02  
 Alpha HF Exchange    Energy =  -4.31104338936392
 Beta HF Exchange     Energy =  -4.31104338936392
 DFT Correlation      Energy =  -1.84418244586052
 DFT Exchange         Energy = -34.20491654055972
 One-Electron (alpha) Energy = -515.16405048542936
 One-Electron (beta)  Energy = -515.16405048542958
 Total Coulomb        Energy = 398.35822690902171
    2    -515.9676038492      4.34e-03  
 Alpha HF Exchange    Energy =  -4.25229530357590
 Beta HF Exchange     Energy =  -4.25229530357590
 DFT Correlation      Energy =  -1.81507795332198
 DFT Exchange         Energy = -33.70549339564937
 One-Electron (alpha) Energy = -511.00271030745290
 One-Electron (beta)  Energy = -511.00271030745267
 Total Coulomb        Energy = 389.43633106722245
    3    -515.9207955260      5.30e-03  
 Alpha HF Exchange    Energy =  -4.27916888575030
 Beta HF Exchange     Energy =  -4.27916888575029
 DFT Correlation      Energy =  -1.83019625672443
 DFT Exchange         Energy = -33.93618363834115
 One-Electron (alpha) Energy = -513.09315674539050
 One-Electron (beta)  Energy = -513.09315674539062
 Total Coulomb        Energy = 393.78583945481563
    4    -516.0517357247      1.12e-03  
 Alpha HF Exchange    Energy =  -4.28086141429563
 Beta HF Exchange     Energy =  -4.28086141429563
 DFT Correlation      Energy =  -1.83030819006030
 DFT Exchange         Energy = -33.94809272721087
 One-Electron (alpha) Energy = -513.16752751771025
 One-Electron (beta)  Energy = -513.16752751771025
 Total Coulomb        Energy = 393.94418393107844
    5    -516.0575388724      1.51e-04  
 Alpha HF Exchange    Energy =  -4.28082519373572
 Beta HF Exchange     Energy =  -4.28082519373572
 DFT Correlation      Energy =  -1.83025546381134
 DFT Exchange         Energy = -33.94788772613438
 One-Electron (alpha) Energy = -513.17606245743855
 One-Electron (beta)  Energy = -513.17606245743843
 Total Coulomb        Energy = 393.96084263881141
    6    -516.0576198757      5.61e-05  
 Alpha HF Exchange    Energy =  -4.28065444068261
 Beta HF Exchange     Energy =  -4.28065444068261
 DFT Correlation      Energy =  -1.83020027760382
 DFT Exchange         Energy = -33.94647444511762
 One-Electron (alpha) Energy = -513.15462443374133
 One-Electron (beta)  Energy = -513.15462443374099
 Total Coulomb        Energy = 393.91614282080138
    7    -516.0576336730      1.06e-05  
 Alpha HF Exchange    Energy =  -4.28069296240960
 Beta HF Exchange     Energy =  -4.28069296240960
 DFT Correlation      Energy =  -1.83021599722403
 DFT Exchange         Energy = -33.94677979441776
 One-Electron (alpha) Energy = -513.15966139344982
 One-Electron (beta)  Energy = -513.15966139344971
 Total Coulomb        Energy = 393.92661427310946
    8    -516.0576342524      7.53e-07  Convergence criterion met
 ---------------------------------------
 SCF time:   CPU 16.45s  wall 1.00s 
<S^2> =         -0.000000000
 Alpha HF Exchange    Energy =  -4.28069296240960
 Beta HF Exchange     Energy =  -4.28069296240960
 DFT Correlation      Energy =  -1.83021599722403
 DFT Exchange         Energy = -33.94677979441776
 One-Electron (alpha) Energy = -513.15966139344982
 One-Electron (beta)  Energy = -513.15966139344971
 Total Coulomb        Energy = 393.92661427310946
 Nuclear repulsion Energy = 160.67345597780576
 SCF   energy in the final basis set =     -516.0576342524
 Total energy in the final basis set =     -516.0576342524
 
 --------------------------------------------------------------
 
                    Orbital Energies (a.u.)
 --------------------------------------------------------------
 
 Alpha MOs
 -- Occupied --
-88.838 -10.235 -10.189 -10.189  -7.915  -5.877  -5.877  -5.868
 -0.873  -0.723  -0.703  -0.511  -0.452  -0.449  -0.434  -0.395
 -0.369  -0.368  -0.320  -0.209
 -- Virtual --
 -0.041   0.084   0.134   0.152   0.154   0.161   0.168   0.176
  0.220   0.222   0.317   0.351   0.449   0.501   0.517   0.538
  0.548   0.601   0.610   0.664   0.694   0.718   0.757   0.767
  0.792   0.798   0.860   0.886   0.887   0.899   0.914   0.949
  0.950   1.106   1.206   1.311   1.429   1.444   1.531   1.665
  1.737   1.822   1.863   1.925   1.989   2.025   2.033   2.058
  2.085   2.093   2.098   2.184   2.326   2.391   2.405   2.494
  2.597   2.649   2.701   2.715   2.808   2.866   2.897   2.960
  3.165   3.217   3.391   3.407   3.430   3.472   3.988   4.212
  4.482   4.576
 
 Beta MOs
 -- Occupied --
-88.838 -10.235 -10.189 -10.189  -7.915  -5.877  -5.877  -5.868
 -0.873  -0.723  -0.703  -0.511  -0.452  -0.449  -0.434  -0.395
 -0.369  -0.368  -0.320  -0.209
 -- Virtual --
 -0.041   0.084   0.134   0.152   0.154   0.161   0.168   0.176
  0.220   0.222   0.317   0.351   0.449   0.501   0.517   0.538
  0.548   0.601   0.610   0.664   0.694   0.718   0.757   0.767
  0.792   0.798   0.860   0.886   0.887   0.899   0.914   0.949
  0.950   1.106   1.206   1.311   1.429   1.444   1.531   1.665
  1.737   1.822   1.863   1.925   1.989   2.025   2.033   2.058
  2.085   2.093   2.098   2.184   2.326   2.391   2.405   2.494
  2.597   2.649   2.701   2.715   2.808   2.866   2.897   2.960
  3.165   3.217   3.391   3.407   3.430   3.472   3.988   4.212
  4.482   4.576
 --------------------------------------------------------------
 
          Ground-State Mulliken Net Atomic Charges

     Atom                 Charge (a.u.)    Spin (a.u.)
  --------------------------------------------------------
      1 S                    -0.114532       0.000000
      2 C                     0.048817      -0.000000
      3 C                    -0.341403      -0.000000
      4 C                    -0.341404       0.000000
      5 H                     0.122099       0.000000
      6 H                     0.121908       0.000000
      7 H                     0.130253       0.000000
      8 H                     0.130253      -0.000000
      9 H                     0.122058      -0.000000
     10 H                     0.121951       0.000000
  --------------------------------------------------------
  Sum of atomic charges =    -0.000000
  Sum of spin   charges =     0.000000

 -----------------------------------------------------------------
                    Cartesian Multipole Moments
 -----------------------------------------------------------------
    Charge (ESU x 10^10)
                -0.0000
    Dipole Moment (Debye)
         X       2.2068      Y       0.0002      Z       0.0022
       Tot       2.2068
    Quadrupole Moments (Debye-Ang)
        XX     -32.9664     XY      -0.0002     YY     -32.3314
        XZ       0.0008     YZ       0.0005     ZZ     -31.4085
    Octopole Moments (Debye-Ang^2)
       XXX      -3.6065    XXY       0.0006    XYY       0.1191
       YYY       0.0030    XXZ       0.0053    XYZ       0.0014
       YYZ       0.0072    XZZ      -1.1891    YZZ       0.0009
       ZZZ       0.0376
    Hexadecapole Moments (Debye-Ang^3)
      XXXX    -268.9551   XXXY      -0.0013   XXYY     -84.1444
      XYYY      -0.0051   YYYY    -202.8126   XXXZ      -0.0711
      XXYZ       0.0012   XYYZ      -0.0053   YYYZ      -0.0046
      XXZZ     -48.8126   XYZZ      -0.0004   YYZZ     -43.2801
      XZZZ      -0.0216   YZZZ       0.0040   ZZZZ     -47.3525
 -----------------------------------------------------------------
 Calculating analytic gradient of the SCF energy
 Gradient of SCF Energy
            1           2           3           4           5           6
    1   0.3372780  -0.3204765  -0.0094226  -0.0094232   0.0002930   0.0003014
    2   0.0000350  -0.0000337  -0.0018243   0.0018270  -0.0003840  -0.0003950
    3   0.0000776  -0.0000564  -0.0000237  -0.0000220   0.0002155  -0.0002027
            7           8           9          10
    1   0.0004275   0.0004297   0.0002924   0.0003004
    2  -0.0002348   0.0002334   0.0003843   0.0003921
    3   0.0000006   0.0000005   0.0002142  -0.0002037
 Max gradient component =       3.373E-01
 RMS gradient           =       8.498E-02
 Gradient time:  CPU 7.55 s  wall 0.66 s
 Geometry Optimization Parameters
   NAtoms,    NIC,     NZ,  NCons,   NDum,   NFix, NCnnct, MaxDiis
       10      56       0       1       0       0       0       0

 Cartesian Hessian Update
 Hessian Updated using BFGS Update


** CONSTRAINED OPTIMIZATION IN DELOCALIZED INTERNAL COORDINATES **
   Searching for a Minimum

   Optimization Cycle:   4

                       Coordinates (Angstroms)
     ATOM                X               Y               Z
      1  S        -1.1984635488   -0.0001546902   -0.0007496410
      2  C         0.2015934333   -0.0000150580   -0.0005002190
      3  C         1.0494747555    1.2620732135    0.0000997488
      4  C         1.0497439771   -1.2619177194    0.0000980961
      5  H         1.7055739369    1.2802323836    0.8803815983
      6  H         1.7121848069    1.2775339504   -0.8752193517
      7  H         0.4304192799    2.1590318261   -0.0033573917
      8  H         0.4308969716   -2.1590261238   -0.0019497997
      9  H         1.7070248442   -1.2793056233    0.8795086999
     10  H         1.7112815433   -1.2778821591   -0.8761017400
   Point Group: c1    Number of degrees of freedom:    24


   Energy is   -516.057634252

              Constraints and their Current Values
                                        Value     Constraint
   Distance(Angs):        1   2             1.400057     1.400000
 Hessian Updated using BFGS Update

   Using Lagrange Multiplier Algorithm


 23 Hessian modes will be used to form the next step
  Hessian Eigenvalues:
    -0.599610    0.125709    0.125713    0.125713    0.219043    0.259483
     0.259498    0.268233    0.286292    0.446978    0.446978    0.447083
     0.456765    0.698403    0.819062    0.881550    0.945652    0.945723
     0.945804    0.946263    0.971832    0.972581    1.672090

 Minimum Search - Taking P-RFO Step
 Searching for Lamda that Maximizes Along the Constraint modes Only
 Value Taken    Lamda =   0.00000463
 Searching for Lamda that Minimizes Along All other modes
 Value Taken    Lamda =  -0.00097882
 Step Taken.  Stepsize is  0.064661

                             Maximum     Tolerance    Cnvgd?
         Gradient            0.009293       0.000300      NO
         Displacement        0.041876       0.001200      NO
         Energy change      0.000967       0.000001      NO


 New Cartesian Coordinates Obtained by Inverse Iteration

 Displacement from previous Coordinates is:  0.115100
 ----------------------------------------------------------------
             Standard Nuclear Orientation (Angstroms)
    I     Atom           X                Y                Z
 ----------------------------------------------------------------
    1      S      -1.2284287713    -0.0001727446    -0.0008953658
    2      C       0.1715720553    -0.0000198326    -0.0005393872
    3      C       1.0537063725     1.2547120092     0.0001280094
    4      C       1.0539746906    -1.2545586563     0.0001300143
    5      H       1.7093847394     1.2642303047     0.8801297643
    6      H       1.7158414143     1.2615632643    -0.8750115106
    7      H       0.4487250041     2.1620649080    -0.0032603347
    8      H       0.4491852628    -2.1620454070    -0.0018622076
    9      H       1.7108138051    -1.2632911237     0.8792718220
   10      H       1.7149554273    -1.2619127219    -0.8758808040
 ----------------------------------------------------------------
 Nuclear Repulsion Energy =   159.9606847531 hartrees
 There are       20 alpha and       20 beta electrons

                       Distance Matrix (Angstroms)
             S (  1)   C (  2)   C (  3)   C (  4)   H (  5)   H (  6)
   C (  2)  1.400001
   C (  3)  2.604396  1.533791
   C (  4)  2.604391  1.533787  2.509271
   H (  5)  3.317479  2.176873  1.097455  2.747410
   H (  6)  3.320359  2.177398  1.097424  2.744961  1.755155
   H (  7)  2.736443  2.179778  1.090552  3.469821  1.782063  1.782256
   H (  8)  2.736436  2.179776  3.469824  1.090553  3.755713  3.753386
   H (  9)  3.318028  2.176967  2.746821  1.097454  2.527522  3.074480
   H ( 10)  3.319804  2.177298  2.745549  1.097426  3.076524  2.523476
             H (  7)   H (  8)   H (  9)
   H (  8)  4.324111
   H (  9)  3.755635  1.782095
   H ( 10)  3.753456  1.782224  1.755158
 
 Applying Cartesian multipole field
    Component          Value
    ---------          -----
     (2,0,0)        1.00000E-11
     (0,2,0)        2.00000E-11
     (0,0,2)       -3.00000E-10
 Nucleus-field energy     =     0.0000000009 hartrees
 Requested basis set is 6-31G(d,p)
 There are 35 shells and 94 basis functions
 A cutoff of  1.0D-14 yielded    620 shell pairs
 There are      4567 function pairs
 Smallest overlap matrix eigenvalue = 7.15E-03
 Guess from superposition of atomic densities
 Warning:  Energy on first SCF cycle will be non-variational
 SAD guess density has 40.000000 electrons

 -----------------------------------------------------------------------
  General SCF calculation program by
  Eric Jon Sundstrom, Paul Horn, Yuezhi Mao, Dmitri Zuev, Alec White,
  David Stuck, Shaama M.S., Shane Yost, Joonho Lee, David Small,
  Daniel Levine, Susi Lehtola, Hugh Burton, Evgeny Epifanovsky
 -----------------------------------------------------------------------
 Exchange:     0.2000 Hartree-Fock + 0.0800 Slater + 0.7200 B88
 Correlation:  0.1900 VWN1RPA + 0.8100 LYP
 Using SG-1 standard quadrature grid
 using 12 threads for integral computing
 -------------------------------------------------------
 OpenMP Integral computing Module                
 Release: version 1.0, May 2013, Q-Chem Inc. Pittsburgh 
 -------------------------------------------------------
 -------------------------------------------------------
 OpenMP BLAS3 based DFT computing Module                
 Release: version 1.0, May 2013, Q-Chem Inc. Pittsburgh 
 -------------------------------------------------------
 A unrestricted SCF calculation will be
 performed using DIIS
 SCF converges when DIIS error is below 1.0e-06
 Alpha HF Exchange    Energy =  -4.31690547866059
 Beta HF Exchange     Energy =  -4.31690547866059
 DFT Correlation      Energy =  -1.81403084890553
 DFT Exchange         Energy = -33.58960175696982
 One-Electron (alpha) Energy = -510.59431373163585
 One-Electron (beta)  Energy = -510.59431373163585
 Total Coulomb        Energy = 388.32175791836414
 ---------------------------------------
  Cycle       Energy         DIIS error
 ---------------------------------------
    1    -516.9436283541      3.84e-02  
 Alpha HF Exchange    Energy =  -4.30960086809453
 Beta HF Exchange     Energy =  -4.30960086809453
 DFT Correlation      Energy =  -1.84331932524068
 DFT Exchange         Energy = -34.19473019106080
 One-Electron (alpha) Energy = -514.41274007587913
 One-Electron (beta)  Energy = -514.41274007587924
 Total Coulomb        Energy = 397.55340328317703
    2    -515.9686433670      4.32e-03  
 Alpha HF Exchange    Energy =  -4.25155922366188
 Beta HF Exchange     Energy =  -4.25155922366188
 DFT Correlation      Energy =  -1.81446710708666
 DFT Exchange         Energy = -33.70059573742036
 One-Electron (alpha) Energy = -510.33850883752893
 One-Electron (beta)  Energy = -510.33850883752893
 Total Coulomb        Energy = 388.81313578125639
    3    -515.9213784316      5.29e-03  
 Alpha HF Exchange    Energy =  -4.27797738675581
 Beta HF Exchange     Energy =  -4.27797738675581
 DFT Correlation      Energy =  -1.82943702210457
 DFT Exchange         Energy = -33.92789154278098
 One-Electron (alpha) Energy = -512.37729810320172
 One-Electron (beta)  Energy = -512.37729810320184
 Total Coulomb        Energy = 393.05499510767072
    4    -516.0521996831      1.11e-03  
 Alpha HF Exchange    Energy =  -4.27969466512974
 Beta HF Exchange     Energy =  -4.27969466512975
 DFT Correlation      Energy =  -1.82954556440365
 DFT Exchange         Energy = -33.93992530514061
 One-Electron (alpha) Energy = -512.45102412687470
 One-Electron (beta)  Energy = -512.45102412687481
 Total Coulomb        Energy = 393.21223686572824
    5    -516.0579868338      1.60e-04  
 Alpha HF Exchange    Energy =  -4.27969207089019
 Beta HF Exchange     Energy =  -4.27969207089018
 DFT Correlation      Energy =  -1.82950902332500
 DFT Exchange         Energy = -33.94001084870324
 One-Electron (alpha) Energy = -512.46404631061205
 One-Electron (beta)  Energy = -512.46404631061182
 Total Coulomb        Energy = 393.23823509597412
    6    -516.0580767850      6.08e-05  
 Alpha HF Exchange    Energy =  -4.27950627788497
 Beta HF Exchange     Energy =  -4.27950627788498
 DFT Correlation      Energy =  -1.82944730344878
 DFT Exchange         Energy = -33.93847017965226
 One-Electron (alpha) Energy = -512.44079932112516
 One-Electron (beta)  Energy = -512.44079932112516
 Total Coulomb        Energy = 393.18975070595252
    7    -516.0580932211      1.06e-05  
 Alpha HF Exchange    Energy =  -4.27954583125155
 Beta HF Exchange     Energy =  -4.27954583125155
 DFT Correlation      Energy =  -1.82946354533497
 DFT Exchange         Energy = -33.93878378762540
 One-Electron (alpha) Energy = -512.44589540142931
 One-Electron (beta)  Energy = -512.44589540142931
 Total Coulomb        Energy = 393.20035124418791
    8    -516.0580938001      8.12e-07  Convergence criterion met
 ---------------------------------------
 SCF time:   CPU 16.55s  wall 2.00s 
<S^2> =         -0.000000000
 Alpha HF Exchange    Energy =  -4.27954583125155
 Beta HF Exchange     Energy =  -4.27954583125155
 DFT Correlation      Energy =  -1.82946354533497
 DFT Exchange         Energy = -33.93878378762540
 One-Electron (alpha) Energy = -512.44589540142931
 One-Electron (beta)  Energy = -512.44589540142931
 Total Coulomb        Energy = 393.20035124418791
 Nuclear repulsion Energy = 159.96068475403555
 SCF   energy in the final basis set =     -516.0580938001
 Total energy in the final basis set =     -516.0580938001
 
 --------------------------------------------------------------
 
                    Orbital Energies (a.u.)
 --------------------------------------------------------------
 
 Alpha MOs
 -- Occupied --
-88.841 -10.237 -10.189 -10.189  -7.917  -5.879  -5.879  -5.870
 -0.871  -0.724  -0.700  -0.510  -0.450  -0.446  -0.434  -0.394
 -0.371  -0.365  -0.322  -0.210
 -- Virtual --
 -0.042   0.084   0.134   0.151   0.153   0.161   0.167   0.179
  0.217   0.219   0.315   0.350   0.445   0.504   0.518   0.536
  0.548   0.598   0.614   0.661   0.696   0.715   0.759   0.770
  0.790   0.796   0.860   0.887   0.888   0.899   0.914   0.950
  0.951   1.093   1.202   1.317   1.441   1.442   1.523   1.661
  1.727   1.818   1.855   1.910   1.986   2.026   2.035   2.058
  2.086   2.092   2.099   2.173   2.337   2.396   2.403   2.485
  2.589   2.647   2.699   2.721   2.806   2.864   2.890   2.955
  3.162   3.217   3.391   3.406   3.432   3.472   3.986   4.209
  4.483   4.573
 
 Beta MOs
 -- Occupied --
-88.841 -10.237 -10.189 -10.189  -7.917  -5.879  -5.879  -5.870
 -0.871  -0.724  -0.700  -0.510  -0.450  -0.446  -0.434  -0.394
 -0.371  -0.365  -0.322  -0.210
 -- Virtual --
 -0.042   0.084   0.134   0.151   0.153   0.161   0.167   0.179
  0.217   0.219   0.315   0.350   0.445   0.504   0.518   0.536
  0.548   0.598   0.614   0.661   0.696   0.715   0.759   0.770
  0.790   0.796   0.860   0.887   0.888   0.899   0.914   0.950
  0.951   1.093   1.202   1.317   1.441   1.442   1.523   1.661
  1.727   1.818   1.855   1.910   1.986   2.026   2.035   2.058
  2.086   2.092   2.099   2.173   2.337   2.396   2.403   2.485
  2.589   2.647   2.699   2.721   2.806   2.864   2.890   2.955
  3.162   3.217   3.391   3.406   3.432   3.472   3.986   4.209
  4.483   4.573
 --------------------------------------------------------------
 
          Ground-State Mulliken Net Atomic Charges

     Atom                 Charge (a.u.)    Spin (a.u.)
  --------------------------------------------------------
      1 S                    -0.108849      -0.000000
      2 C                     0.049118      -0.000000
      3 C                    -0.342714       0.000000
      4 C                    -0.342714       0.000000
      5 H                     0.122557      -0.000000
      6 H                     0.122382       0.000000
      7 H                     0.127642       0.000000
      8 H                     0.127641       0.000000
      9 H                     0.122517       0.000000
     10 H                     0.122421      -0.000000
  --------------------------------------------------------
  Sum of atomic charges =    -0.000000
  Sum of spin   charges =     0.000000

 -----------------------------------------------------------------
                    Cartesian Multipole Moments
 -----------------------------------------------------------------
    Charge (ESU x 10^10)
                -0.0000
    Dipole Moment (Debye)
         X       2.1622      Y       0.0002      Z       0.0023
       Tot       2.1622
    Quadrupole Moments (Debye-Ang)
        XX     -32.9034     XY      -0.0001     YY     -32.4595
        XZ       0.0004     YZ       0.0005     ZZ     -31.4201
    Octopole Moments (Debye-Ang^2)
       XXX      -2.2791    XXY       0.0009    XYY       0.5370
       YYY       0.0039    XXZ       0.0071    XYZ       0.0013
       YYZ       0.0091    XZZ      -0.8016    YZZ       0.0011
       ZZZ       0.0420
    Hexadecapole Moments (Debye-Ang^3)
      XXXX    -274.4559   XXXY      -0.0022   XXYY     -84.9085
      XYYY      -0.0060   YYYY    -201.8365   XXXZ      -0.0804
      XXYZ       0.0012   XYYZ      -0.0096   YYYZ      -0.0044
      XXZZ     -49.6989   XYZZ      -0.0008   YYZZ     -43.0594
      XZZZ      -0.0309   YZZZ       0.0041   ZZZZ     -47.3276
 -----------------------------------------------------------------
 Calculating analytic gradient of the SCF energy
 Gradient of SCF Energy
            1           2           3           4           5           6
    1   0.3322419  -0.3319199  -0.0018093  -0.0018106   0.0007397   0.0007508
    2   0.0000357  -0.0000371  -0.0011451   0.0011468   0.0002714   0.0002674
    3   0.0001011  -0.0000898  -0.0000119  -0.0000116  -0.0000671   0.0000763
            7           8           9          10
    1   0.0001586   0.0001582   0.0007409   0.0007497
    2  -0.0005496   0.0005491  -0.0002715  -0.0002670
    3  -0.0000029  -0.0000025  -0.0000672   0.0000755
 Max gradient component =       3.322E-01
 RMS gradient           =       8.575E-02
 Gradient time:  CPU 7.55 s  wall 0.65 s
 Geometry Optimization Parameters
   NAtoms,    NIC,     NZ,  NCons,   NDum,   NFix, NCnnct, MaxDiis
       10      56       0       1       0       0       0       0

 Cartesian Hessian Update
 Hessian Updated using BFGS Update


** CONSTRAINED OPTIMIZATION IN DELOCALIZED INTERNAL COORDINATES **
   Searching for a Minimum

   Optimization Cycle:   5

                       Coordinates (Angstroms)
     ATOM                X               Y               Z
      1  S        -1.2284287713   -0.0001727446   -0.0008953658
      2  C         0.1715720553   -0.0000198326   -0.0005393872
      3  C         1.0537063725    1.2547120092    0.0001280094
      4  C         1.0539746906   -1.2545586563    0.0001300143
      5  H         1.7093847394    1.2642303047    0.8801297643
      6  H         1.7158414143    1.2615632643   -0.8750115106
      7  H         0.4487250041    2.1620649080   -0.0032603347
      8  H         0.4491852628   -2.1620454070   -0.0018622076
      9  H         1.7108138051   -1.2632911237    0.8792718220
     10  H         1.7149554273   -1.2619127219   -0.8758808040
   Point Group: c1    Number of degrees of freedom:    24


   Energy is   -516.058093800

              Constraints and their Current Values
                                        Value     Constraint
   Distance(Angs):        1   2             1.400001     1.400000
 Hessian Updated using BFGS Update

   Using Lagrange Multiplier Algorithm


 25 Hessian modes will be used to form the next step
  Hessian Eigenvalues:
    -0.596764    0.125704    0.125713    0.125713    0.212038    0.259483
[...]
    3   0.0001345  -0.0001252  -0.0000081  -0.0000081  -0.0000390   0.0000468
            7           8           9          10
    1   0.0000279   0.0000280   0.0000718   0.0000781
    2   0.0001444  -0.0001443  -0.0000114  -0.0000072
    3  -0.0000043  -0.0000034  -0.0000395   0.0000463
 Max gradient component =       3.320E-01
 RMS gradient           =       8.572E-02
 Gradient time:  CPU 7.54 s  wall 0.67 s
 Geometry Optimization Parameters
   NAtoms,    NIC,     NZ,  NCons,   NDum,   NFix, NCnnct, MaxDiis
       10      56       0       1       0       0       0       0

 Cartesian Hessian Update
 Hessian Updated using BFGS Update


** CONSTRAINED OPTIMIZATION IN DELOCALIZED INTERNAL COORDINATES **
   Searching for a Minimum

   Optimization Cycle:   7

                       Coordinates (Angstroms)
     ATOM                X               Y               Z
      1  S        -1.2286958333   -0.0001684325   -0.0010832360
      2  C         0.1713040736   -0.0000191679   -0.0005851850
      3  C         1.0552194046    1.2566946062    0.0001587570
      4  C         1.0554898281   -1.2565431795    0.0001628357
      5  H         1.7073324087    1.2623115993    0.8818960308
      6  H         1.7136310483    1.2597836859   -0.8768530228
      7  H         0.4517379575    2.1661681133   -0.0031106725
      8  H         0.4522006045   -2.1661486826   -0.0017308176
      9  H         1.7087421489   -1.2613748817    0.8810564377
     10  H         1.7127683590   -1.2601336606   -0.8777011273
   Point Group: c1    Number of degrees of freedom:    24


   Energy is   -516.058114828

              Constraints and their Current Values
                                        Value     Constraint
   Distance(Angs):        1   2             1.400000     1.400000
 Hessian Updated using BFGS Update

 22 Hessian modes will be used to form the next step
  Hessian Eigenvalues:
     0.120456    0.125713    0.125713    0.129798    0.245912    0.259483
     0.259500    0.268233    0.315854    0.446978    0.446978    0.446978
     0.456688    0.698403    0.753582    0.881550    0.930348    0.945654
     0.945733    0.945804    0.970102    0.971832

 Minimum Search - Taking Simple RFO Step
 Searching for Lamda that Minimizes Along All modes
 Value Taken    Lamda =   0.00000000
 Step Taken.  Stepsize is  0.001161

                             Maximum     Tolerance    Cnvgd?
         Gradient           0.000310      0.000300      NO
         Displacement       0.000714      0.001200     YES
         Energy change     -0.000011      0.000001      NO


 New Cartesian Coordinates Obtained by Inverse Iteration

 Displacement from previous Coordinates is:  0.001253
 ----------------------------------------------------------------
             Standard Nuclear Orientation (Angstroms)
    I     Atom           X                Y                Z
 ----------------------------------------------------------------
    1      S      -1.2284874598    -0.0001684846    -0.0011293533
    2      C       0.1715124335    -0.0000191119    -0.0005945732
    3      C       1.0553689112     1.2567093360     0.0001657397
    4      C       1.0556392825    -1.2565579595     0.0001704675
    5      H       1.7072579542     1.2622916313     0.8820381868
    6      H       1.7135194430     1.2597996724    -0.8770121180
    7      H       0.4515663184     2.1659267577    -0.0030757696
    8      H       0.4520289482    -2.1659074489    -0.0017003442
    9      H       1.7086627213    -1.2613566462     0.8812032429
   10      H       1.7126614477    -1.2601477463    -0.8778554787
 ----------------------------------------------------------------
 Nuclear Repulsion Energy =   159.8637480448 hartrees
 There are       20 alpha and       20 beta electrons

                       Distance Matrix (Angstroms)
             S (  1)   C (  2)   C (  3)   C (  4)   H (  5)   H (  6)
   C (  2)  1.400000
   C (  3)  2.606865  1.536414
   C (  4)  2.606866  1.536415  2.513267
   H (  5)  3.315478  2.175082  1.096672  2.747162
   H (  6)  3.318146  2.175554  1.096637  2.744870  1.759063
   H (  7)  2.741269  2.183978  1.091451  3.475387  1.782342  1.782514
   H (  8)  2.741270  2.183979  3.475389  1.091451  3.756214  3.754064
   H (  9)  3.316015  2.175171  2.746575  1.096668  2.523649  3.073691
   H ( 10)  3.317613  2.175466  2.745455  1.096641  3.075704  2.519948
             H (  7)   H (  8)   H (  9)
   H (  8)  4.331834
   H (  9)  3.756130  1.782375
   H ( 10)  3.754143  1.782482  1.759064
 
 Applying Cartesian multipole field
    Component          Value
    ---------          -----
     (2,0,0)        1.00000E-11
     (0,2,0)        2.00000E-11
     (0,0,2)       -3.00000E-10
 Nucleus-field energy     =     0.0000000009 hartrees
 Requested basis set is 6-31G(d,p)
 There are 35 shells and 94 basis functions
 A cutoff of  1.0D-14 yielded    620 shell pairs
 There are      4567 function pairs
 Smallest overlap matrix eigenvalue = 7.19E-03
 Guess from superposition of atomic densities
 Warning:  Energy on first SCF cycle will be non-variational
 SAD guess density has 40.000000 electrons

 -----------------------------------------------------------------------
  General SCF calculation program by
  Eric Jon Sundstrom, Paul Horn, Yuezhi Mao, Dmitri Zuev, Alec White,
  David Stuck, Shaama M.S., Shane Yost, Joonho Lee, David Small,
  Daniel Levine, Susi Lehtola, Hugh Burton, Evgeny Epifanovsky
 -----------------------------------------------------------------------
 Exchange:     0.2000 Hartree-Fock + 0.0800 Slater + 0.7200 B88
 Correlation:  0.1900 VWN1RPA + 0.8100 LYP
 Using SG-1 standard quadrature grid
 using 12 threads for integral computing
 -------------------------------------------------------
 OpenMP Integral computing Module                
 Release: version 1.0, May 2013, Q-Chem Inc. Pittsburgh 
 -------------------------------------------------------
 -------------------------------------------------------
 OpenMP BLAS3 based DFT computing Module                
 Release: version 1.0, May 2013, Q-Chem Inc. Pittsburgh 
 -------------------------------------------------------
 A unrestricted SCF calculation will be
 performed using DIIS
 SCF converges when DIIS error is below 1.0e-06
 Alpha HF Exchange    Energy =  -4.31638533055950
 Beta HF Exchange     Energy =  -4.31638533055950
 DFT Correlation      Energy =  -1.81391304056285
 DFT Exchange         Energy = -33.58862529760947
 One-Electron (alpha) Energy = -510.49878788448268
 One-Electron (beta)  Energy = -510.49878788448268
 Total Coulomb        Energy = 388.23046508858585
 ---------------------------------------
  Cycle       Energy         DIIS error
 ---------------------------------------
    1    -516.9386716339      3.83e-02  
 Alpha HF Exchange    Energy =  -4.30942145729439
 Beta HF Exchange     Energy =  -4.30942145729439
 DFT Correlation      Energy =  -1.84318357509041
 DFT Exchange         Energy = -34.19342645425271
 One-Electron (alpha) Energy = -514.31244148654264
 One-Electron (beta)  Energy = -514.31244148654287
 Total Coulomb        Energy = 397.44767759277624
    2    -515.9689102785      4.32e-03  
 Alpha HF Exchange    Energy =  -4.25147444496932
 Beta HF Exchange     Energy =  -4.25147444496932
 DFT Correlation      Energy =  -1.81439443126505
 DFT Exchange         Energy = -33.70005338711648
 One-Electron (alpha) Energy = -510.25385760285803
 One-Electron (beta)  Energy = -510.25385760285803
 Total Coulomb        Energy = 388.73907038171069
    3    -515.9222934866      5.28e-03  
 Alpha HF Exchange    Energy =  -4.27783423063173
 Beta HF Exchange     Energy =  -4.27783423063172
 DFT Correlation      Energy =  -1.82932220706952
 DFT Exchange         Energy = -33.92686711955049
 One-Electron (alpha) Energy = -512.28223668017029
 One-Electron (beta)  Energy = -512.28223668016983
 Total Coulomb        Energy = 392.96035024948844
    4    -516.0522328530      1.11e-03  
 Alpha HF Exchange    Energy =  -4.27954008770863
 Beta HF Exchange     Energy =  -4.27954008770863
 DFT Correlation      Energy =  -1.82942576030798
 DFT Exchange         Energy = -33.93880046587556
 One-Electron (alpha) Energy = -512.35506977112618
 One-Electron (beta)  Energy = -512.35506977112618
 Total Coulomb        Energy = 393.11569052477159
    5    -516.0580073733      1.61e-04  
 Alpha HF Exchange    Energy =  -4.27954623304260
 Beta HF Exchange     Energy =  -4.27954623304260
 DFT Correlation      Energy =  -1.82939304549317
 DFT Exchange         Energy = -33.93895867978641
 One-Electron (alpha) Energy = -512.36916263447131
 One-Electron (beta)  Energy = -512.36916263447142
 Total Coulomb        Energy = 393.14392371763915
    6    -516.0580976969      6.14e-05  
 Alpha HF Exchange    Energy =  -4.27935796749496
 Beta HF Exchange     Energy =  -4.27935796749495
 DFT Correlation      Energy =  -1.82933042812344
 DFT Exchange         Energy = -33.93739767722084
 One-Electron (alpha) Energy = -512.34563643503964
 One-Electron (beta)  Energy = -512.34563643503941
 Total Coulomb        Energy = 393.09485430937872
    7    -516.0581145553      1.05e-05  
 Alpha HF Exchange    Energy =  -4.27939730028986
 Beta HF Exchange     Energy =  -4.27939730028987
 DFT Correlation      Energy =  -1.82934657483931
 DFT Exchange         Energy = -33.93770931910078
 One-Electron (alpha) Energy = -512.35068330093429
 One-Electron (beta)  Energy = -512.35068330093452
 Total Coulomb        Energy = 393.10535392981029
    8    -516.0581151208      8.08e-07  Convergence criterion met
 ---------------------------------------
 SCF time:   CPU 16.52s  wall 1.00s 
<S^2> =          0.000000000
 Alpha HF Exchange    Energy =  -4.27939730028986
 Beta HF Exchange     Energy =  -4.27939730028987
 DFT Correlation      Energy =  -1.82934657483931
 DFT Exchange         Energy = -33.93770931910078
 One-Electron (alpha) Energy = -512.35068330093429
 One-Electron (beta)  Energy = -512.35068330093452
 Total Coulomb        Energy = 393.10535392981029
 Nuclear repulsion Energy = 159.86374804575243
 SCF   energy in the final basis set =     -516.0581151208
 Total energy in the final basis set =     -516.0581151208
 
 --------------------------------------------------------------
 
                    Orbital Energies (a.u.)
 --------------------------------------------------------------
 
 Alpha MOs
 -- Occupied --
-88.841 -10.237 -10.189 -10.189  -7.917  -5.879  -5.879  -5.870
 -0.871  -0.724  -0.700  -0.509  -0.451  -0.445  -0.434  -0.394
 -0.371  -0.365  -0.322  -0.210
 -- Virtual --
 -0.042   0.084   0.134   0.151   0.153   0.160   0.167   0.180
  0.216   0.218   0.315   0.350   0.444   0.503   0.518   0.536
  0.548   0.598   0.613   0.660   0.695   0.714   0.760   0.771
  0.790   0.796   0.860   0.888   0.888   0.898   0.913   0.951
  0.951   1.092   1.200   1.316   1.441   1.445   1.524   1.658
  1.728   1.820   1.852   1.908   1.987   2.027   2.035   2.057
  2.085   2.090   2.095   2.174   2.336   2.396   2.403   2.486
  2.589   2.648   2.696   2.718   2.807   2.865   2.889   2.951
  3.164   3.218   3.392   3.404   3.431   3.470   3.986   4.209
  4.485   4.572
 
 Beta MOs
 -- Occupied --
-88.841 -10.237 -10.189 -10.189  -7.917  -5.879  -5.879  -5.870
 -0.871  -0.724  -0.700  -0.509  -0.451  -0.445  -0.434  -0.394
 -0.371  -0.365  -0.322  -0.210
 -- Virtual --
 -0.042   0.084   0.134   0.151   0.153   0.160   0.167   0.180
  0.216   0.218   0.315   0.350   0.444   0.503   0.518   0.536
  0.548   0.598   0.613   0.660   0.695   0.714   0.760   0.771
  0.790   0.796   0.860   0.888   0.888   0.898   0.913   0.951
  0.951   1.092   1.200   1.316   1.441   1.445   1.524   1.658
  1.728   1.820   1.852   1.908   1.987   2.027   2.035   2.057
  2.085   2.090   2.095   2.174   2.336   2.396   2.403   2.486
  2.589   2.648   2.696   2.718   2.807   2.865   2.889   2.951
  3.164   3.218   3.392   3.404   3.431   3.470   3.986   4.209
  4.485   4.572
 --------------------------------------------------------------
 
          Ground-State Mulliken Net Atomic Charges

     Atom                 Charge (a.u.)    Spin (a.u.)
  --------------------------------------------------------
      1 S                    -0.108648       0.000000
      2 C                     0.047930      -0.000000
      3 C                    -0.342364       0.000000
      4 C                    -0.342363      -0.000000
      5 H                     0.122642      -0.000000
      6 H                     0.122480      -0.000000
      7 H                     0.127601      -0.000000
      8 H                     0.127600       0.000000
      9 H                     0.122604       0.000000
     10 H                     0.122518      -0.000000
  --------------------------------------------------------
  Sum of atomic charges =     0.000000
  Sum of spin   charges =     0.000000

 -----------------------------------------------------------------
                    Cartesian Multipole Moments
 -----------------------------------------------------------------
    Charge (ESU x 10^10)
                 0.0000
    Dipole Moment (Debye)
         X       2.1562      Y       0.0002      Z       0.0024
       Tot       2.1562
    Quadrupole Moments (Debye-Ang)
        XX     -32.9395     XY      -0.0001     YY     -32.4570
        XZ      -0.0003     YZ       0.0005     ZZ     -31.3987
    Octopole Moments (Debye-Ang^2)
       XXX      -2.4252    XXY       0.0008    XYY       0.4923
       YYY       0.0038    XXZ       0.0100    XYZ       0.0013
       YYZ       0.0122    XZZ      -0.7850    YZZ       0.0011
       ZZZ       0.0493
    Hexadecapole Moments (Debye-Ang^3)
      XXXX    -274.8343   XXXY      -0.0020   XXYY     -85.1168
      XYYY      -0.0057   YYYY    -202.1009   XXXZ      -0.0934
      XXYZ       0.0012   XYYZ      -0.0157   YYYZ      -0.0042
      XXZZ     -49.6898   XYZZ      -0.0007   YYZZ     -43.1125
      XZZZ      -0.0439   YZZZ       0.0042   ZZZZ     -47.3213
 -----------------------------------------------------------------
 Calculating analytic gradient of the SCF energy
 Gradient of SCF Energy
            1           2           3           4           5           6
    1   0.3320084  -0.3319869  -0.0001094  -0.0001093   0.0000376   0.0000448
    2   0.0000355  -0.0000356  -0.0000078   0.0000079  -0.0000014  -0.0000062
    3   0.0001430  -0.0001339  -0.0000076  -0.0000077  -0.0000242   0.0000315
            7           8           9          10
    1   0.0000161   0.0000162   0.0000381   0.0000444
    2   0.0001073  -0.0001073   0.0000018   0.0000059
    3  -0.0000042  -0.0000033  -0.0000246   0.0000311
 Max gradient component =       3.320E-01
 RMS gradient           =       8.572E-02
 Gradient time:  CPU 7.45 s  wall 0.65 s
 Geometry Optimization Parameters
   NAtoms,    NIC,     NZ,  NCons,   NDum,   NFix, NCnnct, MaxDiis
       10      56       0       1       0       0       0       0

 Cartesian Hessian Update
 Hessian Updated using BFGS Update


** CONSTRAINED OPTIMIZATION IN DELOCALIZED INTERNAL COORDINATES **
   Searching for a Minimum

   Optimization Cycle:   8

                       Coordinates (Angstroms)
     ATOM                X               Y               Z
      1  S        -1.2284874598   -0.0001684846   -0.0011293533
      2  C         0.1715124335   -0.0000191119   -0.0005945732
      3  C         1.0553689112    1.2567093360    0.0001657397
      4  C         1.0556392825   -1.2565579595    0.0001704675
      5  H         1.7072579542    1.2622916313    0.8820381868
      6  H         1.7135194430    1.2597996724   -0.8770121180
      7  H         0.4515663184    2.1659267577   -0.0030757696
      8  H         0.4520289482   -2.1659074489   -0.0017003442
      9  H         1.7086627213   -1.2613566462    0.8812032429
     10  H         1.7126614477   -1.2601477463   -0.8778554787
   Point Group: c1    Number of degrees of freedom:    24


   Energy is   -516.058115121

              Constraints and their Current Values
                                        Value     Constraint
   Distance(Angs):        1   2             1.400000     1.400000
 Hessian Updated using BFGS Update

 21 Hessian modes will be used to form the next step
  Hessian Eigenvalues:
     0.083096    0.125712    0.125713    0.129658    0.211434    0.259333
     0.259488    0.260270    0.268233    0.375351    0.446978    0.446985
     0.698403    0.715940    0.881550    0.930925    0.941763    0.945655
     0.945756    0.945804    0.971832

 Minimum Search - Taking Simple RFO Step
 Searching for Lamda that Minimizes Along All modes
 Value Taken    Lamda =   0.00000000
 Step Taken.  Stepsize is  0.002086

                             Maximum     Tolerance    Cnvgd?
         Gradient           0.000218      0.000300     YES
         Displacement       0.001147      0.001200     YES
         Energy change     -0.000000      0.000001     YES


                       Distance Matrix (Angstroms)
             S (  1)   C (  2)   C (  3)   C (  4)   H (  5)   H (  6)
   C (  2)  1.400000
   C (  3)  2.606865  1.536414
   C (  4)  2.606866  1.536415  2.513267
   H (  5)  3.315478  2.175082  1.096672  2.747162
   H (  6)  3.318146  2.175554  1.096637  2.744870  1.759063
   H (  7)  2.741269  2.183978  1.091451  3.475387  1.782342  1.782514
   H (  8)  2.741270  2.183979  3.475389  1.091451  3.756214  3.754064
   H (  9)  3.316015  2.175171  2.746575  1.096668  2.523649  3.073691
   H ( 10)  3.317613  2.175466  2.745455  1.096641  3.075704  2.519948
             H (  7)   H (  8)   H (  9)
   H (  8)  4.331834
   H (  9)  3.756130  1.782375
   H ( 10)  3.754143  1.782482  1.759064
 
 Final energy is   -516.058115120826     


 ******************************
 **  OPTIMIZATION CONVERGED  **
 ******************************

                       Coordinates (Angstroms)
     ATOM                X               Y               Z
      1  S        -1.2284874598   -0.0001684846   -0.0011293533
      2  C         0.1715124335   -0.0000191119   -0.0005945732
      3  C         1.0553689112    1.2567093360    0.0001657397
      4  C         1.0556392825   -1.2565579595    0.0001704675
      5  H         1.7072579542    1.2622916313    0.8820381868
      6  H         1.7135194430    1.2597996724   -0.8770121180
      7  H         0.4515663184    2.1659267577   -0.0030757696
      8  H         0.4520289482   -2.1659074489   -0.0017003442
      9  H         1.7086627213   -1.2613566462    0.8812032429
     10  H         1.7126614477   -1.2601477463   -0.8778554787

Z-matrix Print:
$molecule
0 1
S 
C  1 1.400000
C  2 1.536414 1 125.124819
H  3 1.091451 2 111.293351 1 -0.186869 0
H  3 1.096637 2 110.313756 1 -121.441577 0
H  3 1.096672 2 110.274463 1 121.018254 0
C  2 1.536415 1 125.124908 3 179.961244 0
H  7 1.091451 2 111.293383 1 0.109834 0
H  7 1.096641 2 110.306519 1 121.355608 0
H  7 1.096668 2 110.281670 1 -121.104180 0
$end

PES scan, value:    1.4000 energy: -516.0581151208
------- Summary of potential scan: ------ 
    1.4000      -516.0581151208
----------------------------------------- 
Archival summary:
1\1\hpc0249\JobtypUnspecified\ProcedureUnspecified\6-31G**\136\knomura\WedMar1313:43:032019WedMar1313:43:032019\0\\#,JobtypUnspecified,ProcedureUnspecified,6-31G**,\\0,1\S\C,1,1.4\C,2,1.53641,1,125.125\H,3,1.09145,2,111.293,1,-0.186869,0\H,3,1.09664,2,110.314,1,-121.442,0\H,3,1.09667,2,110.274,1,121.018,0\C,2,1.53641,1,125.125,3,179.961,0\H,7,1.09145,2,111.293,1,0.109834,0\H,7,1.09664,2,110.307,1,121.356,0\H,7,1.09667,2,110.282,1,-121.104,0\\\@

 Total job time:  20.77s(wall), 231.62s(cpu) 
 Wed Mar 13 13:43:03 2019

        *************************************************************
        *                                                           *
        *  Thank you very much for using Q-Chem.  Have a nice day.  *
        *                                                           *
        *************************************************************


