
Running Job 1 of 1 thio_ketone/CHOSx.xyz.data/inputs/bond_singlet_3.1.in
qchem thio_ketone/CHOSx.xyz.data/inputs/bond_singlet_3.1.in_4085.0 /staging/scratch/2868766/qchem4085/ 1
/usr/usc/qchem/5.1.1/exe/qcprog.exe_s thio_ketone/CHOSx.xyz.data/inputs/bond_singlet_3.1.in_4085.0 /staging/scratch/2868766/qchem4085/
Check license passed

                  Welcome to Q-Chem
     A Quantum Leap Into The Future Of Chemistry


 Q-Chem 5.1, Q-Chem, Inc., Pleasanton, CA (2018)

 Yihan Shao,  Zhengting Gan,  E. Epifanovsky,  A. T. B. Gilbert,  M. Wormit,  
 J. Kussmann,  A. W. Lange,  A. Behn,  Jia Deng,  Xintian Feng,  D. Ghosh,  
 M. Goldey,  P. R. Horn,  L. D. Jacobson,  I. Kaliman,  T. Kus,  A. Landau,  
 Jie Liu,  E. I. Proynov,  R. M. Richard,  R. P. Steele,  E. J. Sundstrom,  
 H. L. Woodcock III,  P. M. Zimmerman,  D. Zuev,  B. Albrecht,  E. Alguire,  
 S. A. Baeppler,  D. Barton,  Z. Benda,  Y. A. Bernard,  E. J. Berquist,  
 K. B. Bravaya,  H. Burton,  D. Casanova,  Chun-Min Chang,  Yunqing Chen,  
 A. Chien,  K. D. Closser,  M. P. Coons,  S. Coriani,  S. Dasgupta,  
 A. L. Dempwolff,  M. Diedenhofen,  Hainam Do,  R. G. Edgar,  Po-Tung Fang,  
 S. Faraji,  S. Fatehi,  Qingguo Feng,  K. D. Fenk,  J. Fosso-Tande,  
 Qinghui Ge,  A. Ghysels,  G. Gidofalvi,  J. Gomes,  J. Gonthier,  A. Gunina,  
 D. Hait,  M. W. D. Hanson-Heine,  P. H. P. Harbach,  A. W. Hauser,  
 J. E. Herr,  E. G. Hohenstein,  Z. C. Holden,  Kerwin Hui,  B. C. Huynh,  
 T.-C. Jagau,  Hyunjun Ji,  B. Kaduk,  K. Khistyaev,  Jaehoon Kim,  
 P. Klunzinger,  K. Koh,  D. Kosenkov,  L. Koulias,  T. Kowalczyk,  
 C. M. Krauter,  A. Kunitsa,  Ka Un Lao,  A. Laurent,  K. V. Lawler,  
 Joonho Lee,  D. Lefrancois,  S. Lehtola,  D. S. Levine,  Yi-Pei Li,  
 You-Sheng Lin,  Fenglai Liu,  E. Livshits,  A. Luenser,  P. Manohar,  
 E. Mansoor,  S. F. Manzer,  Shan-Ping Mao,  Yuezhi Mao,  N. Mardirossian,  
 A. V. Marenich,  T. Markovich,  L. A. Martinez-Martinez,  S. A. Maurer,  
 N. J. Mayhall,  S. C. McKenzie,  J.-M. Mewes,  A. F. Morrison,  
 J. W. Mullinax,  K. Nanda,  T. S. Nguyen-Beck,  R. Olivares-Amaya,  
 J. A. Parkhill,  T. M. Perrine,  F. Plasser,  P. Pokhilko,  S. Prager,  
 A. Prociuk,  E. Ramos,  D. R. Rehn,  F. Rob,  M. Schneider,  N. Sergueev,  
 S. M. Sharada,  S. Sharma,  D. W. Small,  T. Stauch,  T. Stein,  
 Yu-Chuan Su,  A. J. W. Thom,  A. Tkatchenko,  T. Tsuchimochi,  N. M. Tubman,  
 L. Vogt,  M. L. Vidal,  O. Vydrov,  M. A. Watson,  J. Wenzel,  
 M. de Wergifosse,  T. A. Wesolowski,  A. White,  J. Witte,  A. Yamada,  
 Jun Yang,  K. Yao,  S. Yeganeh,  S. R. Yost,  Zhi-Qiang You,  A. Zech,  
 Igor Ying Zhang,  Xing Zhang,  Yan Zhao,  Ying Zhu,  B. R. Brooks,  
 G. K. L. Chan,  C. J. Cramer,  M. S. Gordon,  W. J. Hehre,  A. Klamt,  
 M. W. Schmidt,  C. D. Sherrill,  D. G. Truhlar,  A. Aspuru-Guzik,  R. Baer,  
 A. T. Bell,  N. A. Besley,  Jeng-Da Chai,  A. E. DePrince, III,  
 R. A. DiStasio Jr.,  A. Dreuw,  B. D. Dunietz,  T. R. Furlani,  
 Chao-Ping Hsu,  Yousung Jung,  Jing Kong,  D. S. Lambrecht,  WanZhen Liang,  
 C. Ochsenfeld,  V. A. Rassolov,  L. V. Slipchenko,  J. E. Subotnik,  
 T. Van Voorhis,  J. M. Herbert,  A. I. Krylov,  P. M. W. Gill,  M. Head-Gordon

 Contributors to earlier versions of Q-Chem not listed above: 
 R. D. Adamson,  B. Austin,  J. Baker,  G. J. O. Beran,  K. Brandhorst,  
 S. T. Brown,  E. F. C. Byrd,  A. K. Chakraborty,  C.-L. Cheng,  
 Siu Hung Chien,  D. M. Chipman,  D. L. Crittenden,  H. Dachsel,  
 R. J. Doerksen,  A. D. Dutoi,  L. Fusti-Molnar,  W. A. Goddard III,  
 A. Golubeva-Zadorozhnaya,  S. R. Gwaltney,  G. Hawkins,  A. Heyden,  
 S. Hirata,  G. Kedziora,  F. J. Keil,  C. Kelley,  Jihan Kim,  R. A. King,  
 R. Z. Khaliullin,  P. P. Korambath,  W. Kurlancheek,  A. M. Lee,  M. S. Lee,  
 S. V. Levchenko,  Ching Yeh Lin,  D. Liotard,  R. C. Lochan,  I. Lotan,  
 P. E. Maslen,  N. Nair,  D. P. O'Neill,  D. Neuhauser,  E. Neuscamman,  
 C. M. Oana,  R. Olson,  B. Peters,  R. Peverati,  P. A. Pieniazek,  
 Y. M. Rhee,  J. Ritchie,  M. A. Rohrdanz,  E. Rosta,  N. J. Russ,  
 H. F. Schaefer III,  N. E. Schultz,  N. Shenvi,  A. C. Simmonett,  A. Sodt,  
 D. Stuck,  K. S. Thanthiriwatte,  V. Vanovschi,  Tao Wang,  A. Warshel,  
 C. F. Williams,  Q. Wu,  X. Xu,  W. Zhang

 Please cite Q-Chem as follows:
 Y. Shao et al., Mol. Phys. 113, 184-215 (2015)
 DOI: 10.1080/00268976.2014.952696

 Q-Chem 5.1.1 for Intel X86 EM64T Linux

 Parts of Q-Chem use Armadillo 8.300.2 (Tropical Shenanigans).
 http://arma.sourceforge.net/

 Q-Chem begins on Wed Mar 13 13:51:26 2019  

Host: 
0

     Scratch files written to /staging/scratch/2868766/qchem4085//
 Aug318 |scratch|qcdevops|jenkins|workspace|build_RNUM 6013   
Processing $rem in /usr/usc/qchem/5.1.1/config/preferences.
 MEM_TOTAL  2000 
Input Ideriv = 2
Curr. Ideriv = -1
Max.  Ideriv = 2

Checking the input file for inconsistencies... 	...done.

--------------------------------------------------------------
User input:
--------------------------------------------------------------

$comment
potential surface scanner
$end

$rem
JOBTYPE  PES_SCAN
UNRESTRICTED TRUE
SYM_IGNORE  TRUE
GEOM_OPT_MAX_CYCLES 400
SCF_MAX_CYCLES 400
METHOD   B3LYP
BASIS   6-31G**
PDB_PRINT 2
SCF_CONVERGENCE 6
THRESH 14
SCF_PRINT 1
$end
$molecule
0 1
S -2.513097 -0.000230 -0.003423
C 0.486902 -0.000001 -0.000630
C 1.186247 1.282333 0.000236
C 1.186543 -1.282172 0.000381
H 1.852320 1.336318 0.879293
H 1.858734 1.335536 -0.873932
H 0.514953 2.141261 -0.002283
H 0.515451 -2.141262 -0.000612
H 1.854275 -1.335505 0.878206
H 1.857406 -1.335712 -0.875026
$end
$scan
stre 1 2 3.100000 3.101000 0.100000
$end
--------------------------------------------------------------
 ----------------------------------------------------------------
             Standard Nuclear Orientation (Angstroms)
    I     Atom           X                Y                Z
 ----------------------------------------------------------------
    1      S      -2.5130970000    -0.0002300000    -0.0034230000
    2      C       0.4869020000    -0.0000010000    -0.0006300000
    3      C       1.1862470000     1.2823330000     0.0002360000
    4      C       1.1865430000    -1.2821720000     0.0003810000
    5      H       1.8523200000     1.3363180000     0.8792930000
    6      H       1.8587340000     1.3355360000    -0.8739320000
    7      H       0.5149530000     2.1412610000    -0.0022830000
    8      H       0.5154510000    -2.1412620000    -0.0006120000
    9      H       1.8542750000    -1.3355050000     0.8782060000
   10      H       1.8574060000    -1.3357120000    -0.8750260000
 ----------------------------------------------------------------
 Nuclear Repulsion Energy =   124.0503563557 hartrees
 There are       20 alpha and       20 beta electrons
 Requested basis set is 6-31G(d,p)
 There are 35 shells and 94 basis functions

 Total QAlloc Memory Limit   2000 MB
 Mega-Array Size       188 MB
 MEM_STATIC part       192 MB
A total of 1 constraints
  
            1
    1   1.0100000
    2   1.0100000
    3   2.0100000
    4   3.1000000
    5   3.1010000
    6   0.1000000
    7   0.0000000
    8   0.0000000
    9   0.0000000
   10   0.0000000

                       Distance Matrix (Angstroms)
             S (  1)   C (  2)   C (  3)   C (  4)   H (  5)   H (  6)
   C (  2)  3.000000
   C (  3)  3.915371  1.460638
   C (  4)  3.915447  1.460637  2.564505
   H (  5)  4.649991  2.103421  1.104223  2.841168
   H (  6)  4.653489  2.104338  1.104192  2.840539  1.753237
   H (  7)  3.708783  2.141446  1.090137  3.488687  1.792668  1.792962
   H (  8)  3.708926  2.141451  3.488692  1.090138  3.828187  3.828214
   H (  9)  4.651254  2.103719  2.840804  1.104213  2.671824  3.194443
   H ( 10)  4.652365  2.104037  2.840897  1.104202  3.196468  2.671249
             H (  7)   H (  8)   H (  9)
   H (  8)  4.282523
   H (  9)  3.828439  1.792767
   H ( 10)  3.827950  1.792862  1.753235
 
 A cutoff of  1.0D-14 yielded    598 shell pairs
 There are      4444 function pairs
 
 -------------------------------------------------------
 OpenMP Integral Computing Module                       
 Release: version 1.0, May 2013, Q-Chem Inc. Pittsburgh 
 -------------------------------------------------------
 Integral Job Info:
 Integral job number is                      11
 Integral operator is                         1
 short-range coefficients                     0
 long-range coefficients              100000000
 Omega coefficients                           0
 if combine SR and LR in K                    0
 Integral screening is                        0
 Integral computing path is                   2
 max size of driver memory is            800000
 size of driver memory is                593474
 size of scratch memory is             15267112
 max col of scratch BK array               1296
 max len of scratch array in speh3          155
 max len of scratch index in speh4           18
 max int batch size is                      520
 min int batch size is                       52
 fixed nKL is                                52
 max L of basis functions is                  2
 order of int derivative is                   0
 number of shells is                         35
 number of basis is                          94
 number of cartesian basis is                94
 number of contracted shell pairs           598
 number of primitive shell pairs           2250
 maxK2 (contraction) of shell pair           36
 max number of K2 of shell pair               1
 max number of CS2 of shell pair             48
 max number of PS2 of shell pair            192
 mem total for path MDJ                  513266
 -------------------------------------------------------
 Smallest overlap matrix eigenvalue = 6.27E-03

 Scale SEOQF with 1.000000e-01/1.000000e-01/1.000000e+00

 Standard Electronic Orientation quadrupole field applied
 Nucleus-field energy     =     0.0000000041 hartrees
 Guess from superposition of atomic densities
 Warning:  Energy on first SCF cycle will be non-variational
 SAD guess density has 40.000000 electrons

 -----------------------------------------------------------------------
  General SCF calculation program by
  Eric Jon Sundstrom, Paul Horn, Yuezhi Mao, Dmitri Zuev, Alec White,
  David Stuck, Shaama M.S., Shane Yost, Joonho Lee, David Small,
  Daniel Levine, Susi Lehtola, Hugh Burton, Evgeny Epifanovsky
 -----------------------------------------------------------------------
 Exchange:     0.2000 Hartree-Fock + 0.0800 Slater + 0.7200 B88
 Correlation:  0.1900 VWN1RPA + 0.8100 LYP
 Using SG-1 standard quadrature grid
 using 12 threads for integral computing
 -------------------------------------------------------
 OpenMP Integral computing Module                
 Release: version 1.0, May 2013, Q-Chem Inc. Pittsburgh 
 -------------------------------------------------------
 -------------------------------------------------------
 OpenMP BLAS3 based DFT computing Module                
 Release: version 1.0, May 2013, Q-Chem Inc. Pittsburgh 
 -------------------------------------------------------
 A unrestricted SCF calculation will be
 performed using DIIS
 SCF converges when DIIS error is below 1.0e-06
 Alpha HF Exchange    Energy =  -4.24065075228228
 Beta HF Exchange     Energy =  -4.24065075228228
 DFT Correlation      Energy =  -1.78786455561279
 DFT Exchange         Energy = -33.42884966151810
 One-Electron (alpha) Energy = -475.05237717831739
 One-Electron (beta)  Energy = -475.05237717831739
 Total Coulomb        Energy = 353.58877952965435
 ---------------------------------------
  Cycle       Energy         DIIS error
 ---------------------------------------
    1    -516.1636341889      2.92e-02  
 Alpha HF Exchange    Energy =  -4.26594252852609
 Beta HF Exchange     Energy =  -4.26594252852609
 DFT Correlation      Energy =  -1.81006703260884
 DFT Exchange         Energy = -33.88759549174938
 One-Electron (alpha) Energy = -478.13871734849687
 One-Electron (beta)  Energy = -478.13871734849658
 Total Coulomb        Energy = 360.83579380852814
    2    -515.6208321101      6.09e-03  
 Alpha HF Exchange    Energy =  -4.25565499660915
 Beta HF Exchange     Energy =  -4.25565499660916
 DFT Correlation      Energy =  -1.80933576227132
 DFT Exchange         Energy = -33.78770604031525
 One-Electron (alpha) Energy = -472.11839290663903
 One-Electron (beta)  Energy = -472.11839290663931
 Total Coulomb        Energy = 353.39453606480134
    3    -510.9002451845      1.76e-02  
 Alpha HF Exchange    Energy =  -4.22659405304735
 Beta HF Exchange     Energy =  -4.22659405304735
 DFT Correlation      Energy =  -1.79359194664223
 DFT Exchange         Energy = -33.57745999096478
 One-Electron (alpha) Energy = -476.19112603709141
 One-Electron (beta)  Energy = -476.19112603709146
 Total Coulomb        Energy = 356.40794604724931
    4    -515.7481897109      4.63e-03  
 Alpha HF Exchange    Energy =  -4.23793552841718
 Beta HF Exchange     Energy =  -4.23793552841718
 DFT Correlation      Energy =  -1.80263717875488
 DFT Exchange         Energy = -33.70371527240346
 One-Electron (alpha) Energy = -476.43435154193872
 One-Electron (beta)  Energy = -476.43435154193867
 Total Coulomb        Energy = 356.93509876056464
    5    -515.8654714715      2.64e-03  
 Alpha HF Exchange    Energy =  -4.23439113376819
 Beta HF Exchange     Energy =  -4.23439113376819
 DFT Correlation      Energy =  -1.80060193484714
 DFT Exchange         Energy = -33.67472310908688
 One-Electron (alpha) Energy = -476.11088885970963
 One-Electron (beta)  Energy = -476.11088885970969
 Total Coulomb        Energy = 356.24660504754877
    6    -515.8689236236      2.31e-03  
 Alpha HF Exchange    Energy =  -4.23752478711471
 Beta HF Exchange     Energy =  -4.23752478711470
 DFT Correlation      Energy =  -1.80078345313439
 DFT Exchange         Energy = -33.68643985186439
 One-Electron (alpha) Energy = -476.37094071771338
 One-Electron (beta)  Energy = -476.37094071771327
 Total Coulomb        Energy = 356.74980557542318
    7    -515.9039923795      8.92e-04  
 Alpha HF Exchange    Energy =  -4.23928664078606
 Beta HF Exchange     Energy =  -4.23928664078606
 DFT Correlation      Energy =  -1.80036489372122
 DFT Exchange         Energy = -33.68688328277683
 One-Electron (alpha) Energy = -476.43703677352988
 One-Electron (beta)  Energy = -476.43703677353017
 Total Coulomb        Energy = 356.87928146815045
    8    -515.9102571772      7.00e-05  
 Alpha HF Exchange    Energy =  -4.23988303507780
 Beta HF Exchange     Energy =  -4.23988303507780
 DFT Correlation      Energy =  -1.80038538876603
 DFT Exchange         Energy = -33.68886425936135
 One-Electron (alpha) Energy = -476.45092814882713
 One-Electron (beta)  Energy = -476.45092814882713
 Total Coulomb        Energy = 356.91025714177829
    9    -515.9102585144      1.04e-04  
 Alpha HF Exchange    Energy =  -4.24007123626313
 Beta HF Exchange     Energy =  -4.24007123626314
 DFT Correlation      Energy =  -1.80037092036000
 DFT Exchange         Energy = -33.68907200610155
 One-Electron (alpha) Energy = -476.44650597275722
 One-Electron (beta)  Energy = -476.44650597275745
 Total Coulomb        Energy = 356.90194346062952
   10    -515.9102975241      8.54e-05  
 Alpha HF Exchange    Energy =  -4.24025958055118
 Beta HF Exchange     Energy =  -4.24025958055117
 DFT Correlation      Energy =  -1.80037410407148
 DFT Exchange         Energy = -33.68934472590968
 One-Electron (alpha) Energy = -476.43760967752746
 One-Electron (beta)  Energy = -476.43760967752723
 Total Coulomb        Energy = 356.88474094982530
   11    -515.9103600366      5.01e-06  
 Alpha HF Exchange    Energy =  -4.24030675785960
 Beta HF Exchange     Energy =  -4.24030675785960
 DFT Correlation      Energy =  -1.80038249634884
 DFT Exchange         Energy = -33.68957914761082
 One-Electron (alpha) Energy = -476.43803772321201
 One-Electron (beta)  Energy = -476.43803772321189
 Total Coulomb        Energy = 356.88593410610258
   12    -515.9103601402      3.83e-06  
 Alpha HF Exchange    Energy =  -4.24029078041387
 Beta HF Exchange     Energy =  -4.24029078041387
 DFT Correlation      Energy =  -1.80038002531383
 DFT Exchange         Energy = -33.68951290057646
 One-Electron (alpha) Energy = -476.43784271596093
 One-Electron (beta)  Energy = -476.43784271596098
 Total Coulomb        Energy = 356.88544331298181
   13    -515.9103602459      1.08e-06  
 Alpha HF Exchange    Energy =  -4.24029009072772
 Beta HF Exchange     Energy =  -4.24029009072773
 DFT Correlation      Energy =  -1.80037975551014
 DFT Exchange         Energy = -33.68951033135750
 One-Electron (alpha) Energy = -476.43795764788950
 One-Electron (beta)  Energy = -476.43795764788996
 Total Coulomb        Energy = 356.88566894941084
   14    -515.9103602549      1.85e-07  Convergence criterion met
 ---------------------------------------
 SCF time:   CPU 27.86s  wall 2.00s 
<S^2> =          0.000000000
 Alpha HF Exchange    Energy =  -4.24029009072772
 Beta HF Exchange     Energy =  -4.24029009072773
 DFT Correlation      Energy =  -1.80037975551014
 DFT Exchange         Energy = -33.68951033135750
 One-Electron (alpha) Energy = -476.43795764788950
 One-Electron (beta)  Energy = -476.43795764788996
 Total Coulomb        Energy = 356.88566894941084
 Nuclear repulsion Energy = 124.05035635976228
 SCF   energy in the final basis set =     -515.9103602549
 Total energy in the final basis set =     -515.9103602549
 
 --------------------------------------------------------------
 
                    Orbital Energies (a.u.)
 --------------------------------------------------------------
 
 Alpha MOs
 -- Occupied --
-88.851 -10.307 -10.236 -10.236  -7.905  -5.877  -5.862  -5.859
 -0.845  -0.752  -0.596  -0.579  -0.486  -0.481  -0.467  -0.440
 -0.418  -0.253  -0.196  -0.194
 -- Virtual --
 -0.133  -0.130   0.063   0.112   0.124   0.126   0.134   0.157
  0.192   0.263   0.342   0.404   0.411   0.434   0.456   0.525
  0.529   0.531   0.543   0.643   0.647   0.682   0.702   0.771
  0.775   0.823   0.825   0.834   0.848   0.851   0.854   0.854
  0.868   0.905   0.939   1.196   1.245   1.320   1.330   1.422
  1.516   1.805   1.826   1.864   1.880   1.886   1.981   1.984
  2.023   2.048   2.055   2.065   2.226   2.288   2.317   2.494
  2.543   2.567   2.642   2.672   2.781   2.805   2.882   2.897
  3.113   3.159   3.337   3.363   3.376   3.422   3.933   4.049
  4.427   4.484
 
 Beta MOs
 -- Occupied --
-88.851 -10.307 -10.236 -10.236  -7.905  -5.877  -5.862  -5.859
 -0.845  -0.752  -0.596  -0.579  -0.486  -0.481  -0.467  -0.440
 -0.418  -0.253  -0.196  -0.194
 -- Virtual --
 -0.133  -0.130   0.063   0.112   0.124   0.126   0.134   0.157
  0.192   0.263   0.342   0.404   0.411   0.434   0.456   0.525
  0.529   0.531   0.543   0.643   0.647   0.682   0.702   0.771
  0.775   0.823   0.825   0.834   0.848   0.851   0.854   0.854
  0.868   0.905   0.939   1.196   1.245   1.320   1.330   1.422
  1.516   1.805   1.826   1.864   1.880   1.886   1.981   1.984
  2.023   2.048   2.055   2.065   2.226   2.288   2.317   2.494
  2.543   2.567   2.642   2.672   2.781   2.805   2.882   2.897
  3.113   3.159   3.337   3.363   3.376   3.422   3.933   4.049
  4.427   4.484
 --------------------------------------------------------------
 
          Ground-State Mulliken Net Atomic Charges

     Atom                 Charge (a.u.)    Spin (a.u.)
  --------------------------------------------------------
      1 S                    -0.364857      -0.000000
      2 C                     0.131004       0.000000
      3 C                    -0.389088      -0.000000
      4 C                    -0.389090       0.000000
      5 H                     0.158324       0.000000
      6 H                     0.158066      -0.000000
      7 H                     0.189625      -0.000000
      8 H                     0.189622      -0.000000
      9 H                     0.158233       0.000000
     10 H                     0.158160      -0.000000
  --------------------------------------------------------
  Sum of atomic charges =     0.000000
  Sum of spin   charges =     0.000000

 -----------------------------------------------------------------
                    Cartesian Multipole Moments
 -----------------------------------------------------------------
    Charge (ESU x 10^10)
                 0.0000
    Dipole Moment (Debye)
         X       7.2797      Y       0.0006      Z       0.0093
       Tot       7.2797
    Quadrupole Moments (Debye-Ang)
        XX     -37.2460     XY      -0.0009     YY     -30.8958
        XZ      -0.0061     YZ       0.0013     ZZ     -33.7106
    Octopole Moments (Debye-Ang^2)
       XXX      57.7660    XXY       0.0020    XYY      22.8500
       YYY       0.0076    XXZ       0.0478    XYZ       0.0030
       YYZ       0.0510    XZZ      21.5883    YZZ       0.0026
       ZZZ       0.1630
    Hexadecapole Moments (Debye-Ang^3)
      XXXX    -678.2520   XXXY      -0.0171   XXYY    -161.2243
      XYYY      -0.0236   YYYY    -194.9650   XXXZ      -0.3490
      XXYZ       0.0043   XYYZ      -0.1316   YYYZ      -0.0015
      XXZZ    -131.3140   XYZZ      -0.0069   YYZZ     -43.4169
      XZZZ      -0.3848   YZZZ       0.0108   ZZZZ     -53.7688
 -----------------------------------------------------------------
 Calculating analytic gradient of the SCF energy
 Gradient of SCF Energy
            1           2           3           4           5           6
    1  -0.0474103   0.0475357  -0.0001844  -0.0001845   0.0000512   0.0000413
    2  -0.0000041   0.0000034  -0.0001023   0.0001029   0.0000091   0.0000122
    3  -0.0000535   0.0000302   0.0000163   0.0000148  -0.0000130   0.0000043
            7           8           9          10
    1   0.0000287   0.0000292   0.0000476   0.0000454
    2   0.0000416  -0.0000417  -0.0000100  -0.0000110
    3   0.0000020   0.0000002  -0.0000094   0.0000080
 Max gradient component =       4.754E-02
 RMS gradient           =       1.226E-02
 Gradient time:  CPU 6.66 s  wall 0.56 s
 Geometry Optimization Parameters
   NAtoms,    NIC,     NZ,  NCons,   NDum,   NFix, NCnnct, MaxDiis
       10      56       0       1       0       0       0       0


** CONSTRAINED OPTIMIZATION IN DELOCALIZED INTERNAL COORDINATES **
   Searching for a Minimum

   Optimization Cycle:   1

                       Coordinates (Angstroms)
     ATOM                X               Y               Z
      1  S        -2.5130970000   -0.0002300000   -0.0034230000
      2  C         0.4869020000   -0.0000010000   -0.0006300000
      3  C         1.1862470000    1.2823330000    0.0002360000
      4  C         1.1865430000   -1.2821720000    0.0003810000
      5  H         1.8523200000    1.3363180000    0.8792930000
      6  H         1.8587340000    1.3355360000   -0.8739320000
      7  H         0.5149530000    2.1412610000   -0.0022830000
      8  H         0.5154510000   -2.1412620000   -0.0006120000
      9  H         1.8542750000   -1.3355050000    0.8782060000
     10  H         1.8574060000   -1.3357120000   -0.8750260000
   Point Group: c1    Number of degrees of freedom:    24


   Energy is   -515.910360255

              Constraints and their Current Values
                                        Value     Constraint
   Distance(Angs):        1   2             3.000000     3.100000

 Attempting to Generate Delocalized Internal Coordinates

   Using Lagrange Multiplier Algorithm


 25 Hessian modes will be used to form the next step
  Hessian Eigenvalues:
    -0.987919    0.045000    0.045000    0.045000    0.091379    0.091379
     0.096665    0.096665    0.160000    0.160000    0.160000    0.160000
     0.160000    0.160000    0.250000    0.250000    0.332194    0.332204
     0.332217    0.332228    0.347967    0.347968    0.368845    0.368847
     1.012229

 Minimum Search - Taking P-RFO Step
 Searching for Lamda that Maximizes Along the Constraint modes Only
 Value Taken    Lamda =   0.02770802
 Searching for Lamda that Minimizes Along All other modes
 Value Taken    Lamda =  -0.00960758
 Step Taken.  Stepsize is  0.185065

                             Maximum     Tolerance    Cnvgd?
         Gradient            0.188972       0.000300      NO
         Displacement        0.185062       0.001200      NO
         Energy change     *********       0.000001      NO


 New Cartesian Coordinates Obtained by Inverse Iteration

 Displacement from previous Coordinates is:  0.175371
 ----------------------------------------------------------------
             Standard Nuclear Orientation (Angstroms)
    I     Atom           X                Y                Z
 ----------------------------------------------------------------
    1      S      -2.6011348887    -0.0002339335    -0.0034334452
    2      C       0.4967944991    -0.0000008206    -0.0006193026
    3      C       1.1962095065     1.2823981905     0.0002273520
    4      C       1.1965070219    -1.2822367328     0.0003702233
    5      H       1.8619894986     1.3364239385     0.8794632249
    6      H       1.8685765566     1.3355974602    -0.8739887866
    7      H       0.5245475017     2.1410101576    -0.0023603084
    8      H       0.5250474612    -2.1410113226    -0.0006332848
    9      H       1.8640157438    -1.3355932168     0.8783220611
   10      H       1.8671810992    -1.3357877206    -0.8751377337
 ----------------------------------------------------------------
 Nuclear Repulsion Energy =   122.6755278072 hartrees
 There are       20 alpha and       20 beta electrons

                       Distance Matrix (Angstroms)
             S (  1)   C (  2)   C (  3)   C (  4)   H (  5)   H (  6)
   C (  2)  3.097931
   C (  3)  4.008115  1.460729
   C (  4)  4.008195  1.460728  2.564635
   H (  5)  4.741903  2.103410  1.104191  2.841312
   H (  6)  4.745591  2.104372  1.104156  2.840640  1.753465
   H (  7)  3.788775  2.141192  1.090115  3.488575  1.792686  1.792997
   H (  8)  3.788925  2.141197  3.488580  1.090116  3.828125  3.828136
   H (  9)  4.743232  2.103720  2.840932  1.104180  2.672018  3.194663
   H ( 10)  4.744409  2.104060  2.841015  1.104167  3.196774  2.671386
             H (  7)   H (  8)   H (  9)
   H (  8)  4.282022
   H (  9)  3.828387  1.792790
   H ( 10)  3.827862  1.792893  1.753463
 
 Applying Cartesian multipole field
    Component          Value
    ---------          -----
     (2,0,0)        1.00000E-11
     (0,2,0)        2.00000E-11
     (0,0,2)       -3.00000E-10
 Nucleus-field energy     =     0.0000000043 hartrees
 Requested basis set is 6-31G(d,p)
 There are 35 shells and 94 basis functions
 A cutoff of  1.0D-14 yielded    592 shell pairs
 There are      4324 function pairs
 Smallest overlap matrix eigenvalue = 6.27E-03
 Guess from superposition of atomic densities
 Warning:  Energy on first SCF cycle will be non-variational
 SAD guess density has 40.000000 electrons

 -----------------------------------------------------------------------
  General SCF calculation program by
  Eric Jon Sundstrom, Paul Horn, Yuezhi Mao, Dmitri Zuev, Alec White,
  David Stuck, Shaama M.S., Shane Yost, Joonho Lee, David Small,
  Daniel Levine, Susi Lehtola, Hugh Burton, Evgeny Epifanovsky
 -----------------------------------------------------------------------
 Exchange:     0.2000 Hartree-Fock + 0.0800 Slater + 0.7200 B88
 Correlation:  0.1900 VWN1RPA + 0.8100 LYP
 Using SG-1 standard quadrature grid
 using 12 threads for integral computing
 -------------------------------------------------------
 OpenMP Integral computing Module                
 Release: version 1.0, May 2013, Q-Chem Inc. Pittsburgh 
 -------------------------------------------------------
 -------------------------------------------------------
 OpenMP BLAS3 based DFT computing Module                
 Release: version 1.0, May 2013, Q-Chem Inc. Pittsburgh 
 -------------------------------------------------------
 A unrestricted SCF calculation will be
 performed using DIIS
 SCF converges when DIIS error is below 1.0e-06
 Alpha HF Exchange    Energy =  -4.24020692050020
 Beta HF Exchange     Energy =  -4.24020692050020
 DFT Correlation      Energy =  -1.78725894321796
 DFT Exchange         Energy = -33.42793832236548
 One-Electron (alpha) Energy = -473.67766252766438
 One-Electron (beta)  Energy = -473.67766252766438
 Total Coulomb        Energy = 352.21547150633398
 ---------------------------------------
  Cycle       Energy         DIIS error
 ---------------------------------------
    1    -516.1599368441      2.92e-02  
 Alpha HF Exchange    Energy =  -4.26581776218751
 Beta HF Exchange     Energy =  -4.26581776218751
 DFT Correlation      Energy =  -1.80945030441117
 DFT Exchange         Energy = -33.88740594703919
 One-Electron (alpha) Energy = -476.77132152434416
 One-Electron (beta)  Energy = -476.77132152434405
 Total Coulomb        Energy = 359.51270205466301
    2    -515.5829049583      6.29e-03  
 Alpha HF Exchange    Energy =  -4.25796924536398
 Beta HF Exchange     Energy =  -4.25796924536398
 DFT Correlation      Energy =  -1.80975401761269
 DFT Exchange         Energy = -33.80396403012023
 One-Electron (alpha) Energy = -470.82559398284991
 One-Electron (beta)  Energy = -470.82559398284985
 Total Coulomb        Energy = 352.38350806724759
    3    -510.7218086254      1.78e-02  
 Alpha HF Exchange    Energy =  -4.22570674867092
 Beta HF Exchange     Energy =  -4.22570674867092
 DFT Correlation      Energy =  -1.79297094931013
 DFT Exchange         Energy = -33.57432084263299
 One-Electron (alpha) Energy = -474.77202010325084
 One-Electron (beta)  Energy = -474.77202010325112
 Total Coulomb        Energy = 354.93260275456328
    4    -515.7546149297      4.42e-03  
 Alpha HF Exchange    Energy =  -4.23795066555616
 Beta HF Exchange     Energy =  -4.23795066555616
 DFT Correlation      Energy =  -1.80314731985483
 DFT Exchange         Energy = -33.71622049562009
 One-Electron (alpha) Energy = -474.97986373505779
 One-Electron (beta)  Energy = -474.97986373505785
 Total Coulomb        Energy = 355.49249908088848
    5    -515.7869697243      4.17e-03  
 Alpha HF Exchange    Energy =  -4.23425713878724
 Beta HF Exchange     Energy =  -4.23425713878724
 DFT Correlation      Energy =  -1.80047320464568
 DFT Exchange         Energy = -33.67953992714344
 One-Electron (alpha) Energy = -474.70363329359168
 One-Electron (beta)  Energy = -474.70363329359191
 Total Coulomb        Energy = 354.84555683042606
    6    -515.8347093546      2.97e-03  
 Alpha HF Exchange    Energy =  -4.24081769992109
 Beta HF Exchange     Energy =  -4.24081769992109
 DFT Correlation      Energy =  -1.80073915297762
 DFT Exchange         Energy = -33.70315509287570
 One-Electron (alpha) Energy = -475.23265947409868
 One-Electron (beta)  Energy = -475.23265947409897
 Total Coulomb        Energy = 355.87458776441440
    7    -515.9007330180      3.88e-04  
 Alpha HF Exchange    Energy =  -4.24003945587434
 Beta HF Exchange     Energy =  -4.24003945587435
 DFT Correlation      Energy =  -1.79967027373912
 DFT Exchange         Energy = -33.68817029323290
 One-Electron (alpha) Energy = -475.05751664285970
 One-Electron (beta)  Energy = -475.05751664285975
 Total Coulomb        Energy = 355.50573723093243
    8    -515.9016877220      2.23e-04  
 Alpha HF Exchange    Energy =  -4.24088455233776
 Beta HF Exchange     Energy =  -4.24088455233775
 DFT Correlation      Energy =  -1.79977578347062
 DFT Exchange         Energy = -33.69191938195727
 One-Electron (alpha) Energy = -475.08258901752544
 One-Electron (beta)  Energy = -475.08258901752532
 Total Coulomb        Energy = 355.56135916668029
    9    -515.9017553270      2.18e-04  
 Alpha HF Exchange    Energy =  -4.24108907424453
 Beta HF Exchange     Energy =  -4.24108907424453
 DFT Correlation      Energy =  -1.79975682327378
 DFT Exchange         Energy = -33.69192423278567
 One-Electron (alpha) Energy = -475.07020756450657
 One-Electron (beta)  Energy = -475.07020756450675
 Total Coulomb        Energy = 355.53675164998788
   10    -515.9019948721      1.44e-04  
 Alpha HF Exchange    Energy =  -4.24153872342888
 Beta HF Exchange     Energy =  -4.24153872342887
 DFT Correlation      Energy =  -1.79977971174311
 DFT Exchange         Energy = -33.69296537858239
 One-Electron (alpha) Energy = -475.05868285007023
 One-Electron (beta)  Energy = -475.05868285007023
 Total Coulomb        Energy = 355.51548171295678
   11    -515.9021787129      1.09e-05  
 Alpha HF Exchange    Energy =  -4.24155909234443
 Beta HF Exchange     Energy =  -4.24155909234443
 DFT Correlation      Energy =  -1.79978624830990
 DFT Exchange         Energy = -33.69311279276535
 One-Electron (alpha) Energy = -475.05784885811835
 One-Electron (beta)  Energy = -475.05784885811835
 Total Coulomb        Energy = 355.51400738033692
   12    -515.9021797502      2.48e-06  
 Alpha HF Exchange    Energy =  -4.24153736878575
 Beta HF Exchange     Energy =  -4.24153736878575
 DFT Correlation      Energy =  -1.79978384198988
 DFT Exchange         Energy = -33.69302705729552
 One-Electron (alpha) Energy = -475.05735205646533
 One-Electron (beta)  Energy = -475.05735205646545
 Total Coulomb        Energy = 355.51288215328685
   13    -515.9021797850      2.04e-06  
 Alpha HF Exchange    Energy =  -4.24153213810532
 Beta HF Exchange     Energy =  -4.24153213810532
 DFT Correlation      Energy =  -1.79978350840462
 DFT Exchange         Energy = -33.69301406776242
 One-Electron (alpha) Energy = -475.05751307638832
 One-Electron (beta)  Energy = -475.05751307638855
 Total Coulomb        Energy = 355.51318037270812
   14    -515.9021798209      1.93e-07  Convergence criterion met
 ---------------------------------------
 SCF time:   CPU 25.82s  wall 2.00s 
<S^2> =          0.000000000
 Alpha HF Exchange    Energy =  -4.24153213810532
 Beta HF Exchange     Energy =  -4.24153213810532
 DFT Correlation      Energy =  -1.79978350840462
 DFT Exchange         Energy = -33.69301406776242
 One-Electron (alpha) Energy = -475.05751307638832
 One-Electron (beta)  Energy = -475.05751307638855
 Total Coulomb        Energy = 355.51318037270812
 Nuclear repulsion Energy = 122.67552781150873
 SCF   energy in the final basis set =     -515.9021798209
 Total energy in the final basis set =     -515.9021798209
 
 --------------------------------------------------------------
 
                    Orbital Energies (a.u.)
 --------------------------------------------------------------
 
 Alpha MOs
 -- Occupied --
-88.851 -10.305 -10.236 -10.236  -7.905  -5.878  -5.861  -5.859
 -0.845  -0.752  -0.595  -0.579  -0.487  -0.481  -0.467  -0.441
 -0.418  -0.250  -0.195  -0.193
 -- Virtual --
 -0.135  -0.133   0.062   0.111   0.123   0.126   0.134   0.157
  0.191   0.263   0.341   0.404   0.413   0.432   0.453   0.521
  0.527   0.530   0.537   0.644   0.656   0.685   0.702   0.770
  0.776   0.823   0.824   0.831   0.847   0.849   0.852   0.854
  0.867   0.904   0.917   1.191   1.245   1.317   1.329   1.419
  1.513   1.805   1.826   1.863   1.879   1.885   1.980   1.983
  2.022   2.047   2.053   2.064   2.225   2.287   2.316   2.494
  2.542   2.566   2.642   2.671   2.781   2.804   2.882   2.896
  3.112   3.158   3.336   3.363   3.375   3.421   3.931   4.048
  4.426   4.483
 
 Beta MOs
 -- Occupied --
-88.851 -10.305 -10.236 -10.236  -7.905  -5.878  -5.861  -5.859
 -0.845  -0.752  -0.595  -0.579  -0.487  -0.481  -0.467  -0.441
 -0.418  -0.250  -0.195  -0.193
 -- Virtual --
 -0.135  -0.133   0.062   0.111   0.123   0.126   0.134   0.157
  0.191   0.263   0.341   0.404   0.413   0.432   0.453   0.521
  0.527   0.530   0.537   0.644   0.656   0.685   0.702   0.770
  0.776   0.823   0.824   0.831   0.847   0.849   0.852   0.854
  0.867   0.904   0.917   1.191   1.245   1.317   1.329   1.419
  1.513   1.805   1.826   1.863   1.879   1.885   1.980   1.983
  2.022   2.047   2.053   2.064   2.225   2.287   2.316   2.494
  2.542   2.566   2.642   2.671   2.781   2.804   2.882   2.896
  3.112   3.158   3.336   3.363   3.375   3.421   3.931   4.048
  4.426   4.483
 --------------------------------------------------------------
 
          Ground-State Mulliken Net Atomic Charges

     Atom                 Charge (a.u.)    Spin (a.u.)
  --------------------------------------------------------
      1 S                    -0.362528      -0.000000
      2 C                     0.133213       0.000000
      3 C                    -0.391326      -0.000000
      4 C                    -0.391327      -0.000000
      5 H                     0.158615       0.000000
      6 H                     0.158330      -0.000000
      7 H                     0.189040       0.000000
      8 H                     0.189036      -0.000000
      9 H                     0.158516       0.000000
     10 H                     0.158431       0.000000
  --------------------------------------------------------
  Sum of atomic charges =     0.000000
  Sum of spin   charges =    -0.000000

 -----------------------------------------------------------------
                    Cartesian Multipole Moments
 -----------------------------------------------------------------
    Charge (ESU x 10^10)
                -0.0000
    Dipole Moment (Debye)
         X       7.4549      Y       0.0007      Z       0.0095
       Tot       7.4549
    Quadrupole Moments (Debye-Ang)
        XX     -37.6887     XY      -0.0010     YY     -30.9361
        XZ      -0.0058     YZ       0.0015     ZZ     -33.7457
    Octopole Moments (Debye-Ang^2)
       XXX      61.9462    XXY       0.0022    XYY      24.1083
       YYY       0.0078    XXZ       0.0487    XYZ       0.0034
       YYZ       0.0518    XZZ      23.1323    YZZ       0.0027
       ZZZ       0.1652
    Hexadecapole Moments (Debye-Ang^3)
      XXXX    -715.0318   XXXY      -0.0183   XXYY    -168.6187
      XYYY      -0.0249   YYYY    -195.3032   XXXZ      -0.3541
      XXYZ       0.0045   XYYZ      -0.1354   YYYZ      -0.0014
      XXZZ    -139.3700   XYZZ      -0.0075   YYZZ     -43.4259
      XZZZ      -0.4015   YZZZ       0.0112   ZZZZ     -53.8898
 -----------------------------------------------------------------
 Calculating analytic gradient of the SCF energy
 Gradient of SCF Energy
            1           2           3           4           5           6
    1  -0.0410186   0.0428876  -0.0006998  -0.0006997  -0.0001201  -0.0001363
    2  -0.0000034   0.0000033   0.0006221  -0.0006222  -0.0000032  -0.0000064
    3  -0.0000443   0.0000110   0.0000251   0.0000191   0.0000252  -0.0000363
            7           8           9          10
    1   0.0000212   0.0000216  -0.0001256  -0.0001302
    2  -0.0001207   0.0001205   0.0000043   0.0000056
    3   0.0000019   0.0000001   0.0000297  -0.0000318
 Max gradient component =       4.289E-02
 RMS gradient           =       1.084E-02
 Gradient time:  CPU 6.87 s  wall 0.58 s
 Geometry Optimization Parameters
   NAtoms,    NIC,     NZ,  NCons,   NDum,   NFix, NCnnct, MaxDiis
       10      56       0       1       0       0       0       0

 Cartesian Hessian Update
 Hessian Updated using BFGS Update
**WARNING** Hereditary positive definiteness endangered


** CONSTRAINED OPTIMIZATION IN DELOCALIZED INTERNAL COORDINATES **
   Searching for a Minimum

   Optimization Cycle:   2

                       Coordinates (Angstroms)
     ATOM                X               Y               Z
      1  S        -2.6011348887   -0.0002339335   -0.0034334452
      2  C         0.4967944991   -0.0000008206   -0.0006193026
      3  C         1.1962095065    1.2823981905    0.0002273520
      4  C         1.1965070219   -1.2822367328    0.0003702233
      5  H         1.8619894986    1.3364239385    0.8794632249
      6  H         1.8685765566    1.3355974602   -0.8739887866
      7  H         0.5245475017    2.1410101576   -0.0023603084
      8  H         0.5250474612   -2.1410113226   -0.0006332848
      9  H         1.8640157438   -1.3355932168    0.8783220611
     10  H         1.8671810992   -1.3357877206   -0.8751377337
   Point Group: c1    Number of degrees of freedom:    24


   Energy is   -515.902179821

              Constraints and their Current Values
                                        Value     Constraint
   Distance(Angs):        1   2             3.097931     3.100000
 Hessian Updated using BFGS Update
**WARNING** Hereditary positive definiteness endangered

   Using Lagrange Multiplier Algorithm


 21 Hessian modes will be used to form the next step
  Hessian Eigenvalues:
    -1.017496    0.045000    0.045000    0.045000    0.091379    0.091379
     0.096567    0.096665    0.159900    0.159999    0.244782    0.250000
     0.332184    0.332200    0.332214    0.332225    0.347942    0.347967
     0.368832    0.368846    0.982999

 Minimum Search - Taking P-RFO Step
 Searching for Lamda that Maximizes Along the Constraint modes Only
 Value Taken    Lamda =   0.00001022
 Searching for Lamda that Minimizes Along All other modes
 Value Taken    Lamda =  -0.00010326
 Step Taken.  Stepsize is  0.011467

                             Maximum     Tolerance    Cnvgd?
         Gradient            0.008337       0.000300      NO
         Displacement        0.008616       0.001200      NO
         Energy change      0.008180       0.000001      NO


 New Cartesian Coordinates Obtained by Inverse Iteration

 Displacement from previous Coordinates is:  0.031836
 ----------------------------------------------------------------
             Standard Nuclear Orientation (Angstroms)
    I     Atom           X                Y                Z
 ----------------------------------------------------------------
    1      S      -2.6085247558    -0.0002351746    -0.0033428830
    2      C       0.4914736878    -0.0000014766    -0.0006037620
    3      C       1.1963278466     1.2794405995     0.0001913547
    4      C       1.1966249407    -1.2792790538     0.0003435138
    5      H       1.8628147952     1.3305034583     0.8791793765
    6      H       1.8696456850     1.3296472759    -0.8735850985
    7      H       0.5288918498     2.1415593842    -0.0024678715
    8      H       0.5293907771    -2.1415584292    -0.0006534132
    9      H       1.8649508214    -1.3296602247     0.8779610270
   10      H       1.8681383522    -1.3298503591    -0.8748122437
 ----------------------------------------------------------------
 Nuclear Repulsion Energy =   122.6363406830 hartrees
 There are       20 alpha and       20 beta electrons

                       Distance Matrix (Angstroms)
             S (  1)   C (  2)   C (  3)   C (  4)   H (  5)   H (  6)
   C (  2)  3.100000
   C (  3)  4.014285  1.460751
   C (  4)  4.014366  1.460750  2.558720
   H (  5)  4.747904  2.103530  1.104279  2.833218
   H (  6)  4.751833  2.104619  1.104248  2.832526  1.752778
   H (  7)  3.798772  2.141889  1.090287  3.485400  1.792893  1.793228
   H (  8)  3.798919  2.141893  3.485404  1.090288  3.821955  3.821984
   H (  9)  4.749321  2.103879  2.832833  1.104269  2.660165  3.184313
   H ( 10)  4.750563  2.104268  2.832907  1.104258  3.186534  2.659498
             H (  7)   H (  8)   H (  9)
   H (  8)  4.283118
   H (  9)  3.822247  1.793004
   H ( 10)  3.821682  1.793117  1.752776
 
 Applying Cartesian multipole field
    Component          Value
    ---------          -----
     (2,0,0)        1.00000E-11
     (0,2,0)        2.00000E-11
     (0,0,2)       -3.00000E-10
 Nucleus-field energy     =     0.0000000043 hartrees
 Requested basis set is 6-31G(d,p)
 There are 35 shells and 94 basis functions
 A cutoff of  1.0D-14 yielded    592 shell pairs
 There are      4324 function pairs
 Smallest overlap matrix eigenvalue = 6.27E-03
 Guess from superposition of atomic densities
 Warning:  Energy on first SCF cycle will be non-variational
 SAD guess density has 40.000000 electrons

 -----------------------------------------------------------------------
  General SCF calculation program by
  Eric Jon Sundstrom, Paul Horn, Yuezhi Mao, Dmitri Zuev, Alec White,
  David Stuck, Shaama M.S., Shane Yost, Joonho Lee, David Small,
  Daniel Levine, Susi Lehtola, Hugh Burton, Evgeny Epifanovsky
 -----------------------------------------------------------------------
 Exchange:     0.2000 Hartree-Fock + 0.0800 Slater + 0.7200 B88
 Correlation:  0.1900 VWN1RPA + 0.8100 LYP
 Using SG-1 standard quadrature grid
 using 12 threads for integral computing
 -------------------------------------------------------
 OpenMP Integral computing Module                
 Release: version 1.0, May 2013, Q-Chem Inc. Pittsburgh 
 -------------------------------------------------------
 -------------------------------------------------------
 OpenMP BLAS3 based DFT computing Module                
 Release: version 1.0, May 2013, Q-Chem Inc. Pittsburgh 
 -------------------------------------------------------
 A unrestricted SCF calculation will be
 performed using DIIS
 SCF converges when DIIS error is below 1.0e-06
 Alpha HF Exchange    Energy =  -4.24022688521673
 Beta HF Exchange     Energy =  -4.24022688521673
 DFT Correlation      Energy =  -1.78727041576279
 DFT Exchange         Energy = -33.42791922693684
 One-Electron (alpha) Energy = -473.63883919755693
 One-Electron (beta)  Energy = -473.63883919755693
 Total Coulomb        Energy = 352.17695374135775
 ---------------------------------------
  Cycle       Energy         DIIS error
 ---------------------------------------
    1    -516.1600273796      2.92e-02  
 Alpha HF Exchange    Energy =  -4.26570524866265
 Beta HF Exchange     Energy =  -4.26570524866265
 DFT Correlation      Energy =  -1.80945236992185
 DFT Exchange         Energy = -33.88707463749089
 One-Electron (alpha) Energy = -476.72611163850496
 One-Electron (beta)  Energy = -476.72611163850468
 Total Coulomb        Energy = 359.45763392722256
    2    -515.5861861672      6.27e-03  
 Alpha HF Exchange    Energy =  -4.25772457405161
 Beta HF Exchange     Energy =  -4.25772457405162
 DFT Correlation      Energy =  -1.80966816592400
 DFT Exchange         Energy = -33.80178077336968
 One-Electron (alpha) Energy = -470.78112634599665
 One-Electron (beta)  Energy = -470.78112634599665
 Total Coulomb        Energy = 352.32191649873948
    3    -510.7308935933      1.77e-02  
 Alpha HF Exchange    Energy =  -4.22579675427460
 Beta HF Exchange     Energy =  -4.22579675427459
 DFT Correlation      Energy =  -1.79295494912455
 DFT Exchange         Energy = -33.57478921047408
 One-Electron (alpha) Energy = -474.74083439657340
 One-Electron (beta)  Energy = -474.74083439657306
 Total Coulomb        Energy = 354.91712949623928
    4    -515.7475362777      4.51e-03  
 Alpha HF Exchange    Energy =  -4.23833768546061
 Beta HF Exchange     Energy =  -4.23833768546061
 DFT Correlation      Energy =  -1.80275944344950
 DFT Exchange         Energy = -33.71343056518543
 One-Electron (alpha) Energy = -474.97693462871962
 One-Electron (beta)  Energy = -474.97693462871950
 Total Coulomb        Energy = 355.49180626216514
    5    -515.8185876875      3.54e-03  
 Alpha HF Exchange    Energy =  -4.23477207744989
 Beta HF Exchange     Energy =  -4.23477207744988
 DFT Correlation      Energy =  -1.80022448969240
 DFT Exchange         Energy = -33.67866077386164
 One-Electron (alpha) Energy = -474.68201966937846
 One-Electron (beta)  Energy = -474.68201966937801
 Total Coulomb        Energy = 354.82656002628960
    6    -515.8495680436      2.58e-03  
 Alpha HF Exchange    Energy =  -4.24037144694808
 Beta HF Exchange     Energy =  -4.24037144694808
 DFT Correlation      Energy =  -1.80053835317828
 DFT Exchange         Energy = -33.69935401597039
 One-Electron (alpha) Energy = -475.12461109653594
 One-Electron (beta)  Energy = -475.12461109653589
 Total Coulomb        Energy = 355.69253981399447
    7    -515.9009769548      3.36e-04  
 Alpha HF Exchange    Energy =  -4.24029707423097
 Beta HF Exchange     Energy =  -4.24029707423096
 DFT Correlation      Energy =  -1.79969302081833
 DFT Exchange         Energy = -33.68907447614973
 One-Electron (alpha) Energy = -475.01629840480427
 One-Electron (beta)  Energy = -475.01629840480410
 Total Coulomb        Energy = 355.46391021802299
    8    -515.9017075497      1.75e-04  
 Alpha HF Exchange    Energy =  -4.24105917212727
 Beta HF Exchange     Energy =  -4.24105917212727
 DFT Correlation      Energy =  -1.79978001540873
 DFT Exchange         Energy = -33.69234519359897
 One-Electron (alpha) Energy = -475.03834508298178
 One-Electron (beta)  Energy = -475.03834508298183
 Total Coulomb        Energy = 355.51284029677367
    9    -515.9017527351      1.76e-04  
 Alpha HF Exchange    Energy =  -4.24127454272882
 Beta HF Exchange     Energy =  -4.24127454272880
 DFT Correlation      Energy =  -1.79976090566773
 DFT Exchange         Energy = -33.69241991027364
 One-Electron (alpha) Energy = -475.02767558651044
 One-Electron (beta)  Energy = -475.02767558650987
 Total Coulomb        Energy = 355.49182242871262
   10    -515.9019179584      1.16e-04  
 Alpha HF Exchange    Energy =  -4.24165609087477
 Beta HF Exchange     Energy =  -4.24165609087477
 DFT Correlation      Energy =  -1.79977525533579
 DFT Exchange         Energy = -33.69324072620144
 One-Electron (alpha) Energy = -475.01775706051541
 One-Electron (beta)  Energy = -475.01775706051535
 Total Coulomb        Energy = 355.47346222197928
   11    -515.9020393750      8.57e-06  
 Alpha HF Exchange    Energy =  -4.24168965142017
 Beta HF Exchange     Energy =  -4.24168965142018
 DFT Correlation      Energy =  -1.79978323806776
 DFT Exchange         Energy = -33.69344019639962
 One-Electron (alpha) Energy = -475.01762745616429
 One-Electron (beta)  Energy = -475.01762745616463
 Total Coulomb        Energy = 355.47347700011011
   12    -515.9020399622      2.38e-06  
 Alpha HF Exchange    Energy =  -4.24167046975746
 Beta HF Exchange     Energy =  -4.24167046975745
 DFT Correlation      Energy =  -1.79978096846993
 DFT Exchange         Energy = -33.69336377165161
 One-Electron (alpha) Energy = -475.01717381049281
 One-Electron (beta)  Energy = -475.01717381049252
 Total Coulomb        Energy = 355.47245262077070
   13    -515.9020399925      1.82e-06  
 Alpha HF Exchange    Energy =  -4.24166617340433
 Beta HF Exchange     Energy =  -4.24166617340433
 DFT Correlation      Energy =  -1.79978060931557
 DFT Exchange         Energy = -33.69335240190501
 One-Electron (alpha) Energy = -475.01731746149483
 One-Electron (beta)  Energy = -475.01731746149477
 Total Coulomb        Energy = 355.47271957304827
   14    -515.9020400207      1.13e-07  Convergence criterion met
 ---------------------------------------
 SCF time:   CPU 27.00s  wall 3.00s 
<S^2> =         -0.000000000
 Alpha HF Exchange    Energy =  -4.24166617340433
 Beta HF Exchange     Energy =  -4.24166617340433
 DFT Correlation      Energy =  -1.79978060931557
 DFT Exchange         Energy = -33.69335240190501
 One-Electron (alpha) Energy = -475.01731746149483
 One-Electron (beta)  Energy = -475.01731746149477
 Total Coulomb        Energy = 355.47271957304827
 Nuclear repulsion Energy = 122.63634068731120
 SCF   energy in the final basis set =     -515.9020400207
 Total energy in the final basis set =     -515.9020400207
 
 --------------------------------------------------------------
 
                    Orbital Energies (a.u.)
 --------------------------------------------------------------
 
 Alpha MOs
 -- Occupied --
-88.851 -10.305 -10.236 -10.236  -7.905  -5.878  -5.861  -5.860
 -0.846  -0.752  -0.595  -0.579  -0.487  -0.481  -0.467  -0.440
 -0.418  -0.250  -0.195  -0.194
 -- Virtual --
 -0.136  -0.133   0.062   0.111   0.123   0.125   0.134   0.157
  0.191   0.263   0.340   0.404   0.412   0.432   0.455   0.520
  0.527   0.530   0.537   0.644   0.656   0.685   0.703   0.770
  0.776   0.823   0.825   0.831   0.847   0.849   0.852   0.854
  0.867   0.904   0.917   1.190   1.246   1.321   1.328   1.417
  1.513   1.804   1.826   1.865   1.879   1.886   1.979   1.983
  2.022   2.047   2.054   2.066   2.227   2.287   2.317   2.493
  2.542   2.567   2.643   2.671   2.780   2.804   2.881   2.896
  3.111   3.158   3.336   3.362   3.375   3.422   3.931   4.048
  4.426   4.483
 
 Beta MOs
 -- Occupied --
-88.851 -10.305 -10.236 -10.236  -7.905  -5.878  -5.861  -5.860
 -0.846  -0.752  -0.595  -0.579  -0.487  -0.481  -0.467  -0.440
 -0.418  -0.250  -0.195  -0.194
 -- Virtual --
 -0.136  -0.133   0.062   0.111   0.123   0.125   0.134   0.157
  0.191   0.263   0.340   0.404   0.412   0.432   0.455   0.520
  0.527   0.530   0.537   0.644   0.656   0.685   0.703   0.770
  0.776   0.823   0.825   0.831   0.847   0.849   0.852   0.854
  0.867   0.904   0.917   1.190   1.246   1.321   1.328   1.417
  1.513   1.804   1.826   1.865   1.879   1.886   1.979   1.983
  2.022   2.047   2.054   2.066   2.227   2.287   2.317   2.493
  2.542   2.567   2.643   2.671   2.780   2.804   2.881   2.896
  3.111   3.158   3.336   3.362   3.375   3.422   3.931   4.048
  4.426   4.483
 --------------------------------------------------------------
 
          Ground-State Mulliken Net Atomic Charges

     Atom                 Charge (a.u.)    Spin (a.u.)
  --------------------------------------------------------
      1 S                    -0.360900      -0.000000
      2 C                     0.133103       0.000000
      3 C                    -0.391321       0.000000
      4 C                    -0.391322      -0.000000
      5 H                     0.158558      -0.000000
      6 H                     0.158252       0.000000
      7 H                     0.188410      -0.000000
      8 H                     0.188407       0.000000
      9 H                     0.158453      -0.000000
     10 H                     0.158359       0.000000
  --------------------------------------------------------
  Sum of atomic charges =    -0.000000
  Sum of spin   charges =     0.000000

 -----------------------------------------------------------------
                    Cartesian Multipole Moments
 -----------------------------------------------------------------
    Charge (ESU x 10^10)
                -0.0000
    Dipole Moment (Debye)
         X       7.4499      Y       0.0007      Z       0.0093
       Tot       7.4499
    Quadrupole Moments (Debye-Ang)
        XX     -37.6951     XY      -0.0010     YY     -30.9745
        XZ      -0.0049     YZ       0.0016     ZZ     -33.7525
    Octopole Moments (Debye-Ang^2)
       XXX      62.2598    XXY       0.0022    XYY      24.1971
       YYY       0.0079    XXZ       0.0467    XYZ       0.0036
       YYZ       0.0506    XZZ      23.2621    YZZ       0.0027
       ZZZ       0.1621
    Hexadecapole Moments (Debye-Ang^3)
      XXXX    -717.4396   XXXY      -0.0185   XXYY    -169.1544
      XYYY      -0.0252   YYYY    -194.6989   XXXZ      -0.3389
      XXYZ       0.0046   XYYZ      -0.1310   YYYZ      -0.0017
      XXZZ    -139.9953   XYZZ      -0.0076   YYZZ     -43.3526
      XZZZ      -0.3892   YZZZ       0.0117   ZZZZ     -53.8954
 -----------------------------------------------------------------
 Calculating analytic gradient of the SCF energy
 Gradient of SCF Energy
            1           2           3           4           5           6
    1  -0.0407461   0.0419147  -0.0005261  -0.0005260   0.0000080  -0.0000068
    2  -0.0000034   0.0000031   0.0000115  -0.0000115  -0.0000009  -0.0000003
    3  -0.0000433   0.0000083   0.0000286   0.0000230   0.0000299  -0.0000441
            7           8           9          10
    1  -0.0000597  -0.0000594   0.0000030  -0.0000014
    2  -0.0000644   0.0000643   0.0000006   0.0000009
    3   0.0000015  -0.0000005   0.0000353  -0.0000387
 Max gradient component =       4.191E-02
 RMS gradient           =       1.067E-02
 Gradient time:  CPU 6.79 s  wall 0.57 s
 Geometry Optimization Parameters
   NAtoms,    NIC,     NZ,  NCons,   NDum,   NFix, NCnnct, MaxDiis
       10      56       0       1       0       0       0       0

 Cartesian Hessian Update
 Hessian Updated using BFGS Update


** CONSTRAINED OPTIMIZATION IN DELOCALIZED INTERNAL COORDINATES **
   Searching for a Minimum

   Optimization Cycle:   3

                       Coordinates (Angstroms)
     ATOM                X               Y               Z
      1  S        -2.6085247558   -0.0002351746   -0.0033428830
      2  C         0.4914736878   -0.0000014766   -0.0006037620
      3  C         1.1963278466    1.2794405995    0.0001913547
      4  C         1.1966249407   -1.2792790538    0.0003435138
      5  H         1.8628147952    1.3305034583    0.8791793765
      6  H         1.8696456850    1.3296472759   -0.8735850985
      7  H         0.5288918498    2.1415593842   -0.0024678715
      8  H         0.5293907771   -2.1415584292   -0.0006534132
      9  H         1.8649508214   -1.3296602247    0.8779610270
     10  H         1.8681383522   -1.3298503591   -0.8748122437
   Point Group: c1    Number of degrees of freedom:    24


   Energy is   -515.902040021

              Constraints and their Current Values
                                        Value     Constraint
   Distance(Angs):        1   2             3.100000     3.100000
 Hessian Updated using BFGS Update

 19 Hessian modes will be used to form the next step
  Hessian Eigenvalues:
     0.044931    0.045000    0.045000    0.090760    0.091379    0.091992
     0.096665    0.117551    0.160000    0.160569    0.168040    0.250000
     0.332198    0.332211    0.332224    0.333263    0.347967    0.348045
     0.394559

 Minimum Search - Taking Simple RFO Step
 Searching for Lamda that Minimizes Along All modes
 Value Taken    Lamda =  -0.00001572
 Step Taken.  Stepsize is  0.011944

                             Maximum     Tolerance    Cnvgd?
         Gradient           0.000890      0.000300      NO
         Displacement       0.008907      0.001200      NO
         Energy change      0.000140      0.000001      NO


 New Cartesian Coordinates Obtained by Inverse Iteration

 Displacement from previous Coordinates is:  0.032626
 ----------------------------------------------------------------
             Standard Nuclear Orientation (Angstroms)
    I     Atom           X                Y                Z
 ----------------------------------------------------------------
    1      S      -2.6148424652    -0.0002356378    -0.0031332623
    2      C       0.4851561152    -0.0000020847    -0.0005535908
    3      C       1.1962625088     1.2770743066     0.0001219619
    4      C       1.1965592419    -1.2769128732     0.0002799730
    5      H       1.8630225798     1.3246841432     0.8789928905
    6      H       1.8703808770     1.3236913680    -0.8731221272
    7      H       0.5343327526     2.1435058038    -0.0027214749
    8      H       0.5348313423    -2.1435035006    -0.0007153927
    9      H       1.8653974837    -1.3237932084     0.8775935328
   10      H       1.8686335639    -1.3239423169    -0.8745325103
 ----------------------------------------------------------------
 Nuclear Repulsion Energy =   122.5932699874 hartrees
 There are       20 alpha and       20 beta electrons

                       Distance Matrix (Angstroms)
             S (  1)   C (  2)   C (  3)   C (  4)   H (  5)   H (  6)
   C (  2)  3.100000
   C (  3)  4.019459  1.461710
   C (  4)  4.019540  1.461710  2.553987
   H (  5)  4.752350  2.104023  1.104196  2.825706
   H (  6)  4.756773  2.105324  1.104158  2.824891  1.752131
   H (  7)  3.809584  2.144073  1.090350  3.483937  1.792570  1.792963
   H (  8)  3.809731  2.144077  3.483941  1.090350  3.816583  3.816573
   H (  9)  4.753949  2.104431  2.825280  1.104184  2.648479  3.173989
   H ( 10)  4.755323  2.104915  2.825313  1.104171  3.176493  2.647635
             H (  7)   H (  8)   H (  9)
   H (  8)  4.287010
   H (  9)  3.816916  1.792696
   H ( 10)  3.816230  1.792837  1.752129
 
 Applying Cartesian multipole field
    Component          Value
    ---------          -----
     (2,0,0)        1.00000E-11
     (0,2,0)        2.00000E-11
     (0,0,2)       -3.00000E-10
 Nucleus-field energy     =     0.0000000044 hartrees
 Requested basis set is 6-31G(d,p)
 There are 35 shells and 94 basis functions
 A cutoff of  1.0D-14 yielded    592 shell pairs
 There are      4324 function pairs
 Smallest overlap matrix eigenvalue = 6.28E-03
 Guess from superposition of atomic densities
 Warning:  Energy on first SCF cycle will be non-variational
 SAD guess density has 40.000000 electrons

 -----------------------------------------------------------------------
  General SCF calculation program by
  Eric Jon Sundstrom, Paul Horn, Yuezhi Mao, Dmitri Zuev, Alec White,
  David Stuck, Shaama M.S., Shane Yost, Joonho Lee, David Small,
  Daniel Levine, Susi Lehtola, Hugh Burton, Evgeny Epifanovsky
 -----------------------------------------------------------------------
 Exchange:     0.2000 Hartree-Fock + 0.0800 Slater + 0.7200 B88
 Correlation:  0.1900 VWN1RPA + 0.8100 LYP
 Using SG-1 standard quadrature grid
 using 12 threads for integral computing
 -------------------------------------------------------
 OpenMP Integral computing Module                
 Release: version 1.0, May 2013, Q-Chem Inc. Pittsburgh 
 -------------------------------------------------------
 -------------------------------------------------------
 OpenMP BLAS3 based DFT computing Module                
 Release: version 1.0, May 2013, Q-Chem Inc. Pittsburgh 
 -------------------------------------------------------
 A unrestricted SCF calculation will be
 performed using DIIS
 SCF converges when DIIS error is below 1.0e-06
 Alpha HF Exchange    Energy =  -4.24009664275204
 Beta HF Exchange     Energy =  -4.24009664275204
 DFT Correlation      Energy =  -1.78725570416922
 DFT Exchange         Energy = -33.42760267776784
 One-Electron (alpha) Energy = -473.59665188187972
 One-Electron (beta)  Energy = -473.59665188187972
 Total Coulomb        Energy = 352.13658416006149
 ---------------------------------------
  Cycle       Energy         DIIS error
 ---------------------------------------
    1    -516.1585012794      2.91e-02  
 Alpha HF Exchange    Energy =  -4.26554067282216
 Beta HF Exchange     Energy =  -4.26554067282216
 DFT Correlation      Energy =  -1.80941409905444
 DFT Exchange         Energy = -33.88628066131154
 One-Electron (alpha) Energy = -476.67506523545285
 One-Electron (beta)  Energy = -476.67506523545302
 Total Coulomb        Energy = 359.39368972084003
    2    -515.5899468644      6.24e-03  
 Alpha HF Exchange    Energy =  -4.25742940200128
 Beta HF Exchange     Energy =  -4.25742940200128
 DFT Correlation      Energy =  -1.80954981904973
 DFT Exchange         Energy = -33.79924065701375
 One-Electron (alpha) Energy = -470.73278911918555
 One-Electron (beta)  Energy = -470.73278911918550
 Total Coulomb        Energy = 352.25451614300857
    3    -510.7414413837      1.77e-02  
 Alpha HF Exchange    Energy =  -4.22587893118209
 Beta HF Exchange     Energy =  -4.22587893118209
 DFT Correlation      Energy =  -1.79291824440829
 DFT Exchange         Energy = -33.57513359400907
 One-Electron (alpha) Energy = -474.70872172545859
 One-Electron (beta)  Energy = -474.70872172545853
 Total Coulomb        Energy = 354.90395943678368
    4    -515.7400237232      4.61e-03  
 Alpha HF Exchange    Energy =  -4.23876601490316
 Beta HF Exchange     Energy =  -4.23876601490315
 DFT Correlation      Energy =  -1.80237747884976
 DFT Exchange         Energy = -33.71066970676895
 One-Electron (alpha) Energy = -474.96493774623553
 One-Electron (beta)  Energy = -474.96493774623531
 Total Coulomb        Energy = 355.48455488388095
    5    -515.8426298323      2.98e-03  
 Alpha HF Exchange    Energy =  -4.23526255603047
 Beta HF Exchange     Energy =  -4.23526255603047
 DFT Correlation      Energy =  -1.80000229868264
 DFT Exchange         Energy = -33.67796256917190
 One-Electron (alpha) Energy = -474.65359232477448
 One-Electron (beta)  Energy = -474.65359232477414
 Total Coulomb        Energy = 354.80223254823750
    6    -515.8601720895      2.27e-03  
 Alpha HF Exchange    Energy =  -4.23985497623864
 Beta HF Exchange     Energy =  -4.23985497623864
 DFT Correlation      Energy =  -1.80031059303758
 DFT Exchange         Energy = -33.69523450294722
 One-Electron (alpha) Energy = -475.01273037123042
 One-Electron (beta)  Energy = -475.01273037123070
 Total Coulomb        Energy = 355.50703163744981
    7    -515.9004141618      4.22e-04  
 Alpha HF Exchange    Energy =  -4.24047877269931
 Beta HF Exchange     Energy =  -4.24047877269932
 DFT Correlation      Energy =  -1.79968599441956
 DFT Exchange         Energy = -33.68954024061949
 One-Electron (alpha) Energy = -474.97151991910954
 One-Electron (beta)  Energy = -474.97151991910994
 Total Coulomb        Energy = 355.41811868738688
    8    -515.9018349395      1.28e-04  
 Alpha HF Exchange    Energy =  -4.24117120686451
 Beta HF Exchange     Energy =  -4.24117120686451
 DFT Correlation      Energy =  -1.79975288246321
 DFT Exchange         Energy = -33.69235594428162
 One-Electron (alpha) Energy = -474.99073785067873
 One-Electron (beta)  Energy = -474.99073785067878
 Total Coulomb        Energy = 355.46079628846235
    9    -515.9018606616      1.39e-04  
 Alpha HF Exchange    Energy =  -4.24138837702792
 Beta HF Exchange     Energy =  -4.24138837702792
 DFT Correlation      Energy =  -1.79973437199259
 DFT Exchange         Energy = -33.69249409294118
 One-Electron (alpha) Energy = -474.98225779685316
 One-Electron (beta)  Energy = -474.98225779685328
 Total Coulomb        Energy = 355.44428655541003
   10    -515.9019642656      9.48e-05  
 Alpha HF Exchange    Energy =  -4.24171132200974
 Beta HF Exchange     Energy =  -4.24171132200974
 DFT Correlation      Energy =  -1.79974164417618
 DFT Exchange         Energy = -33.69312154540842
 One-Electron (alpha) Energy = -474.97337341509353
 One-Electron (beta)  Energy = -474.97337341509376
 Total Coulomb        Energy = 355.42771526914152
   11    -515.9020474029      6.82e-06  
 Alpha HF Exchange    Energy =  -4.24175447155793
 Beta HF Exchange     Energy =  -4.24175447155793
 DFT Correlation      Energy =  -1.79975064221292
 DFT Exchange         Energy = -33.69335739940297
 One-Electron (alpha) Energy = -474.97369757639217
 One-Electron (beta)  Energy = -474.97369757639217
 Total Coulomb        Energy = 355.42869442188902
   12    -515.9020477239      2.77e-06  
 Alpha HF Exchange    Energy =  -4.24173614478623
 Beta HF Exchange     Energy =  -4.24173614478623
 DFT Correlation      Energy =  -1.79974843443265
 DFT Exchange         Energy = -33.69328594919278
 One-Electron (alpha) Energy = -474.97333124860398
 One-Electron (beta)  Energy = -474.97333124860404
 Total Coulomb        Energy = 355.42785140733054
   13    -515.9020477714      1.66e-06  
 Alpha HF Exchange    Energy =  -4.24173252082744
 Beta HF Exchange     Energy =  -4.24173252082743
 DFT Correlation      Energy =  -1.79974806038762
 DFT Exchange         Energy = -33.69327592983702
 One-Electron (alpha) Energy = -474.97346854896676
 One-Electron (beta)  Energy = -474.97346854896625
 Total Coulomb        Energy = 355.42810834347011
   14    -515.9020477946      2.01e-08  Convergence criterion met
 ---------------------------------------
 SCF time:   CPU 27.02s  wall 2.00s 
<S^2> =         -0.000000000
 Alpha HF Exchange    Energy =  -4.24173252082744
 Beta HF Exchange     Energy =  -4.24173252082743
 DFT Correlation      Energy =  -1.79974806038762
 DFT Exchange         Energy = -33.69327592983702
 One-Electron (alpha) Energy = -474.97346854896676
 One-Electron (beta)  Energy = -474.97346854896625
 Total Coulomb        Energy = 355.42810834347011
 Nuclear repulsion Energy = 122.59326999172286
 SCF   energy in the final basis set =     -515.9020477946
 Total energy in the final basis set =     -515.9020477946
 
 --------------------------------------------------------------
 
                    Orbital Energies (a.u.)
 --------------------------------------------------------------
 
 Alpha MOs
 -- Occupied --
-88.851 -10.305 -10.236 -10.236  -7.906  -5.879  -5.861  -5.860
 -0.846  -0.751  -0.595  -0.579  -0.486  -0.481  -0.466  -0.440
 -0.417  -0.251  -0.195  -0.194
 -- Virtual --
 -0.136  -0.133   0.062   0.112   0.123   0.125   0.134   0.157
  0.191   0.263   0.340   0.404   0.412   0.432   0.456   0.519
  0.527   0.530   0.537   0.643   0.656   0.684   0.704   0.770
  0.777   0.823   0.825   0.831   0.847   0.849   0.851   0.854
  0.867   0.904   0.916   1.188   1.246   1.325   1.327   1.414
  1.511   1.804   1.825   1.866   1.878   1.886   1.979   1.983
  2.021   2.046   2.055   2.068   2.229   2.287   2.318   2.491
  2.542   2.568   2.644   2.672   2.779   2.804   2.880   2.894
  3.111   3.159   3.336   3.362   3.375   3.423   3.931   4.048
  4.426   4.483
 
 Beta MOs
 -- Occupied --
-88.851 -10.305 -10.236 -10.236  -7.906  -5.879  -5.861  -5.860
 -0.846  -0.751  -0.595  -0.579  -0.486  -0.481  -0.466  -0.440
 -0.417  -0.251  -0.195  -0.194
 -- Virtual --
 -0.136  -0.133   0.062   0.112   0.123   0.125   0.134   0.157
  0.191   0.263   0.340   0.404   0.412   0.432   0.456   0.519
  0.527   0.530   0.537   0.643   0.656   0.684   0.704   0.770
  0.777   0.823   0.825   0.831   0.847   0.849   0.851   0.854
  0.867   0.904   0.916   1.188   1.246   1.325   1.327   1.414
  1.511   1.804   1.825   1.866   1.878   1.886   1.979   1.983
  2.021   2.046   2.055   2.068   2.229   2.287   2.318   2.491
  2.542   2.568   2.644   2.672   2.779   2.804   2.880   2.894
  3.111   3.159   3.336   3.362   3.375   3.423   3.931   4.048
  4.426   4.483
 --------------------------------------------------------------
 
          Ground-State Mulliken Net Atomic Charges

     Atom                 Charge (a.u.)    Spin (a.u.)
  --------------------------------------------------------
      1 S                    -0.359080       0.000000
      2 C                     0.132773      -0.000000
      3 C                    -0.391162       0.000000
      4 C                    -0.391163       0.000000
      5 H                     0.158481      -0.000000
      6 H                     0.158130       0.000000
      7 H                     0.187706      -0.000000
      8 H                     0.187703       0.000000
      9 H                     0.158364      -0.000000
     10 H                     0.158249       0.000000
  --------------------------------------------------------
  Sum of atomic charges =    -0.000000
  Sum of spin   charges =     0.000000

 -----------------------------------------------------------------
                    Cartesian Multipole Moments
 -----------------------------------------------------------------
    Charge (ESU x 10^10)
                -0.0000
    Dipole Moment (Debye)
         X       7.4382      Y       0.0007      Z       0.0090
       Tot       7.4382
    Quadrupole Moments (Debye-Ang)
        XX     -37.6991     XY      -0.0010     YY     -31.0066
        XZ      -0.0027     YZ       0.0018     ZZ     -33.7588
    Octopole Moments (Debye-Ang^2)
       XXX      62.4894    XXY       0.0022    XYY      24.2810
       YYY       0.0079    XXZ       0.0420    XYZ       0.0040
       YYZ       0.0480    XZZ      23.3699    YZZ       0.0027
       ZZZ       0.1546
    Hexadecapole Moments (Debye-Ang^3)
      XXXX    -719.3424   XXXY      -0.0185   XXYY    -169.6193
      XYYY      -0.0254   YYYY    -194.1404   XXXZ      -0.3048
      XXYZ       0.0049   XYYZ      -0.1201   YYYZ      -0.0024
      XXZZ    -140.5099   XYZZ      -0.0076   YYZZ     -43.3043
      XZZZ      -0.3595   YZZZ       0.0127   ZZZZ     -53.8960
 -----------------------------------------------------------------
 Calculating analytic gradient of the SCF energy
 Gradient of SCF Energy
            1           2           3           4           5           6
    1  -0.0405973   0.0406962  -0.0001698  -0.0001696   0.0000552   0.0000378
    2  -0.0000034   0.0000030  -0.0000943   0.0000944   0.0000103   0.0000135
    3  -0.0000417   0.0000026   0.0000303   0.0000274  -0.0000201   0.0000044
            7           8           9          10
    1   0.0000270   0.0000273   0.0000493   0.0000440
    2   0.0000415  -0.0000416  -0.0000116  -0.0000119
    3   0.0000023  -0.0000005  -0.0000146   0.0000099
 Max gradient component =       4.070E-02
 RMS gradient           =       1.050E-02
 Gradient time:  CPU 6.57 s  wall 0.55 s
 Geometry Optimization Parameters
   NAtoms,    NIC,     NZ,  NCons,   NDum,   NFix, NCnnct, MaxDiis
       10      56       0       1       0       0       0       0

 Cartesian Hessian Update
 Hessian Updated using BFGS Update


** CONSTRAINED OPTIMIZATION IN DELOCALIZED INTERNAL COORDINATES **
   Searching for a Minimum

   Optimization Cycle:   4

                       Coordinates (Angstroms)
     ATOM                X               Y               Z
      1  S        -2.6148424652   -0.0002356378   -0.0031332623
      2  C         0.4851561152   -0.0000020847   -0.0005535908
      3  C         1.1962625088    1.2770743066    0.0001219619
      4  C         1.1965592419   -1.2769128732    0.0002799730
      5  H         1.8630225798    1.3246841432    0.8789928905
      6  H         1.8703808770    1.3236913680   -0.8731221272
      7  H         0.5343327526    2.1435058038   -0.0027214749
      8  H         0.5348313423   -2.1435035006   -0.0007153927
      9  H         1.8653974837   -1.3237932084    0.8775935328
     10  H         1.8686335639   -1.3239423169   -0.8745325103
   Point Group: c1    Number of degrees of freedom:    24


   Energy is   -515.902047795

              Constraints and their Current Values
                                        Value     Constraint
   Distance(Angs):        1   2             3.100000     3.100000
 Hessian Updated using BFGS Update

 21 Hessian modes will be used to form the next step
  Hessian Eigenvalues:
     0.044738    0.045000    0.045000    0.091082    0.091379    0.096665
     0.097037    0.114445    0.160000    0.160031    0.161218    0.165963
     0.250000    0.332198    0.332211    0.332224    0.333330    0.347967
     0.348134    0.368846    0.392724

 Minimum Search - Taking Simple RFO Step
 Searching for Lamda that Minimizes Along All modes
 Value Taken    Lamda =   0.00000000
 Step Taken.  Stepsize is  0.001317

                             Maximum     Tolerance    Cnvgd?
         Gradient           0.000160      0.000300     YES
         Displacement       0.000905      0.001200     YES
         Energy change     -0.000008      0.000001      NO


                       Distance Matrix (Angstroms)
             S (  1)   C (  2)   C (  3)   C (  4)   H (  5)   H (  6)
   C (  2)  3.100000
   C (  3)  4.019459  1.461710
   C (  4)  4.019540  1.461710  2.553987
   H (  5)  4.752350  2.104023  1.104196  2.825706
   H (  6)  4.756773  2.105324  1.104158  2.824891  1.752131
   H (  7)  3.809584  2.144073  1.090350  3.483937  1.792570  1.792963
   H (  8)  3.809731  2.144077  3.483941  1.090350  3.816583  3.816573
   H (  9)  4.753949  2.104431  2.825280  1.104184  2.648479  3.173989
   H ( 10)  4.755323  2.104915  2.825313  1.104171  3.176493  2.647635
             H (  7)   H (  8)   H (  9)
   H (  8)  4.287010
   H (  9)  3.816916  1.792696
   H ( 10)  3.816230  1.792837  1.752129
 
 Final energy is   -515.902047794620     


 ******************************
 **  OPTIMIZATION CONVERGED  **
 ******************************

                       Coordinates (Angstroms)
     ATOM                X               Y               Z
      1  S        -2.6148424652   -0.0002356378   -0.0031332623
      2  C         0.4851561152   -0.0000020847   -0.0005535908
      3  C         1.1962625088    1.2770743066    0.0001219619
      4  C         1.1965592419   -1.2769128732    0.0002799730
      5  H         1.8630225798    1.3246841432    0.8789928905
      6  H         1.8703808770    1.3236913680   -0.8731221272
      7  H         0.5343327526    2.1435058038   -0.0027214749
      8  H         0.5348313423   -2.1435035006   -0.0007153927
      9  H         1.8653974837   -1.3237932084    0.8775935328
     10  H         1.8686335639   -1.3239423169   -0.8745325103

Z-matrix Print:
$molecule
0 1
S 
C  1 3.100000
C  2 1.461710 1 119.119115
H  3 1.090350 2 113.511212 1 0.034878 0
H  3 1.104171 2 109.450384 1 122.777685 0
H  3 1.104184 2 109.411295 1 -122.661002 0
C  2 1.461710 1 119.114424 3 -179.985401 0
H  7 1.090350 2 113.510911 1 -0.134637 0
H  7 1.104158 2 109.483547 1 -122.918049 0
H  7 1.104196 2 109.378148 1 122.520476 0
$end

PES scan, value:    3.1000 energy: -515.9020477946
------- Summary of potential scan: ------ 
    3.1000      -515.9020477946
----------------------------------------- 
Archival summary:
1\1\hpc0249\JobtypUnspecified\ProcedureUnspecified\6-31G**\136\knomura\WedMar1313:51:392019WedMar1313:51:392019\0\\#,JobtypUnspecified,ProcedureUnspecified,6-31G**,\\0,1\S\C,1,3.1\C,2,1.46171,1,119.119\H,3,1.09035,2,113.511,1,0.034878,0\H,3,1.10417,2,109.45,1,122.778,0\H,3,1.10418,2,109.411,1,-122.661,0\C,2,1.46171,1,119.114,3,-179.985,0\H,7,1.09035,2,113.511,1,-0.134637,0\H,7,1.10416,2,109.484,1,-122.918,0\H,7,1.1042,2,109.378,1,122.52,0\\\@

 Total job time:  13.36s(wall), 153.26s(cpu) 
 Wed Mar 13 13:51:39 2019

        *************************************************************
        *                                                           *
        *  Thank you very much for using Q-Chem.  Have a nice day.  *
        *                                                           *
        *************************************************************


