
Running Job 1 of 1 thio_ketone/CHOSx.xyz.data/inputs/bond_singlet_1.6.in
qchem thio_ketone/CHOSx.xyz.data/inputs/bond_singlet_1.6.in_3626.0 /staging/scratch/2868766/qchem3626/ 1
/usr/usc/qchem/5.1.1/exe/qcprog.exe_s thio_ketone/CHOSx.xyz.data/inputs/bond_singlet_1.6.in_3626.0 /staging/scratch/2868766/qchem3626/
Check license passed

                  Welcome to Q-Chem
     A Quantum Leap Into The Future Of Chemistry


 Q-Chem 5.1, Q-Chem, Inc., Pleasanton, CA (2018)

 Yihan Shao,  Zhengting Gan,  E. Epifanovsky,  A. T. B. Gilbert,  M. Wormit,  
 J. Kussmann,  A. W. Lange,  A. Behn,  Jia Deng,  Xintian Feng,  D. Ghosh,  
 M. Goldey,  P. R. Horn,  L. D. Jacobson,  I. Kaliman,  T. Kus,  A. Landau,  
 Jie Liu,  E. I. Proynov,  R. M. Richard,  R. P. Steele,  E. J. Sundstrom,  
 H. L. Woodcock III,  P. M. Zimmerman,  D. Zuev,  B. Albrecht,  E. Alguire,  
 S. A. Baeppler,  D. Barton,  Z. Benda,  Y. A. Bernard,  E. J. Berquist,  
 K. B. Bravaya,  H. Burton,  D. Casanova,  Chun-Min Chang,  Yunqing Chen,  
 A. Chien,  K. D. Closser,  M. P. Coons,  S. Coriani,  S. Dasgupta,  
 A. L. Dempwolff,  M. Diedenhofen,  Hainam Do,  R. G. Edgar,  Po-Tung Fang,  
 S. Faraji,  S. Fatehi,  Qingguo Feng,  K. D. Fenk,  J. Fosso-Tande,  
 Qinghui Ge,  A. Ghysels,  G. Gidofalvi,  J. Gomes,  J. Gonthier,  A. Gunina,  
 D. Hait,  M. W. D. Hanson-Heine,  P. H. P. Harbach,  A. W. Hauser,  
 J. E. Herr,  E. G. Hohenstein,  Z. C. Holden,  Kerwin Hui,  B. C. Huynh,  
 T.-C. Jagau,  Hyunjun Ji,  B. Kaduk,  K. Khistyaev,  Jaehoon Kim,  
 P. Klunzinger,  K. Koh,  D. Kosenkov,  L. Koulias,  T. Kowalczyk,  
 C. M. Krauter,  A. Kunitsa,  Ka Un Lao,  A. Laurent,  K. V. Lawler,  
 Joonho Lee,  D. Lefrancois,  S. Lehtola,  D. S. Levine,  Yi-Pei Li,  
 You-Sheng Lin,  Fenglai Liu,  E. Livshits,  A. Luenser,  P. Manohar,  
 E. Mansoor,  S. F. Manzer,  Shan-Ping Mao,  Yuezhi Mao,  N. Mardirossian,  
 A. V. Marenich,  T. Markovich,  L. A. Martinez-Martinez,  S. A. Maurer,  
 N. J. Mayhall,  S. C. McKenzie,  J.-M. Mewes,  A. F. Morrison,  
 J. W. Mullinax,  K. Nanda,  T. S. Nguyen-Beck,  R. Olivares-Amaya,  
 J. A. Parkhill,  T. M. Perrine,  F. Plasser,  P. Pokhilko,  S. Prager,  
 A. Prociuk,  E. Ramos,  D. R. Rehn,  F. Rob,  M. Schneider,  N. Sergueev,  
 S. M. Sharada,  S. Sharma,  D. W. Small,  T. Stauch,  T. Stein,  
 Yu-Chuan Su,  A. J. W. Thom,  A. Tkatchenko,  T. Tsuchimochi,  N. M. Tubman,  
 L. Vogt,  M. L. Vidal,  O. Vydrov,  M. A. Watson,  J. Wenzel,  
 M. de Wergifosse,  T. A. Wesolowski,  A. White,  J. Witte,  A. Yamada,  
 Jun Yang,  K. Yao,  S. Yeganeh,  S. R. Yost,  Zhi-Qiang You,  A. Zech,  
 Igor Ying Zhang,  Xing Zhang,  Yan Zhao,  Ying Zhu,  B. R. Brooks,  
 G. K. L. Chan,  C. J. Cramer,  M. S. Gordon,  W. J. Hehre,  A. Klamt,  
 M. W. Schmidt,  C. D. Sherrill,  D. G. Truhlar,  A. Aspuru-Guzik,  R. Baer,  
 A. T. Bell,  N. A. Besley,  Jeng-Da Chai,  A. E. DePrince, III,  
 R. A. DiStasio Jr.,  A. Dreuw,  B. D. Dunietz,  T. R. Furlani,  
 Chao-Ping Hsu,  Yousung Jung,  Jing Kong,  D. S. Lambrecht,  WanZhen Liang,  
 C. Ochsenfeld,  V. A. Rassolov,  L. V. Slipchenko,  J. E. Subotnik,  
 T. Van Voorhis,  J. M. Herbert,  A. I. Krylov,  P. M. W. Gill,  M. Head-Gordon

 Contributors to earlier versions of Q-Chem not listed above: 
 R. D. Adamson,  B. Austin,  J. Baker,  G. J. O. Beran,  K. Brandhorst,  
 S. T. Brown,  E. F. C. Byrd,  A. K. Chakraborty,  C.-L. Cheng,  
 Siu Hung Chien,  D. M. Chipman,  D. L. Crittenden,  H. Dachsel,  
 R. J. Doerksen,  A. D. Dutoi,  L. Fusti-Molnar,  W. A. Goddard III,  
 A. Golubeva-Zadorozhnaya,  S. R. Gwaltney,  G. Hawkins,  A. Heyden,  
 S. Hirata,  G. Kedziora,  F. J. Keil,  C. Kelley,  Jihan Kim,  R. A. King,  
 R. Z. Khaliullin,  P. P. Korambath,  W. Kurlancheek,  A. M. Lee,  M. S. Lee,  
 S. V. Levchenko,  Ching Yeh Lin,  D. Liotard,  R. C. Lochan,  I. Lotan,  
 P. E. Maslen,  N. Nair,  D. P. O'Neill,  D. Neuhauser,  E. Neuscamman,  
 C. M. Oana,  R. Olson,  B. Peters,  R. Peverati,  P. A. Pieniazek,  
 Y. M. Rhee,  J. Ritchie,  M. A. Rohrdanz,  E. Rosta,  N. J. Russ,  
 H. F. Schaefer III,  N. E. Schultz,  N. Shenvi,  A. C. Simmonett,  A. Sodt,  
 D. Stuck,  K. S. Thanthiriwatte,  V. Vanovschi,  Tao Wang,  A. Warshel,  
 C. F. Williams,  Q. Wu,  X. Xu,  W. Zhang

 Please cite Q-Chem as follows:
 Y. Shao et al., Mol. Phys. 113, 184-215 (2015)
 DOI: 10.1080/00268976.2014.952696

 Q-Chem 5.1.1 for Intel X86 EM64T Linux

 Parts of Q-Chem use Armadillo 8.300.2 (Tropical Shenanigans).
 http://arma.sourceforge.net/

 Q-Chem begins on Wed Mar 13 13:47:51 2019  

Host: 
0

     Scratch files written to /staging/scratch/2868766/qchem3626//
 Aug318 |scratch|qcdevops|jenkins|workspace|build_RNUM 6013   
Processing $rem in /usr/usc/qchem/5.1.1/config/preferences.
 MEM_TOTAL  2000 
Input Ideriv = 2
Curr. Ideriv = -1
Max.  Ideriv = 2

Checking the input file for inconsistencies... 	...done.

--------------------------------------------------------------
User input:
--------------------------------------------------------------

$comment
potential surface scanner
$end

$rem
JOBTYPE  PES_SCAN
UNRESTRICTED TRUE
SYM_IGNORE  TRUE
GEOM_OPT_MAX_CYCLES 400
SCF_MAX_CYCLES 400
METHOD   B3LYP
BASIS   6-31G**
PDB_PRINT 2
SCF_CONVERGENCE 6
THRESH 14
SCF_PRINT 1
$end
$molecule
0 1
S -1.384800 -0.000090 -0.000650
C 0.254740 0.000000 -0.000460
C 1.069650 1.268800 0.000070
C 1.069930 -1.268640 0.000060
H 1.723780 1.290230 0.882300
H 1.730580 1.287500 -0.877070
H 0.440180 2.158930 -0.003450
H 0.440730 -2.158960 -0.002030
H 1.725260 -1.289320 0.881400
H 1.729680 -1.287880 -0.877960
$end
$scan
stre 1 2 1.600000 1.601000 0.100000
$end
--------------------------------------------------------------
 ----------------------------------------------------------------
             Standard Nuclear Orientation (Angstroms)
    I     Atom           X                Y                Z
 ----------------------------------------------------------------
    1      S      -1.3848000000    -0.0000900000    -0.0006500000
    2      C       0.2547400000     0.0000000000    -0.0004600000
    3      C       1.0696500000     1.2688000000     0.0000700000
    4      C       1.0699300000    -1.2686400000     0.0000600000
    5      H       1.7237800000     1.2902300000     0.8823000000
    6      H       1.7305800000     1.2875000000    -0.8770700000
    7      H       0.4401800000     2.1589300000    -0.0034500000
    8      H       0.4407300000    -2.1589600000    -0.0020300000
    9      H       1.7252600000    -1.2893200000     0.8814000000
   10      H       1.7296800000    -1.2878800000    -0.8779600000
 ----------------------------------------------------------------
 Nuclear Repulsion Energy =   152.0886319128 hartrees
 There are       20 alpha and       20 beta electrons
 Requested basis set is 6-31G(d,p)
 There are 35 shells and 94 basis functions

 Total QAlloc Memory Limit   2000 MB
 Mega-Array Size       188 MB
 MEM_STATIC part       192 MB
A total of 1 constraints
  
            1
    1   1.0100000
    2   1.0100000
    3   2.0100000
    4   1.6000000
    5   1.6010000
    6   0.1000000
    7   0.0000000
    8   0.0000000
    9   0.0000000
   10   0.0000000

                       Distance Matrix (Angstroms)
             S (  1)   C (  2)   C (  3)   C (  4)   H (  5)   H (  6)
   C (  2)  1.639540
   C (  3)  2.763043  1.507956
   C (  4)  2.763136  1.507973  2.537440
   H (  5)  3.479626  2.145236  1.098488  2.784544
   H (  6)  3.483044  2.145741  1.098432  2.782026  1.759385
   H (  7)  2.827000  2.166882  1.090218  3.484944  1.785167  1.785423
   H (  8)  2.827239  2.166957  3.484980  1.090214  3.784860  3.782525
   H (  9)  3.480316  2.145333  2.783980  1.098474  2.579551  3.119655
   H ( 10)  3.482537  2.145714  2.782659  1.098435  3.121730  2.575380
             H (  7)   H (  8)   H (  9)
   H (  8)  4.317890
   H (  9)  3.784814  1.785144
   H ( 10)  3.782602  1.785336  1.759366
 
 A cutoff of  1.0D-14 yielded    618 shell pairs
 There are      4559 function pairs
 
 -------------------------------------------------------
 OpenMP Integral Computing Module                       
 Release: version 1.0, May 2013, Q-Chem Inc. Pittsburgh 
 -------------------------------------------------------
 Integral Job Info:
 Integral job number is                      11
 Integral operator is                         1
 short-range coefficients                     0
 long-range coefficients              100000000
 Omega coefficients                           0
 if combine SR and LR in K                    0
 Integral screening is                        0
 Integral computing path is                   2
 max size of driver memory is            800000
 size of driver memory is                593474
 size of scratch memory is             15267112
 max col of scratch BK array               1296
 max len of scratch array in speh3          155
 max len of scratch index in speh4           18
 max int batch size is                      520
 min int batch size is                       52
 fixed nKL is                                52
 max L of basis functions is                  2
 order of int derivative is                   0
 number of shells is                         35
 number of basis is                          94
 number of cartesian basis is                94
 number of contracted shell pairs           618
 number of primitive shell pairs           2444
 maxK2 (contraction) of shell pair           36
 max number of K2 of shell pair               1
 max number of CS2 of shell pair             48
 max number of PS2 of shell pair            222
 mem total for path MDJ                  514716
 -------------------------------------------------------
 Smallest overlap matrix eigenvalue = 6.98E-03

 Scale SEOQF with 1.000000e-01/1.000000e-01/1.000000e+00

 Standard Electronic Orientation quadrupole field applied
 Nucleus-field energy     =     0.0000000012 hartrees
 Guess from superposition of atomic densities
 Warning:  Energy on first SCF cycle will be non-variational
 SAD guess density has 40.000000 electrons

 -----------------------------------------------------------------------
  General SCF calculation program by
  Eric Jon Sundstrom, Paul Horn, Yuezhi Mao, Dmitri Zuev, Alec White,
  David Stuck, Shaama M.S., Shane Yost, Joonho Lee, David Small,
  Daniel Levine, Susi Lehtola, Hugh Burton, Evgeny Epifanovsky
 -----------------------------------------------------------------------
 Exchange:     0.2000 Hartree-Fock + 0.0800 Slater + 0.7200 B88
 Correlation:  0.1900 VWN1RPA + 0.8100 LYP
 Using SG-1 standard quadrature grid
 using 12 threads for integral computing
 -------------------------------------------------------
 OpenMP Integral computing Module                
 Release: version 1.0, May 2013, Q-Chem Inc. Pittsburgh 
 -------------------------------------------------------
 -------------------------------------------------------
 OpenMP BLAS3 based DFT computing Module                
 Release: version 1.0, May 2013, Q-Chem Inc. Pittsburgh 
 -------------------------------------------------------
 A unrestricted SCF calculation will be
 performed using DIIS
 SCF converges when DIIS error is below 1.0e-06
 Alpha HF Exchange    Energy =  -4.28762153746005
 Beta HF Exchange     Energy =  -4.28762153746005
 DFT Correlation      Energy =  -1.80748628486553
 DFT Exchange         Energy = -33.52459644869808
 One-Electron (alpha) Energy = -502.97045582560901
 One-Electron (beta)  Energy = -502.97045582560901
 Total Coulomb        Energy = 381.14796058129843
 ---------------------------------------
  Cycle       Energy         DIIS error
 ---------------------------------------
    1    -516.6116449643      3.31e-02  
 Alpha HF Exchange    Energy =  -4.28987483232540
 Beta HF Exchange     Energy =  -4.28987483232539
 DFT Correlation      Energy =  -1.83316990267285
 DFT Exchange         Energy = -34.04686896617912
 One-Electron (alpha) Energy = -506.25596947774852
 One-Electron (beta)  Energy = -506.25596947774847
 Total Coulomb        Energy = 388.83551766873143
    2    -516.0475779062      3.87e-03  
 Alpha HF Exchange    Energy =  -4.24117025636718
 Beta HF Exchange     Energy =  -4.24117025636718
 DFT Correlation      Energy =  -1.81049949929900
 DFT Exchange         Energy = -33.63949253409922
 One-Electron (alpha) Energy = -503.15124383415338
 One-Electron (beta)  Energy = -503.15124383415304
 Total Coulomb        Energy = 382.09713913998019
    3    -516.0490491604      3.90e-03  
 Alpha HF Exchange    Energy =  -4.26311254901480
 Beta HF Exchange     Energy =  -4.26311254901480
 DFT Correlation      Energy =  -1.82142946599115
 DFT Exchange         Energy = -33.82217796391885
 One-Electron (alpha) Energy = -504.58422642776571
 One-Electron (beta)  Energy = -504.58422642776600
 Total Coulomb        Energy = 385.13140639827463
    4    -516.1182470711      2.97e-04  
 Alpha HF Exchange    Energy =  -4.26408315082238
 Beta HF Exchange     Energy =  -4.26408315082237
 DFT Correlation      Energy =  -1.82143225700151
 DFT Exchange         Energy = -33.82867333927756
 One-Electron (alpha) Energy = -504.67161073743569
 One-Electron (beta)  Energy = -504.67161073743563
 Total Coulomb        Energy = 385.31453681737105
    5    -516.1183246413      2.85e-04  
 Alpha HF Exchange    Energy =  -4.26403153340835
 Beta HF Exchange     Energy =  -4.26403153340835
 DFT Correlation      Energy =  -1.82163197298817
 DFT Exchange         Energy = -33.82933345211083
 One-Electron (alpha) Energy = -504.67242603796120
 One-Electron (beta)  Energy = -504.67242603796109
 Total Coulomb        Energy = 385.31651519330921
    6    -516.1187334605      7.86e-05  
 Alpha HF Exchange    Energy =  -4.26381864501153
 Beta HF Exchange     Energy =  -4.26381864501153
 DFT Correlation      Energy =  -1.82150778768895
 DFT Exchange         Energy = -33.82734829072737
 One-Electron (alpha) Energy = -504.64725323370925
 One-Electron (beta)  Energy = -504.64725323370931
 Total Coulomb        Energy = 385.26360626050285
    7    -516.1187616613      7.95e-06  
 Alpha HF Exchange    Energy =  -4.26384976477079
 Beta HF Exchange     Energy =  -4.26384976477080
 DFT Correlation      Energy =  -1.82152261141206
 DFT Exchange         Energy = -33.82760156926797
 One-Electron (alpha) Energy = -504.65108096982823
 One-Electron (beta)  Energy = -504.65108096982846
 Total Coulomb        Energy = 385.27159175924550
    8    -516.1187619766      7.37e-07  Convergence criterion met
 ---------------------------------------
 SCF time:   CPU 17.16s  wall 2.00s 
<S^2> =         -0.000000000
 Alpha HF Exchange    Energy =  -4.26384976477079
 Beta HF Exchange     Energy =  -4.26384976477080
 DFT Correlation      Energy =  -1.82152261141206
 DFT Exchange         Energy = -33.82760156926797
 One-Electron (alpha) Energy = -504.65108096982823
 One-Electron (beta)  Energy = -504.65108096982846
 Total Coulomb        Energy = 385.27159175924550
 Nuclear repulsion Energy = 152.08863191407539
 SCF   energy in the final basis set =     -516.1187619766
 Total energy in the final basis set =     -516.1187619766
 
 --------------------------------------------------------------
 
                    Orbital Energies (a.u.)
 --------------------------------------------------------------
 
 Alpha MOs
 -- Occupied --
-88.854 -10.267 -10.200 -10.200  -7.917  -5.880  -5.880  -5.871
 -0.833  -0.712  -0.704  -0.527  -0.455  -0.445  -0.441  -0.405
 -0.376  -0.355  -0.283  -0.216
 -- Virtual --
 -0.070   0.081   0.096   0.145   0.149   0.155   0.170   0.174
  0.221   0.232   0.315   0.370   0.432   0.435   0.499   0.501
  0.549   0.581   0.597   0.655   0.694   0.702   0.740   0.771
  0.805   0.812   0.851   0.875   0.888   0.893   0.905   0.939
  0.941   1.066   1.088   1.245   1.294   1.415   1.467   1.670
  1.715   1.822   1.854   1.867   1.907   2.017   2.024   2.032
  2.048   2.081   2.085   2.143   2.303   2.352   2.372   2.499
  2.575   2.583   2.689   2.689   2.803   2.849   2.886   2.922
  3.157   3.203   3.380   3.396   3.418   3.458   3.954   4.168
  4.470   4.527
 
 Beta MOs
 -- Occupied --
-88.854 -10.267 -10.200 -10.200  -7.917  -5.880  -5.880  -5.871
 -0.833  -0.712  -0.704  -0.527  -0.455  -0.445  -0.441  -0.405
 -0.376  -0.355  -0.283  -0.216
 -- Virtual --
 -0.070   0.081   0.096   0.145   0.149   0.155   0.170   0.174
  0.221   0.232   0.315   0.370   0.432   0.435   0.499   0.501
  0.549   0.581   0.597   0.655   0.694   0.702   0.740   0.771
  0.805   0.812   0.851   0.875   0.888   0.893   0.905   0.939
  0.941   1.066   1.088   1.245   1.294   1.415   1.467   1.670
  1.715   1.822   1.854   1.867   1.907   2.017   2.024   2.032
  2.048   2.081   2.085   2.143   2.303   2.352   2.372   2.499
  2.575   2.583   2.689   2.689   2.803   2.849   2.886   2.922
  3.157   3.203   3.380   3.396   3.418   3.458   3.954   4.168
  4.470   4.527
 --------------------------------------------------------------
 
          Ground-State Mulliken Net Atomic Charges

     Atom                 Charge (a.u.)    Spin (a.u.)
  --------------------------------------------------------
      1 S                    -0.133213      -0.000000
      2 C                    -0.011430       0.000000
      3 C                    -0.334602       0.000000
      4 C                    -0.334614      -0.000000
      5 H                     0.130951       0.000000
      6 H                     0.130716      -0.000000
      7 H                     0.145260      -0.000000
      8 H                     0.145259       0.000000
      9 H                     0.130905      -0.000000
     10 H                     0.130769       0.000000
  --------------------------------------------------------
  Sum of atomic charges =    -0.000000
  Sum of spin   charges =     0.000000

 -----------------------------------------------------------------
                    Cartesian Multipole Moments
 -----------------------------------------------------------------
    Charge (ESU x 10^10)
                -0.0000
    Dipole Moment (Debye)
         X       3.0645      Y       0.0002      Z       0.0026
       Tot       3.0645
    Quadrupole Moments (Debye-Ang)
        XX     -33.1618     XY      -0.0005     YY     -32.0352
        XZ       0.0012     YZ       0.0006     ZZ     -32.1403
    Octopole Moments (Debye-Ang^2)
       XXX       4.1856    XXY      -0.0004    XYY       3.6066
       YYY      -0.0003    XXZ       0.0040    XYZ       0.0016
       YYZ       0.0064    XZZ       1.9747    YZZ       0.0002
       ZZZ       0.0382
    Hexadecapole Moments (Debye-Ang^3)
      XXXX    -307.9735   XXXY       0.0001   XXYY     -91.0783
      XYYY      -0.0034   YYYY    -200.3239   XXXZ      -0.0721
      XXYZ       0.0014   XYYZ      -0.0033   YYYZ      -0.0052
      XXZZ     -56.2451   XYZZ       0.0003   YYZZ     -43.4105
      XZZZ      -0.0189   YZZZ       0.0043   ZZZZ     -49.3398
 -----------------------------------------------------------------
 Calculating analytic gradient of the SCF energy
 Gradient of SCF Energy
            1           2           3           4           5           6
    1  -0.0010658  -0.0000442   0.0006987   0.0007040  -0.0000705  -0.0000595
    2   0.0000074   0.0000035   0.0004670  -0.0004628  -0.0002913  -0.0002950
    3   0.0000101   0.0000190  -0.0000232  -0.0000237   0.0003636  -0.0003503
            7           8           9          10
    1  -0.0000210  -0.0000087  -0.0000735  -0.0000595
    2   0.0005093  -0.0005115   0.0002866   0.0002867
    3  -0.0000037  -0.0000007   0.0003580  -0.0003490
 Max gradient component =       1.066E-03
 RMS gradient           =       3.622E-04
 Gradient time:  CPU 7.44 s  wall 0.63 s
 Geometry Optimization Parameters
   NAtoms,    NIC,     NZ,  NCons,   NDum,   NFix, NCnnct, MaxDiis
       10      56       0       1       0       0       0       0


** CONSTRAINED OPTIMIZATION IN DELOCALIZED INTERNAL COORDINATES **
   Searching for a Minimum

   Optimization Cycle:   1

                       Coordinates (Angstroms)
     ATOM                X               Y               Z
      1  S        -1.3848000000   -0.0000900000   -0.0006500000
      2  C         0.2547400000    0.0000000000   -0.0004600000
      3  C         1.0696500000    1.2688000000    0.0000700000
      4  C         1.0699300000   -1.2686400000    0.0000600000
      5  H         1.7237800000    1.2902300000    0.8823000000
      6  H         1.7305800000    1.2875000000   -0.8770700000
      7  H         0.4401800000    2.1589300000   -0.0034500000
      8  H         0.4407300000   -2.1589600000   -0.0020300000
      9  H         1.7252600000   -1.2893200000    0.8814000000
     10  H         1.7296800000   -1.2878800000   -0.8779600000
   Point Group: c1    Number of degrees of freedom:    24


   Energy is   -516.118761977

              Constraints and their Current Values
                                        Value     Constraint
   Distance(Angs):        1   2             1.639540     1.600000

 Attempting to Generate Delocalized Internal Coordinates

   Using Lagrange Multiplier Algorithm


 25 Hessian modes will be used to form the next step
  Hessian Eigenvalues:
    -0.802840    0.045000    0.045000    0.045000    0.092884    0.092890
     0.096015    0.096018    0.160000    0.160000    0.160000    0.160000
     0.160000    0.160000    0.250000    0.250000    0.315551    0.315568
     0.338499    0.338514    0.338558    0.338561    0.347874    0.347879
     1.245579

 Minimum Search - Taking P-RFO Step
 Searching for Lamda that Maximizes Along the Constraint modes Only
 Value Taken    Lamda =   0.00411124
 Searching for Lamda that Minimizes Along All other modes
 Value Taken    Lamda =  -0.00184761
 Step Taken.  Stepsize is  0.075478

                             Maximum     Tolerance    Cnvgd?
         Gradient            0.074720       0.000300      NO
         Displacement        0.074447       0.001200      NO
         Energy change     *********       0.000001      NO


 New Cartesian Coordinates Obtained by Inverse Iteration

 Displacement from previous Coordinates is:  0.085130
 ----------------------------------------------------------------
             Standard Nuclear Orientation (Angstroms)
    I     Atom           X                Y                Z
 ----------------------------------------------------------------
    1      S      -1.3453071910    -0.0001774127    -0.0007588471
    2      C       0.2548372314    -0.0000134044    -0.0004978973
    3      C       1.0657924925     1.2700833423     0.0000965427
    4      C       1.0660600070    -1.2699254297     0.0000959305
    5      H       1.7205870935     1.2970619200     0.8812072920
    6      H       1.7272785842     1.2944187593    -0.8760205648
    7      H       0.4308043669     2.1554888297    -0.0033734193
    8      H       0.4312692513    -2.1554810755    -0.0019688806
    9      H       1.7220484880    -1.2961420282     0.8803369902
   10      H       1.7263596761    -1.2947435009    -0.8769071462
 ----------------------------------------------------------------
 Nuclear Repulsion Energy =   153.5419395834 hartrees
 There are       20 alpha and       20 beta electrons

                       Distance Matrix (Angstroms)
             S (  1)   C (  2)   C (  3)   C (  4)   H (  5)   H (  6)
   C (  2)  1.600144
   C (  3)  2.725246  1.506916
   C (  4)  2.725244  1.506904  2.540009
   H (  5)  3.443893  2.146679  1.098107  2.791807
   H (  6)  3.447150  2.147133  1.098061  2.789382  1.757243
   H (  7)  2.793112  2.162675  1.089571  3.483823  1.784074  1.784321
   H (  8)  2.793127  2.162677  3.483836  1.089574  3.789775  3.787534
   H (  9)  3.444492  2.146748  2.791238  1.098104  2.593205  3.129828
   H ( 10)  3.446545  2.147044  2.789950  1.098065  3.131845  2.589163
             H (  7)   H (  8)   H (  9)
   H (  8)  4.310970
   H (  9)  3.789724  1.784107
   H ( 10)  3.787562  1.784277  1.757250
 
 Applying Cartesian multipole field
    Component          Value
    ---------          -----
     (2,0,0)        1.00000E-11
     (0,2,0)        2.00000E-11
     (0,0,2)       -3.00000E-10
 Nucleus-field energy     =     0.0000000012 hartrees
 Requested basis set is 6-31G(d,p)
 There are 35 shells and 94 basis functions
 A cutoff of  1.0D-14 yielded    620 shell pairs
 There are      4567 function pairs
 Smallest overlap matrix eigenvalue = 6.95E-03
 Guess from superposition of atomic densities
 Warning:  Energy on first SCF cycle will be non-variational
 SAD guess density has 40.000000 electrons

 -----------------------------------------------------------------------
  General SCF calculation program by
  Eric Jon Sundstrom, Paul Horn, Yuezhi Mao, Dmitri Zuev, Alec White,
  David Stuck, Shaama M.S., Shane Yost, Joonho Lee, David Small,
  Daniel Levine, Susi Lehtola, Hugh Burton, Evgeny Epifanovsky
 -----------------------------------------------------------------------
 Exchange:     0.2000 Hartree-Fock + 0.0800 Slater + 0.7200 B88
 Correlation:  0.1900 VWN1RPA + 0.8100 LYP
 Using SG-1 standard quadrature grid
 using 12 threads for integral computing
 -------------------------------------------------------
 OpenMP Integral computing Module                
 Release: version 1.0, May 2013, Q-Chem Inc. Pittsburgh 
 -------------------------------------------------------
 -------------------------------------------------------
 OpenMP BLAS3 based DFT computing Module                
 Release: version 1.0, May 2013, Q-Chem Inc. Pittsburgh 
 -------------------------------------------------------
 A unrestricted SCF calculation will be
 performed using DIIS
 SCF converges when DIIS error is below 1.0e-06
 Alpha HF Exchange    Energy =  -4.29296017918082
 Beta HF Exchange     Energy =  -4.29296017918082
 DFT Correlation      Energy =  -1.80875078629988
 DFT Exchange         Energy = -33.53591573491597
 One-Electron (alpha) Energy = -504.39344402268705
 One-Electron (beta)  Energy = -504.39344402268705
 Total Coulomb        Energy = 382.50738646885952
 ---------------------------------------
  Cycle       Energy         DIIS error
 ---------------------------------------
    1    -516.6681488715      3.38e-02  
 Alpha HF Exchange    Energy =  -4.29302290806346
 Beta HF Exchange     Energy =  -4.29302290806346
 DFT Correlation      Energy =  -1.83498536839982
 DFT Exchange         Energy = -34.06986973369327
 One-Electron (alpha) Energy = -507.75651673233375
 One-Electron (beta)  Energy = -507.75651673233352
 Total Coulomb        Energy = 390.41634748205416
    2    -516.0456473162      3.89e-03  
 Alpha HF Exchange    Energy =  -4.24318852694027
 Beta HF Exchange     Energy =  -4.24318852694027
 DFT Correlation      Energy =  -1.81134665612598
 DFT Exchange         Energy = -33.65056636507642
 One-Electron (alpha) Energy = -504.52519568507751
 One-Electron (beta)  Energy = -504.52519568507751
 Total Coulomb        Energy = 383.41275880848997
    3    -516.0439830522      3.98e-03  
 Alpha HF Exchange    Energy =  -4.26588087840694
 Beta HF Exchange     Energy =  -4.26588087840695
 DFT Correlation      Energy =  -1.82318247658031
 DFT Exchange         Energy = -33.84210490198822
 One-Electron (alpha) Energy = -506.05239724486103
 One-Electron (beta)  Energy = -506.05239724486131
 Total Coulomb        Energy = 386.64439286876188
    4    -516.1155111717      6.28e-04  
 Alpha HF Exchange    Energy =  -4.26649000102410
 Beta HF Exchange     Energy =  -4.26649000102410
 DFT Correlation      Energy =  -1.82285796502327
 DFT Exchange         Energy = -33.84473723966231
 One-Electron (alpha) Energy = -506.09064847222947
 One-Electron (beta)  Energy = -506.09064847222965
 Total Coulomb        Energy = 386.72259914112794
    5    -516.1173334255      2.59e-04  
 Alpha HF Exchange    Energy =  -4.26673739770696
 Beta HF Exchange     Energy =  -4.26673739770697
 DFT Correlation      Energy =  -1.82309802230471
 DFT Exchange         Energy = -33.84759467375657
 One-Electron (alpha) Energy = -506.12450472934313
 One-Electron (beta)  Energy = -506.12450472934341
 Total Coulomb        Energy = 386.79359631998148
    6    -516.1176410456      5.96e-05  
 Alpha HF Exchange    Energy =  -4.26650899750269
 Beta HF Exchange     Energy =  -4.26650899750269
 DFT Correlation      Energy =  -1.82299686937301
 DFT Exchange         Energy = -33.84561685514755
 One-Electron (alpha) Energy = -506.09788397248604
 One-Electron (beta)  Energy = -506.09788397248587
 Total Coulomb        Energy = 386.73780236450636
    7    -516.1176577154      7.93e-06  
 Alpha HF Exchange    Energy =  -4.26654046712657
 Beta HF Exchange     Energy =  -4.26654046712656
 DFT Correlation      Energy =  -1.82301066343586
 DFT Exchange         Energy = -33.84586795283336
 One-Electron (alpha) Energy = -506.10176974166490
 One-Electron (beta)  Energy = -506.10176974166478
 Total Coulomb        Energy = 386.74590141570206
    8    -516.1176580336      6.98e-07  Convergence criterion met
 ---------------------------------------
 SCF time:   CPU 16.58s  wall 1.00s 
<S^2> =          0.000000000
 Alpha HF Exchange    Energy =  -4.26654046712657
 Beta HF Exchange     Energy =  -4.26654046712656
 DFT Correlation      Energy =  -1.82301066343586
 DFT Exchange         Energy = -33.84586795283336
 One-Electron (alpha) Energy = -506.10176974166490
 One-Electron (beta)  Energy = -506.10176974166478
 Total Coulomb        Energy = 386.74590141570206
 Nuclear repulsion Energy = 153.54193958459547
 SCF   energy in the final basis set =     -516.1176580336
 Total energy in the final basis set =     -516.1176580336
 
 --------------------------------------------------------------
 
                    Orbital Energies (a.u.)
 --------------------------------------------------------------
 
 Alpha MOs
 -- Occupied --
-88.852 -10.261 -10.198 -10.198  -7.916  -5.879  -5.879  -5.871
 -0.837  -0.711  -0.709  -0.525  -0.454  -0.443  -0.443  -0.403
 -0.375  -0.357  -0.288  -0.215
 -- Virtual --
 -0.066   0.082   0.104   0.146   0.151   0.157   0.170   0.173
  0.222   0.231   0.316   0.367   0.435   0.449   0.500   0.503
  0.550   0.585   0.597   0.662   0.697   0.700   0.741   0.768
  0.803   0.810   0.852   0.877   0.887   0.896   0.906   0.941
  0.942   1.075   1.116   1.257   1.296   1.411   1.480   1.676
  1.721   1.821   1.859   1.877   1.916   2.019   2.025   2.043
  2.051   2.084   2.088   2.151   2.304   2.360   2.374   2.502
  2.577   2.593   2.692   2.692   2.805   2.852   2.890   2.931
  3.160   3.205   3.382   3.400   3.421   3.461   3.965   4.173
  4.472   4.533
 
 Beta MOs
 -- Occupied --
-88.852 -10.261 -10.198 -10.198  -7.916  -5.879  -5.879  -5.871
 -0.837  -0.711  -0.709  -0.525  -0.454  -0.443  -0.443  -0.403
 -0.375  -0.357  -0.288  -0.215
 -- Virtual --
 -0.066   0.082   0.104   0.146   0.151   0.157   0.170   0.173
  0.222   0.231   0.316   0.367   0.435   0.449   0.500   0.503
  0.550   0.585   0.597   0.662   0.697   0.700   0.741   0.768
  0.803   0.810   0.852   0.877   0.887   0.896   0.906   0.941
  0.942   1.075   1.116   1.257   1.296   1.411   1.480   1.676
  1.721   1.821   1.859   1.877   1.916   2.019   2.025   2.043
  2.051   2.084   2.088   2.151   2.304   2.360   2.374   2.502
  2.577   2.593   2.692   2.692   2.805   2.852   2.890   2.931
  3.160   3.205   3.382   3.400   3.421   3.461   3.965   4.173
  4.472   4.533
 --------------------------------------------------------------
 
          Ground-State Mulliken Net Atomic Charges

     Atom                 Charge (a.u.)    Spin (a.u.)
  --------------------------------------------------------
      1 S                    -0.130569      -0.000000
      2 C                    -0.004617      -0.000000
      3 C                    -0.334663       0.000000
      4 C                    -0.334664       0.000000
      5 H                     0.129510      -0.000000
      6 H                     0.129283      -0.000000
      7 H                     0.143462       0.000000
      8 H                     0.143461       0.000000
      9 H                     0.129463      -0.000000
     10 H                     0.129333      -0.000000
  --------------------------------------------------------
  Sum of atomic charges =     0.000000
  Sum of spin   charges =    -0.000000

 -----------------------------------------------------------------
                    Cartesian Multipole Moments
 -----------------------------------------------------------------
    Charge (ESU x 10^10)
                 0.0000
    Dipole Moment (Debye)
         X       2.9257      Y       0.0003      Z       0.0027
       Tot       2.9257
    Quadrupole Moments (Debye-Ang)
        XX     -33.0990     XY      -0.0003     YY     -32.0581
        XZ       0.0010     YZ       0.0006     ZZ     -32.0332
    Octopole Moments (Debye-Ang^2)
       XXX       2.4859    XXY       0.0008    XYY       2.9099
       YYY       0.0042    XXZ       0.0058    XYZ       0.0015
       YYZ       0.0080    XZZ       1.3122    YZZ       0.0013
       ZZZ       0.0412
    Hexadecapole Moments (Debye-Ang^3)
      XXXX    -299.1912   XXXY      -0.0034   XXYY     -89.4846
      XYYY      -0.0076   YYYY    -201.3365   XXXZ      -0.0768
      XXYZ       0.0014   XYYZ      -0.0055   YYYZ      -0.0047
      XXZZ     -54.6299   XYZZ      -0.0013   YYZZ     -43.4477
      XZZZ      -0.0253   YZZZ       0.0045   ZZZZ     -49.0274
 -----------------------------------------------------------------
 Calculating analytic gradient of the SCF energy
 Gradient of SCF Energy
            1           2           3           4           5           6
    1   0.0320535  -0.0276890  -0.0020003  -0.0020016  -0.0001299  -0.0001224
    2   0.0000035  -0.0000076  -0.0002287   0.0002355  -0.0002165  -0.0002246
    3   0.0000192  -0.0000038  -0.0000153  -0.0000169   0.0000850  -0.0000753
            7           8           9          10
    1   0.0000718   0.0000721  -0.0001303  -0.0001239
    2   0.0000413  -0.0000432   0.0002171   0.0002232
    3  -0.0000019  -0.0000006   0.0000857  -0.0000761
 Max gradient component =       3.205E-02
 RMS gradient           =       7.751E-03
 Gradient time:  CPU 7.09 s  wall 0.60 s
 Geometry Optimization Parameters
   NAtoms,    NIC,     NZ,  NCons,   NDum,   NFix, NCnnct, MaxDiis
       10      56       0       1       0       0       0       0

 Cartesian Hessian Update
 Hessian Updated using BFGS Update


** CONSTRAINED OPTIMIZATION IN DELOCALIZED INTERNAL COORDINATES **
   Searching for a Minimum

   Optimization Cycle:   2

                       Coordinates (Angstroms)
     ATOM                X               Y               Z
      1  S        -1.3453071910   -0.0001774127   -0.0007588471
      2  C         0.2548372314   -0.0000134044   -0.0004978973
      3  C         1.0657924925    1.2700833423    0.0000965427
      4  C         1.0660600070   -1.2699254297    0.0000959305
      5  H         1.7205870935    1.2970619200    0.8812072920
      6  H         1.7272785842    1.2944187593   -0.8760205648
      7  H         0.4308043669    2.1554888297   -0.0033734193
      8  H         0.4312692513   -2.1554810755   -0.0019688806
      9  H         1.7220484880   -1.2961420282    0.8803369902
     10  H         1.7263596761   -1.2947435009   -0.8769071462
   Point Group: c1    Number of degrees of freedom:    24


   Energy is   -516.117658034

              Constraints and their Current Values
                                        Value     Constraint
   Distance(Angs):        1   2             1.600144     1.600000
 Hessian Updated using BFGS Update

   Using Lagrange Multiplier Algorithm


 21 Hessian modes will be used to form the next step
  Hessian Eigenvalues:
    -0.804133    0.045000    0.045000    0.045000    0.092884    0.092890
     0.095993    0.096017    0.159197    0.160018    0.250000    0.256407
     0.315559    0.319657    0.338503    0.338521    0.338559    0.338582
     0.347876    0.347902    1.246713

 Minimum Search - Taking P-RFO Step
 Searching for Lamda that Maximizes Along the Constraint modes Only
 Value Taken    Lamda =   0.00000010
 Searching for Lamda that Minimizes Along All other modes
 Value Taken    Lamda =  -0.00005620
 Step Taken.  Stepsize is  0.014743

                             Maximum     Tolerance    Cnvgd?
         Gradient            0.002854       0.000300      NO
         Displacement        0.012062       0.001200      NO
         Energy change      0.001104       0.000001      NO


 New Cartesian Coordinates Obtained by Inverse Iteration

 Displacement from previous Coordinates is:  0.021760
 ----------------------------------------------------------------
             Standard Nuclear Orientation (Angstroms)
    I     Atom           X                Y                Z
 ----------------------------------------------------------------
    1      S      -1.3517725248    -0.0001786171    -0.0008797437
    2      C       0.2482274436    -0.0000114418    -0.0005189251
    3      C       1.0664779451     1.2686844160     0.0001172278
    4      C       1.0667480587    -1.2685291909     0.0001216117
    5      H       1.7220149053     1.2951330651     0.8807085918
    6      H       1.7285916329     1.2925687605    -0.8755635974
    7      H       0.4339110161     2.1558188831    -0.0032911754
    8      H       0.4343701472    -2.1558044974    -0.0018995109
    9      H       1.7234685036    -1.2942217135     0.8798492068
   10      H       1.7276928724    -1.2928896639    -0.8764336856
 ----------------------------------------------------------------
 Nuclear Repulsion Energy =   153.3924331214 hartrees
 There are       20 alpha and       20 beta electrons

                       Distance Matrix (Angstroms)
             S (  1)   C (  2)   C (  3)   C (  4)   H (  5)   H (  6)
   C (  2)  1.600000
   C (  3)  2.730925  1.509677
   C (  4)  2.730926  1.509673  2.537214
   H (  5)  3.450101  2.150816  1.098121  2.788758
   H (  6)  3.453246  2.151266  1.098081  2.786411  1.756286
   H (  7)  2.799464  2.163814  1.089569  3.482335  1.783661  1.783888
   H (  8)  2.799470  2.163815  3.482340  1.089570  3.787611  3.785443
   H (  9)  3.450701  2.150899  2.788199  1.098118  2.589355  3.126177
   H ( 10)  3.452652  2.151181  2.786971  1.098085  3.128169  2.585459
             H (  7)   H (  8)   H (  9)
   H (  8)  4.311624
   H (  9)  3.787569  1.783698
   H ( 10)  3.785478  1.783849  1.756288
 
 Applying Cartesian multipole field
    Component          Value
    ---------          -----
     (2,0,0)        1.00000E-11
     (0,2,0)        2.00000E-11
     (0,0,2)       -3.00000E-10
 Nucleus-field energy     =     0.0000000012 hartrees
 Requested basis set is 6-31G(d,p)
 There are 35 shells and 94 basis functions
 A cutoff of  1.0D-14 yielded    620 shell pairs
 There are      4567 function pairs
 Smallest overlap matrix eigenvalue = 6.99E-03
 Guess from superposition of atomic densities
 Warning:  Energy on first SCF cycle will be non-variational
 SAD guess density has 40.000000 electrons

 -----------------------------------------------------------------------
  General SCF calculation program by
  Eric Jon Sundstrom, Paul Horn, Yuezhi Mao, Dmitri Zuev, Alec White,
  David Stuck, Shaama M.S., Shane Yost, Joonho Lee, David Small,
  Daniel Levine, Susi Lehtola, Hugh Burton, Evgeny Epifanovsky
 -----------------------------------------------------------------------
 Exchange:     0.2000 Hartree-Fock + 0.0800 Slater + 0.7200 B88
 Correlation:  0.1900 VWN1RPA + 0.8100 LYP
 Using SG-1 standard quadrature grid
 using 12 threads for integral computing
 -------------------------------------------------------
 OpenMP Integral computing Module                
 Release: version 1.0, May 2013, Q-Chem Inc. Pittsburgh 
 -------------------------------------------------------
 -------------------------------------------------------
 OpenMP BLAS3 based DFT computing Module                
 Release: version 1.0, May 2013, Q-Chem Inc. Pittsburgh 
 -------------------------------------------------------
 A unrestricted SCF calculation will be
 performed using DIIS
 SCF converges when DIIS error is below 1.0e-06
 Alpha HF Exchange    Energy =  -4.29230159664015
 Beta HF Exchange     Energy =  -4.29230159664015
 DFT Correlation      Energy =  -1.80859675283351
 DFT Exchange         Energy = -33.53465495945704
 One-Electron (alpha) Energy = -504.24627379199774
 One-Electron (beta)  Energy = -504.24627379199774
 Total Coulomb        Energy = 382.36584900173619
 ---------------------------------------
  Cycle       Energy         DIIS error
 ---------------------------------------
    1    -516.6621203653      3.38e-02  
 Alpha HF Exchange    Energy =  -4.29270994895723
 Beta HF Exchange     Energy =  -4.29270994895723
 DFT Correlation      Energy =  -1.83479144393514
 DFT Exchange         Energy = -34.06759369164768
 One-Electron (alpha) Energy = -507.59845721264185
 One-Electron (beta)  Energy = -507.59845721264185
 Total Coulomb        Energy = 390.24652304541547
    2    -516.0457632908      3.89e-03  
 Alpha HF Exchange    Energy =  -4.24302091656586
 Beta HF Exchange     Energy =  -4.24302091656586
 DFT Correlation      Energy =  -1.81121164883171
 DFT Exchange         Energy = -33.64946349138434
 One-Electron (alpha) Energy = -504.38510260492376
 One-Electron (beta)  Energy = -504.38510260492404
 Total Coulomb        Energy = 383.28058509436818
    3    -516.0439039663      3.98e-03  
 Alpha HF Exchange    Energy =  -4.26561377048847
 Beta HF Exchange     Energy =  -4.26561377048847
 DFT Correlation      Energy =  -1.82300744506407
 DFT Exchange         Energy = -33.84018458091038
 One-Electron (alpha) Energy = -505.90065518532850
 One-Electron (beta)  Energy = -505.90065518532856
 Total Coulomb        Energy = 386.48774469093104
    4    -516.1155521241      6.25e-04  
 Alpha HF Exchange    Energy =  -4.26624233309442
 Beta HF Exchange     Energy =  -4.26624233309442
 DFT Correlation      Energy =  -1.82268926578028
 DFT Exchange         Energy = -33.84297089022536
 One-Electron (alpha) Energy = -505.94054991321235
 One-Electron (beta)  Energy = -505.94054991321241
 Total Coulomb        Energy = 386.56946343036668
    5    -516.1173480957      2.62e-04  
 Alpha HF Exchange    Energy =  -4.26649246675443
 Beta HF Exchange     Energy =  -4.26649246675444
 DFT Correlation      Energy =  -1.82293371023296
 DFT Exchange         Energy = -33.84586603207030
 One-Electron (alpha) Energy = -505.97487671744460
 One-Electron (beta)  Energy = -505.97487671744511
 Total Coulomb        Energy = 386.64144135462772
    6    -516.1176636335      6.08e-05  
 Alpha HF Exchange    Energy =  -4.26626054516751
 Beta HF Exchange     Energy =  -4.26626054516752
 DFT Correlation      Energy =  -1.82283025391442
 DFT Exchange         Energy = -33.84385512009320
 One-Electron (alpha) Energy = -505.94785643978821
 One-Electron (beta)  Energy = -505.94785643978827
 Total Coulomb        Energy = 386.58480523754537
    7    -516.1176809838      7.96e-06  
 Alpha HF Exchange    Energy =  -4.26629224862062
 Beta HF Exchange     Energy =  -4.26629224862062
 DFT Correlation      Energy =  -1.82284415055820
 DFT Exchange         Energy = -33.84410811125793
 One-Electron (alpha) Energy = -505.95176148132549
 One-Electron (beta)  Energy = -505.95176148132549
 Total Coulomb        Energy = 386.59294529494179
    8    -516.1176813042      7.09e-07  Convergence criterion met
 ---------------------------------------
 SCF time:   CPU 16.35s  wall 1.00s 
<S^2> =         -0.000000000
 Alpha HF Exchange    Energy =  -4.26629224862062
 Beta HF Exchange     Energy =  -4.26629224862062
 DFT Correlation      Energy =  -1.82284415055820
 DFT Exchange         Energy = -33.84410811125793
 One-Electron (alpha) Energy = -505.95176148132549
 One-Electron (beta)  Energy = -505.95176148132549
 Total Coulomb        Energy = 386.59294529494179
 Nuclear repulsion Energy = 153.39243312256951
 SCF   energy in the final basis set =     -516.1176813042
 Total energy in the final basis set =     -516.1176813042
 
 --------------------------------------------------------------
 
                    Orbital Energies (a.u.)
 --------------------------------------------------------------
 
 Alpha MOs
 -- Occupied --
-88.853 -10.262 -10.198 -10.198  -7.917  -5.880  -5.880  -5.871
 -0.837  -0.710  -0.709  -0.525  -0.453  -0.443  -0.442  -0.403
 -0.374  -0.358  -0.289  -0.216
 -- Virtual --
 -0.066   0.082   0.104   0.146   0.151   0.157   0.170   0.173
  0.221   0.231   0.315   0.367   0.434   0.448   0.501   0.504
  0.550   0.584   0.598   0.662   0.695   0.699   0.741   0.769
  0.803   0.810   0.852   0.877   0.888   0.896   0.906   0.940
  0.942   1.073   1.116   1.256   1.297   1.412   1.478   1.676
  1.719   1.819   1.858   1.873   1.915   2.019   2.026   2.043
  2.051   2.085   2.089   2.149   2.307   2.360   2.375   2.499
  2.575   2.591   2.692   2.694   2.804   2.851   2.889   2.930
  3.159   3.205   3.383   3.400   3.421   3.461   3.964   4.173
  4.472   4.533
 
 Beta MOs
 -- Occupied --
-88.853 -10.262 -10.198 -10.198  -7.917  -5.880  -5.880  -5.871
 -0.837  -0.710  -0.709  -0.525  -0.453  -0.443  -0.442  -0.403
 -0.374  -0.358  -0.289  -0.216
 -- Virtual --
 -0.066   0.082   0.104   0.146   0.151   0.157   0.170   0.173
  0.221   0.231   0.315   0.367   0.434   0.448   0.501   0.504
  0.550   0.584   0.598   0.662   0.695   0.699   0.741   0.769
  0.803   0.810   0.852   0.877   0.888   0.896   0.906   0.940
  0.942   1.073   1.116   1.256   1.297   1.412   1.478   1.676
  1.719   1.819   1.858   1.873   1.915   2.019   2.026   2.043
  2.051   2.085   2.089   2.149   2.307   2.360   2.375   2.499
  2.575   2.591   2.692   2.694   2.804   2.851   2.889   2.930
  3.159   3.205   3.383   3.400   3.421   3.461   3.964   4.173
  4.472   4.533
 --------------------------------------------------------------
 
          Ground-State Mulliken Net Atomic Charges

     Atom                 Charge (a.u.)    Spin (a.u.)
  --------------------------------------------------------
      1 S                    -0.129196      -0.000000
      2 C                    -0.004405       0.000000
      3 C                    -0.335089      -0.000000
      4 C                    -0.335090       0.000000
      5 H                     0.129591       0.000000
      6 H                     0.129374      -0.000000
      7 H                     0.142925      -0.000000
      8 H                     0.142925       0.000000
      9 H                     0.129545      -0.000000
     10 H                     0.129421      -0.000000
  --------------------------------------------------------
  Sum of atomic charges =    -0.000000
  Sum of spin   charges =    -0.000000

 -----------------------------------------------------------------
                    Cartesian Multipole Moments
 -----------------------------------------------------------------
    Charge (ESU x 10^10)
                -0.0000
    Dipole Moment (Debye)
         X       2.9175      Y       0.0003      Z       0.0028
       Tot       2.9175
    Quadrupole Moments (Debye-Ang)
        XX     -33.0803     XY      -0.0002     YY     -32.0841
        XZ       0.0008     YZ       0.0006     ZZ     -32.0408
    Octopole Moments (Debye-Ang^2)
       XXX       2.8059    XXY       0.0008    XYY       3.0235
       YYY       0.0044    XXZ       0.0075    XYZ       0.0015
       YYZ       0.0096    XZZ       1.3939    YZZ       0.0013
       ZZZ       0.0450
    Hexadecapole Moments (Debye-Ang^3)
      XXXX    -300.4060   XXXY      -0.0034   XXYY     -89.6439
      XYYY      -0.0075   YYYY    -201.2216   XXXZ      -0.0839
      XXYZ       0.0014   XYYZ      -0.0089   YYYZ      -0.0045
      XXZZ     -54.8504   XYZZ      -0.0013   YYZZ     -43.4151
      XZZZ      -0.0331   YZZZ       0.0045   ZZZZ     -49.0222
 -----------------------------------------------------------------
 Calculating analytic gradient of the SCF energy
 Gradient of SCF Energy
            1           2           3           4           5           6
    1   0.0313108  -0.0306815  -0.0006008  -0.0006011   0.0001189   0.0001273
    2   0.0000034  -0.0000048  -0.0001061   0.0001083   0.0000458   0.0000406
    3   0.0000209  -0.0000097  -0.0000102  -0.0000110  -0.0000002   0.0000079
            7           8           9          10
    1   0.0000401   0.0000402   0.0001197   0.0001265
    2  -0.0001396   0.0001392  -0.0000456  -0.0000411
    3  -0.0000030  -0.0000019  -0.0000001   0.0000074
 Max gradient component =       3.131E-02
 RMS gradient           =       8.005E-03
 Gradient time:  CPU 7.25 s  wall 0.61 s
 Geometry Optimization Parameters
   NAtoms,    NIC,     NZ,  NCons,   NDum,   NFix, NCnnct, MaxDiis
       10      56       0       1       0       0       0       0

 Cartesian Hessian Update
 Hessian Updated using BFGS Update


** CONSTRAINED OPTIMIZATION IN DELOCALIZED INTERNAL COORDINATES **
   Searching for a Minimum

   Optimization Cycle:   3

                       Coordinates (Angstroms)
     ATOM                X               Y               Z
      1  S        -1.3517725248   -0.0001786171   -0.0008797437
      2  C         0.2482274436   -0.0000114418   -0.0005189251
      3  C         1.0664779451    1.2686844160    0.0001172278
      4  C         1.0667480587   -1.2685291909    0.0001216117
      5  H         1.7220149053    1.2951330651    0.8807085918
      6  H         1.7285916329    1.2925687605   -0.8755635974
      7  H         0.4339110161    2.1558188831   -0.0032911754
      8  H         0.4343701472   -2.1558044974   -0.0018995109
      9  H         1.7234685036   -1.2942217135    0.8798492068
     10  H         1.7276928724   -1.2928896639   -0.8764336856
   Point Group: c1    Number of degrees of freedom:    24


   Energy is   -516.117681304

              Constraints and their Current Values
                                        Value     Constraint
   Distance(Angs):        1   2             1.600000     1.600000
 Hessian Updated using BFGS Update

 20 Hessian modes will be used to form the next step
  Hessian Eigenvalues:
     0.044987    0.045000    0.045000    0.092883    0.092889    0.095612
     0.096017    0.159927    0.160000    0.170415    0.216382    0.250000
     0.303316    0.315559    0.338506    0.338534    0.338560    0.340028
     0.347877    0.350488

 Minimum Search - Taking Simple RFO Step
 Searching for Lamda that Minimizes Along All modes
 Value Taken    Lamda =  -0.00000339
 Step Taken.  Stepsize is  0.004229

                             Maximum     Tolerance    Cnvgd?
         Gradient           0.000471      0.000300      NO
         Displacement       0.002512      0.001200      NO
         Energy change     -0.000023      0.000001      NO


 New Cartesian Coordinates Obtained by Inverse Iteration

 Displacement from previous Coordinates is:  0.009859
 ----------------------------------------------------------------
             Standard Nuclear Orientation (Angstroms)
    I     Atom           X                Y                Z
 ----------------------------------------------------------------
    1      S      -1.3534060060    -0.0001792970    -0.0010174507
    2      C       0.2465939315    -0.0000105117    -0.0005392812
    3      C       1.0667514356     1.2682540539     0.0001384957
    4      C       1.0670217777    -1.2681001204     0.0001465111
    5      H       1.7218891963     1.2932642879     0.8809041667
    6      H       1.7283395920     1.2907911251    -0.8758117782
    7      H       0.4356484429     2.1567251313    -0.0031909201
    8      H       0.4361062581    -2.1567093900    -0.0018149241
    9      H       1.7233258666    -1.2923575697     0.8800597118
   10      H       1.7274595052    -1.2911077095    -0.8766645310
 ----------------------------------------------------------------
 Nuclear Repulsion Energy =   153.3581320533 hartrees
 There are       20 alpha and       20 beta electrons

                       Distance Matrix (Angstroms)
             S (  1)   C (  2)   C (  3)   C (  4)   H (  5)   H (  6)
   C (  2)  1.600000
   C (  3)  2.732414  1.510349
   C (  4)  2.732416  1.510349  2.536354
   H (  5)  3.450829  2.150813  1.097989  2.786606
   H (  6)  3.453842  2.151242  1.097951  2.784343  1.756730
   H (  7)  2.802313  2.165007  1.089809  3.482538  1.783705  1.783917
   H (  8)  2.802316  2.165010  3.482541  1.089809  3.786126  3.784045
   H (  9)  3.451420  2.150896  2.786052  1.097985  2.585622  3.123422
   H ( 10)  3.453257  2.151160  2.784897  1.097955  3.125389  2.581899
             H (  7)   H (  8)   H (  9)
   H (  8)  4.313435
   H (  9)  3.786082  1.783744
   H ( 10)  3.784083  1.783878  1.756730
 
 Applying Cartesian multipole field
    Component          Value
    ---------          -----
     (2,0,0)        1.00000E-11
     (0,2,0)        2.00000E-11
     (0,0,2)       -3.00000E-10
 Nucleus-field energy     =     0.0000000012 hartrees
 Requested basis set is 6-31G(d,p)
 There are 35 shells and 94 basis functions
 A cutoff of  1.0D-14 yielded    620 shell pairs
 There are      4567 function pairs
 Smallest overlap matrix eigenvalue = 7.00E-03
 Guess from superposition of atomic densities
 Warning:  Energy on first SCF cycle will be non-variational
 SAD guess density has 40.000000 electrons

 -----------------------------------------------------------------------
  General SCF calculation program by
  Eric Jon Sundstrom, Paul Horn, Yuezhi Mao, Dmitri Zuev, Alec White,
  David Stuck, Shaama M.S., Shane Yost, Joonho Lee, David Small,
  Daniel Levine, Susi Lehtola, Hugh Burton, Evgeny Epifanovsky
 -----------------------------------------------------------------------
 Exchange:     0.2000 Hartree-Fock + 0.0800 Slater + 0.7200 B88
 Correlation:  0.1900 VWN1RPA + 0.8100 LYP
 Using SG-1 standard quadrature grid
 using 12 threads for integral computing
 -------------------------------------------------------
 OpenMP Integral computing Module                
 Release: version 1.0, May 2013, Q-Chem Inc. Pittsburgh 
 -------------------------------------------------------
 -------------------------------------------------------
 OpenMP BLAS3 based DFT computing Module                
 Release: version 1.0, May 2013, Q-Chem Inc. Pittsburgh 
 -------------------------------------------------------
 A unrestricted SCF calculation will be
 performed using DIIS
 SCF converges when DIIS error is below 1.0e-06
 Alpha HF Exchange    Energy =  -4.29214923417659
 Beta HF Exchange     Energy =  -4.29214923417659
 DFT Correlation      Energy =  -1.80856398060104
 DFT Exchange         Energy = -33.53435672501462
 One-Electron (alpha) Energy = -504.21254461333655
 One-Electron (beta)  Energy = -504.21254461333655
 Total Coulomb        Energy = 382.33348324633187
 ---------------------------------------
  Cycle       Energy         DIIS error
 ---------------------------------------
    1    -516.6606930999      3.37e-02  
 Alpha HF Exchange    Energy =  -4.29263963697807
 Beta HF Exchange     Energy =  -4.29263963697807
 DFT Correlation      Energy =  -1.83474674079565
 DFT Exchange         Energy = -34.06707272922282
 One-Electron (alpha) Energy = -507.56233814033050
 One-Electron (beta)  Energy = -507.56233814033033
 Total Coulomb        Energy = 390.20784646093614
    2    -516.0457965092      3.89e-03  
 Alpha HF Exchange    Energy =  -4.24298407950298
 Beta HF Exchange     Energy =  -4.24298407950298
 DFT Correlation      Energy =  -1.81118383131329
 DFT Exchange         Energy = -33.64922101036305
 One-Electron (alpha) Energy = -504.35332641054595
 One-Electron (beta)  Energy = -504.35332641054561
 Total Coulomb        Energy = 383.25097119691213
    3    -516.0439225704      3.98e-03  
 Alpha HF Exchange    Energy =  -4.26555322144072
 Beta HF Exchange     Energy =  -4.26555322144071
 DFT Correlation      Energy =  -1.82296641440220
 DFT Exchange         Energy = -33.83973581228470
 One-Electron (alpha) Energy = -505.86583399085981
 One-Electron (beta)  Energy = -505.86583399085970
 Total Coulomb        Energy = 386.45177538331711
    4    -516.1155692135      6.23e-04  
 Alpha HF Exchange    Energy =  -4.26618686725586
 Beta HF Exchange     Energy =  -4.26618686725586
 DFT Correlation      Energy =  -1.82265068829604
 DFT Exchange         Energy = -33.84256614987510
 One-Electron (alpha) Energy = -505.90621239299389
 One-Electron (beta)  Energy = -505.90621239299395
 Total Coulomb        Energy = 386.53453626714366
    5    -516.1173470371      2.63e-04  
 Alpha HF Exchange    Energy =  -4.26643755701238
 Beta HF Exchange     Energy =  -4.26643755701237
 DFT Correlation      Energy =  -1.82289656174106
 DFT Exchange         Energy = -33.84547102990615
 One-Electron (alpha) Energy = -505.94065598076037
 One-Electron (beta)  Energy = -505.94065598076008
 Total Coulomb        Energy = 386.60675729914487
    6    -516.1176653136      6.12e-05  
 Alpha HF Exchange    Energy =  -4.26620469597775
 Beta HF Exchange     Energy =  -4.26620469597774
 DFT Correlation      Energy =  -1.82279248334012
 DFT Exchange         Energy = -33.84345116804096
 One-Electron (alpha) Energy = -505.91353676126681
 One-Electron (beta)  Energy = -505.91353676126670
 Total Coulomb        Energy = 386.54991165841795
    7    -516.1176828530      7.95e-06  
 Alpha HF Exchange    Energy =  -4.26623637983319
 Beta HF Exchange     Energy =  -4.26623637983319
 DFT Correlation      Energy =  -1.82280637362437
 DFT Exchange         Energy = -33.84370398594039
 One-Electron (alpha) Energy = -505.91743524917592
 One-Electron (beta)  Energy = -505.91743524917587
 Total Coulomb        Energy = 386.55803839092670
    8    -516.1176831722      7.11e-07  Convergence criterion met
 ---------------------------------------
 SCF time:   CPU 16.72s  wall 2.00s 
<S^2> =         -0.000000000
 Alpha HF Exchange    Energy =  -4.26623637983319
 Beta HF Exchange     Energy =  -4.26623637983319
 DFT Correlation      Energy =  -1.82280637362437
 DFT Exchange         Energy = -33.84370398594039
 One-Electron (alpha) Energy = -505.91743524917592
 One-Electron (beta)  Energy = -505.91743524917587
 Total Coulomb        Energy = 386.55803839092670
 Nuclear repulsion Energy = 153.35813205445049
 SCF   energy in the final basis set =     -516.1176831722
 Total energy in the final basis set =     -516.1176831722
 
 --------------------------------------------------------------
 
                    Orbital Energies (a.u.)
 --------------------------------------------------------------
 
 Alpha MOs
 -- Occupied --
-88.853 -10.262 -10.198 -10.198  -7.917  -5.880  -5.880  -5.871
 -0.837  -0.710  -0.709  -0.525  -0.453  -0.443  -0.442  -0.403
 -0.374  -0.358  -0.289  -0.216
 -- Virtual --
 -0.066   0.082   0.104   0.146   0.151   0.157   0.170   0.173
  0.221   0.230   0.315   0.366   0.434   0.448   0.502   0.504
  0.550   0.584   0.599   0.662   0.695   0.699   0.742   0.769
  0.803   0.810   0.852   0.877   0.888   0.895   0.906   0.940
  0.942   1.072   1.116   1.256   1.298   1.414   1.478   1.675
  1.718   1.820   1.857   1.872   1.915   2.019   2.026   2.043
  2.051   2.084   2.089   2.149   2.307   2.360   2.375   2.499
  2.575   2.591   2.691   2.694   2.804   2.851   2.888   2.929
  3.159   3.205   3.383   3.400   3.422   3.461   3.964   4.173
  4.472   4.533
 
 Beta MOs
 -- Occupied --
-88.853 -10.262 -10.198 -10.198  -7.917  -5.880  -5.880  -5.871
 -0.837  -0.710  -0.709  -0.525  -0.453  -0.443  -0.442  -0.403
 -0.374  -0.358  -0.289  -0.216
 -- Virtual --
 -0.066   0.082   0.104   0.146   0.151   0.157   0.170   0.173
  0.221   0.230   0.315   0.366   0.434   0.448   0.502   0.504
  0.550   0.584   0.599   0.662   0.695   0.699   0.742   0.769
  0.803   0.810   0.852   0.877   0.888   0.895   0.906   0.940
  0.942   1.072   1.116   1.256   1.298   1.414   1.478   1.675
  1.718   1.820   1.857   1.872   1.915   2.019   2.026   2.043
  2.051   2.084   2.089   2.149   2.307   2.360   2.375   2.499
  2.575   2.591   2.691   2.694   2.804   2.851   2.888   2.929
  3.159   3.205   3.383   3.400   3.422   3.461   3.964   4.173
  4.472   4.533
 --------------------------------------------------------------
 
          Ground-State Mulliken Net Atomic Charges

     Atom                 Charge (a.u.)    Spin (a.u.)
  --------------------------------------------------------
      1 S                    -0.129005       0.000000
      2 C                    -0.004440      -0.000000
      3 C                    -0.335095      -0.000000
      4 C                    -0.335096      -0.000000
      5 H                     0.129617       0.000000
      6 H                     0.129408       0.000000
      7 H                     0.142793       0.000000
      8 H                     0.142792       0.000000
      9 H                     0.129571       0.000000
     10 H                     0.129454      -0.000000
  --------------------------------------------------------
  Sum of atomic charges =    -0.000000
  Sum of spin   charges =     0.000000

 -----------------------------------------------------------------
                    Cartesian Multipole Moments
 -----------------------------------------------------------------
    Charge (ESU x 10^10)
                -0.0000
    Dipole Moment (Debye)
         X       2.9164      Y       0.0003      Z       0.0029
       Tot       2.9164
    Quadrupole Moments (Debye-Ang)
        XX     -33.0854     XY      -0.0002     YY     -32.0897
        XZ       0.0005     YZ       0.0005     ZZ     -32.0386
    Octopole Moments (Debye-Ang^2)
       XXX       2.8659    XXY       0.0008    XYY       3.0433
       YYY       0.0044    XXZ       0.0093    XYZ       0.0015
       YYZ       0.0114    XZZ       1.4200    YZZ       0.0013
       ZZZ       0.0494
    Hexadecapole Moments (Debye-Ang^3)
      XXXX    -300.7734   XXXY      -0.0034   XXYY     -89.7166
      XYYY      -0.0075   YYYY    -201.0974   XXXZ      -0.0918
      XXYZ       0.0014   XYYZ      -0.0127   YYYZ      -0.0043
      XXZZ     -54.9025   XYZZ      -0.0013   YYZZ     -43.4023
      XZZZ      -0.0417   YZZZ       0.0046   ZZZZ     -49.0199
 -----------------------------------------------------------------
 Calculating analytic gradient of the SCF energy
 Gradient of SCF Energy
            1           2           3           4           5           6
    1   0.0311192  -0.0311006  -0.0000959  -0.0000959   0.0000399   0.0000474
    2   0.0000033  -0.0000035  -0.0000293   0.0000297   0.0000151   0.0000104
    3   0.0000226  -0.0000126  -0.0000079  -0.0000083  -0.0000091   0.0000158
            7           8           9          10
    1  -0.0000008  -0.0000007   0.0000406   0.0000468
    2   0.0000045  -0.0000046  -0.0000147  -0.0000109
    3  -0.0000038  -0.0000027  -0.0000094   0.0000154
 Max gradient component =       3.112E-02
 RMS gradient           =       8.033E-03
 Gradient time:  CPU 7.35 s  wall 0.62 s
 Geometry Optimization Parameters
   NAtoms,    NIC,     NZ,  NCons,   NDum,   NFix, NCnnct, MaxDiis
       10      56       0       1       0       0       0       0

 Cartesian Hessian Update
 Hessian Updated using BFGS Update


** CONSTRAINED OPTIMIZATION IN DELOCALIZED INTERNAL COORDINATES **
   Searching for a Minimum

   Optimization Cycle:   4

                       Coordinates (Angstroms)
     ATOM                X               Y               Z
      1  S        -1.3534060060   -0.0001792970   -0.0010174507
      2  C         0.2465939315   -0.0000105117   -0.0005392812
      3  C         1.0667514356    1.2682540539    0.0001384957
      4  C         1.0670217777   -1.2681001204    0.0001465111
      5  H         1.7218891963    1.2932642879    0.8809041667
      6  H         1.7283395920    1.2907911251   -0.8758117782
      7  H         0.4356484429    2.1567251313   -0.0031909201
      8  H         0.4361062581   -2.1567093900   -0.0018149241
      9  H         1.7233258666   -1.2923575697    0.8800597118
     10  H         1.7274595052   -1.2911077095   -0.8766645310
   Point Group: c1    Number of degrees of freedom:    24


   Energy is   -516.117683172

              Constraints and their Current Values
                                        Value     Constraint
   Distance(Angs):        1   2             1.600000     1.600000
 Hessian Updated using BFGS Update

 20 Hessian modes will be used to form the next step
  Hessian Eigenvalues:
     0.044725    0.045000    0.045000    0.092170    0.092887    0.092982
     0.096017    0.148178    0.160000    0.160000    0.161897    0.225224
     0.250000    0.307314    0.315559    0.338506    0.338534    0.338560
     0.339814    0.351333

 Minimum Search - Taking Simple RFO Step
 Searching for Lamda that Minimizes Along All modes
 Value Taken    Lamda =   0.00000000
 Step Taken.  Stepsize is  0.001047

                             Maximum     Tolerance    Cnvgd?
         Gradient           0.000081      0.000300     YES
         Displacement       0.000609      0.001200     YES
         Energy change     -0.000002      0.000001      NO


                       Distance Matrix (Angstroms)
             S (  1)   C (  2)   C (  3)   C (  4)   H (  5)   H (  6)
   C (  2)  1.600000
   C (  3)  2.732414  1.510349
   C (  4)  2.732416  1.510349  2.536354
   H (  5)  3.450829  2.150813  1.097989  2.786606
   H (  6)  3.453842  2.151242  1.097951  2.784343  1.756730
   H (  7)  2.802313  2.165007  1.089809  3.482538  1.783705  1.783917
   H (  8)  2.802316  2.165010  3.482541  1.089809  3.786126  3.784045
   H (  9)  3.451420  2.150896  2.786052  1.097985  2.585622  3.123422
   H ( 10)  3.453257  2.151160  2.784897  1.097955  3.125389  2.581899
             H (  7)   H (  8)   H (  9)
   H (  8)  4.313435
   H (  9)  3.786082  1.783744
   H ( 10)  3.784083  1.783878  1.756730
 
 Final energy is   -516.117683172206     


 ******************************
 **  OPTIMIZATION CONVERGED  **
 ******************************

                       Coordinates (Angstroms)
     ATOM                X               Y               Z
      1  S        -1.3534060060   -0.0001792970   -0.0010174507
      2  C         0.2465939315   -0.0000105117   -0.0005392812
      3  C         1.0667514356    1.2682540539    0.0001384957
      4  C         1.0670217777   -1.2681001204    0.0001465111
      5  H         1.7218891963    1.2932642879    0.8809041667
      6  H         1.7283395920    1.2907911251   -0.8758117782
      7  H         0.4356484429    2.1567251313   -0.0031909201
      8  H         0.4361062581   -2.1567093900   -0.0018149241
      9  H         1.7233258666   -1.2923575697    0.8800597118
     10  H         1.7274595052   -1.2911077095   -0.8766645310

Z-matrix Print:
$molecule
0 1
S 
C  1 1.600000
C  2 1.510349 1 122.895995
H  3 1.089809 2 111.722998 1 0.117804 0
H  3 1.097955 2 110.119382 1 121.713957 0
H  3 1.097985 2 110.096672 1 -121.444341 0
C  2 1.510349 1 122.895867 3 -179.960546 0
H  7 1.089809 2 111.722867 1 -0.194904 0
H  7 1.097951 2 110.126081 1 -121.800530 0
H  7 1.097989 2 110.089921 1 121.357773 0
$end

PES scan, value:    1.6000 energy: -516.1176831722
------- Summary of potential scan: ------ 
    1.6000      -516.1176831722
----------------------------------------- 
Archival summary:
1\1\hpc0249\JobtypUnspecified\ProcedureUnspecified\6-31G**\136\knomura\WedMar1313:48:012019WedMar1313:48:012019\0\\#,JobtypUnspecified,ProcedureUnspecified,6-31G**,\\0,1\S\C,1,1.6\C,2,1.51035,1,122.896\H,3,1.08981,2,111.723,1,0.117804,0\H,3,1.09795,2,110.119,1,121.714,0\H,3,1.09798,2,110.097,1,-121.444,0\C,2,1.51035,1,122.896,3,-179.961,0\H,7,1.08981,2,111.723,1,-0.194904,0\H,7,1.09795,2,110.126,1,-121.801,0\H,7,1.09799,2,110.09,1,121.358,0\\\@

 Total job time:  10.21s(wall), 114.98s(cpu) 
 Wed Mar 13 13:48:01 2019

        *************************************************************
        *                                                           *
        *  Thank you very much for using Q-Chem.  Have a nice day.  *
        *                                                           *
        *************************************************************


