
Running Job 1 of 1 thio_ketone/CHOSx.xyz.data/inputs/bond_singlet_1.7.in
qchem thio_ketone/CHOSx.xyz.data/inputs/bond_singlet_1.7.in_3657.0 /staging/scratch/2868766/qchem3657/ 1
/usr/usc/qchem/5.1.1/exe/qcprog.exe_s thio_ketone/CHOSx.xyz.data/inputs/bond_singlet_1.7.in_3657.0 /staging/scratch/2868766/qchem3657/
Check license passed

                  Welcome to Q-Chem
     A Quantum Leap Into The Future Of Chemistry


 Q-Chem 5.1, Q-Chem, Inc., Pleasanton, CA (2018)

 Yihan Shao,  Zhengting Gan,  E. Epifanovsky,  A. T. B. Gilbert,  M. Wormit,  
 J. Kussmann,  A. W. Lange,  A. Behn,  Jia Deng,  Xintian Feng,  D. Ghosh,  
 M. Goldey,  P. R. Horn,  L. D. Jacobson,  I. Kaliman,  T. Kus,  A. Landau,  
 Jie Liu,  E. I. Proynov,  R. M. Richard,  R. P. Steele,  E. J. Sundstrom,  
 H. L. Woodcock III,  P. M. Zimmerman,  D. Zuev,  B. Albrecht,  E. Alguire,  
 S. A. Baeppler,  D. Barton,  Z. Benda,  Y. A. Bernard,  E. J. Berquist,  
 K. B. Bravaya,  H. Burton,  D. Casanova,  Chun-Min Chang,  Yunqing Chen,  
 A. Chien,  K. D. Closser,  M. P. Coons,  S. Coriani,  S. Dasgupta,  
 A. L. Dempwolff,  M. Diedenhofen,  Hainam Do,  R. G. Edgar,  Po-Tung Fang,  
 S. Faraji,  S. Fatehi,  Qingguo Feng,  K. D. Fenk,  J. Fosso-Tande,  
 Qinghui Ge,  A. Ghysels,  G. Gidofalvi,  J. Gomes,  J. Gonthier,  A. Gunina,  
 D. Hait,  M. W. D. Hanson-Heine,  P. H. P. Harbach,  A. W. Hauser,  
 J. E. Herr,  E. G. Hohenstein,  Z. C. Holden,  Kerwin Hui,  B. C. Huynh,  
 T.-C. Jagau,  Hyunjun Ji,  B. Kaduk,  K. Khistyaev,  Jaehoon Kim,  
 P. Klunzinger,  K. Koh,  D. Kosenkov,  L. Koulias,  T. Kowalczyk,  
 C. M. Krauter,  A. Kunitsa,  Ka Un Lao,  A. Laurent,  K. V. Lawler,  
 Joonho Lee,  D. Lefrancois,  S. Lehtola,  D. S. Levine,  Yi-Pei Li,  
 You-Sheng Lin,  Fenglai Liu,  E. Livshits,  A. Luenser,  P. Manohar,  
 E. Mansoor,  S. F. Manzer,  Shan-Ping Mao,  Yuezhi Mao,  N. Mardirossian,  
 A. V. Marenich,  T. Markovich,  L. A. Martinez-Martinez,  S. A. Maurer,  
 N. J. Mayhall,  S. C. McKenzie,  J.-M. Mewes,  A. F. Morrison,  
 J. W. Mullinax,  K. Nanda,  T. S. Nguyen-Beck,  R. Olivares-Amaya,  
 J. A. Parkhill,  T. M. Perrine,  F. Plasser,  P. Pokhilko,  S. Prager,  
 A. Prociuk,  E. Ramos,  D. R. Rehn,  F. Rob,  M. Schneider,  N. Sergueev,  
 S. M. Sharada,  S. Sharma,  D. W. Small,  T. Stauch,  T. Stein,  
 Yu-Chuan Su,  A. J. W. Thom,  A. Tkatchenko,  T. Tsuchimochi,  N. M. Tubman,  
 L. Vogt,  M. L. Vidal,  O. Vydrov,  M. A. Watson,  J. Wenzel,  
 M. de Wergifosse,  T. A. Wesolowski,  A. White,  J. Witte,  A. Yamada,  
 Jun Yang,  K. Yao,  S. Yeganeh,  S. R. Yost,  Zhi-Qiang You,  A. Zech,  
 Igor Ying Zhang,  Xing Zhang,  Yan Zhao,  Ying Zhu,  B. R. Brooks,  
 G. K. L. Chan,  C. J. Cramer,  M. S. Gordon,  W. J. Hehre,  A. Klamt,  
 M. W. Schmidt,  C. D. Sherrill,  D. G. Truhlar,  A. Aspuru-Guzik,  R. Baer,  
 A. T. Bell,  N. A. Besley,  Jeng-Da Chai,  A. E. DePrince, III,  
 R. A. DiStasio Jr.,  A. Dreuw,  B. D. Dunietz,  T. R. Furlani,  
 Chao-Ping Hsu,  Yousung Jung,  Jing Kong,  D. S. Lambrecht,  WanZhen Liang,  
 C. Ochsenfeld,  V. A. Rassolov,  L. V. Slipchenko,  J. E. Subotnik,  
 T. Van Voorhis,  J. M. Herbert,  A. I. Krylov,  P. M. W. Gill,  M. Head-Gordon

 Contributors to earlier versions of Q-Chem not listed above: 
 R. D. Adamson,  B. Austin,  J. Baker,  G. J. O. Beran,  K. Brandhorst,  
 S. T. Brown,  E. F. C. Byrd,  A. K. Chakraborty,  C.-L. Cheng,  
 Siu Hung Chien,  D. M. Chipman,  D. L. Crittenden,  H. Dachsel,  
 R. J. Doerksen,  A. D. Dutoi,  L. Fusti-Molnar,  W. A. Goddard III,  
 A. Golubeva-Zadorozhnaya,  S. R. Gwaltney,  G. Hawkins,  A. Heyden,  
 S. Hirata,  G. Kedziora,  F. J. Keil,  C. Kelley,  Jihan Kim,  R. A. King,  
 R. Z. Khaliullin,  P. P. Korambath,  W. Kurlancheek,  A. M. Lee,  M. S. Lee,  
 S. V. Levchenko,  Ching Yeh Lin,  D. Liotard,  R. C. Lochan,  I. Lotan,  
 P. E. Maslen,  N. Nair,  D. P. O'Neill,  D. Neuhauser,  E. Neuscamman,  
 C. M. Oana,  R. Olson,  B. Peters,  R. Peverati,  P. A. Pieniazek,  
 Y. M. Rhee,  J. Ritchie,  M. A. Rohrdanz,  E. Rosta,  N. J. Russ,  
 H. F. Schaefer III,  N. E. Schultz,  N. Shenvi,  A. C. Simmonett,  A. Sodt,  
 D. Stuck,  K. S. Thanthiriwatte,  V. Vanovschi,  Tao Wang,  A. Warshel,  
 C. F. Williams,  Q. Wu,  X. Xu,  W. Zhang

 Please cite Q-Chem as follows:
 Y. Shao et al., Mol. Phys. 113, 184-215 (2015)
 DOI: 10.1080/00268976.2014.952696

 Q-Chem 5.1.1 for Intel X86 EM64T Linux

 Parts of Q-Chem use Armadillo 8.300.2 (Tropical Shenanigans).
 http://arma.sourceforge.net/

 Q-Chem begins on Wed Mar 13 13:48:03 2019  

Host: 
0

     Scratch files written to /staging/scratch/2868766/qchem3657//
 Aug318 |scratch|qcdevops|jenkins|workspace|build_RNUM 6013   
Processing $rem in /usr/usc/qchem/5.1.1/config/preferences.
 MEM_TOTAL  2000 
Input Ideriv = 2
Curr. Ideriv = -1
Max.  Ideriv = 2

Checking the input file for inconsistencies... 	...done.

--------------------------------------------------------------
User input:
--------------------------------------------------------------

$comment
potential surface scanner
$end

$rem
JOBTYPE  PES_SCAN
UNRESTRICTED TRUE
SYM_IGNORE  TRUE
GEOM_OPT_MAX_CYCLES 400
SCF_MAX_CYCLES 400
METHOD   B3LYP
BASIS   6-31G**
PDB_PRINT 2
SCF_CONVERGENCE 6
THRESH 14
SCF_PRINT 1
$end
$molecule
0 1
S -1.353406 -0.000179 -0.001017
C 0.246594 -0.000011 -0.000539
C 1.066751 1.268254 0.000138
C 1.067022 -1.268100 0.000147
H 1.721889 1.293264 0.880904
H 1.728340 1.290791 -0.875812
H 0.435648 2.156725 -0.003191
H 0.436106 -2.156709 -0.001815
H 1.723326 -1.292358 0.880060
H 1.727460 -1.291108 -0.876665
$end
$scan
stre 1 2 1.700000 1.701000 0.100000
$end
--------------------------------------------------------------
 ----------------------------------------------------------------
             Standard Nuclear Orientation (Angstroms)
    I     Atom           X                Y                Z
 ----------------------------------------------------------------
    1      S      -1.3534060000    -0.0001790000    -0.0010170000
    2      C       0.2465940000    -0.0000110000    -0.0005390000
    3      C       1.0667510000     1.2682540000     0.0001380000
    4      C       1.0670220000    -1.2681000000     0.0001470000
    5      H       1.7218890000     1.2932640000     0.8809040000
    6      H       1.7283400000     1.2907910000    -0.8758120000
    7      H       0.4356480000     2.1567250000    -0.0031910000
    8      H       0.4361060000    -2.1567090000    -0.0018150000
    9      H       1.7233260000    -1.2923580000     0.8800600000
   10      H       1.7274600000    -1.2911080000    -0.8766650000
 ----------------------------------------------------------------
 Nuclear Repulsion Energy =   153.3581317795 hartrees
 There are       20 alpha and       20 beta electrons
 Requested basis set is 6-31G(d,p)
 There are 35 shells and 94 basis functions

 Total QAlloc Memory Limit   2000 MB
 Mega-Array Size       188 MB
 MEM_STATIC part       192 MB
A total of 1 constraints
  
            1
    1   1.0100000
    2   1.0100000
    3   2.0100000
    4   1.7000000
    5   1.7010000
    6   0.1000000
    7   0.0000000
    8   0.0000000
    9   0.0000000
   10   0.0000000

                       Distance Matrix (Angstroms)
             S (  1)   C (  2)   C (  3)   C (  4)   H (  5)   H (  6)
   C (  2)  1.600000
   C (  3)  2.732413  1.510349
   C (  4)  2.732416  1.510348  2.536354
   H (  5)  3.450829  2.150813  1.097989  2.786605
   H (  6)  3.453843  2.151242  1.097951  2.784344  1.756730
   H (  7)  2.802312  2.165008  1.089809  3.482538  1.783705  1.783918
   H (  8)  2.802316  2.165009  3.482541  1.089810  3.786125  3.784045
   H (  9)  3.451420  2.150896  2.786052  1.097985  2.585623  3.123423
   H ( 10)  3.453258  2.151161  2.784897  1.097956  3.125389  2.581899
             H (  7)   H (  8)   H (  9)
   H (  8)  4.313434
   H (  9)  3.786082  1.783744
   H ( 10)  3.784083  1.783879  1.756730
 
 A cutoff of  1.0D-14 yielded    620 shell pairs
 There are      4567 function pairs
 
 -------------------------------------------------------
 OpenMP Integral Computing Module                       
 Release: version 1.0, May 2013, Q-Chem Inc. Pittsburgh 
 -------------------------------------------------------
 Integral Job Info:
 Integral job number is                      11
 Integral operator is                         1
 short-range coefficients                     0
 long-range coefficients              100000000
 Omega coefficients                           0
 if combine SR and LR in K                    0
 Integral screening is                        0
 Integral computing path is                   2
 max size of driver memory is            800000
 size of driver memory is                593474
 size of scratch memory is             15267112
 max col of scratch BK array               1296
 max len of scratch array in speh3          155
 max len of scratch index in speh4           18
 max int batch size is                      520
 min int batch size is                       52
 fixed nKL is                                52
 max L of basis functions is                  2
 order of int derivative is                   0
 number of shells is                         35
 number of basis is                          94
 number of cartesian basis is                94
 number of contracted shell pairs           620
 number of primitive shell pairs           2447
 maxK2 (contraction) of shell pair           36
 max number of K2 of shell pair               1
 max number of CS2 of shell pair             48
 max number of PS2 of shell pair            222
 mem total for path MDJ                  514716
 -------------------------------------------------------
 Smallest overlap matrix eigenvalue = 7.00E-03

 Scale SEOQF with 1.000000e-01/1.000000e-01/1.000000e+00

 Standard Electronic Orientation quadrupole field applied
 Nucleus-field energy     =     0.0000000012 hartrees
 Guess from superposition of atomic densities
 Warning:  Energy on first SCF cycle will be non-variational
 SAD guess density has 40.000000 electrons

 -----------------------------------------------------------------------
  General SCF calculation program by
  Eric Jon Sundstrom, Paul Horn, Yuezhi Mao, Dmitri Zuev, Alec White,
  David Stuck, Shaama M.S., Shane Yost, Joonho Lee, David Small,
  Daniel Levine, Susi Lehtola, Hugh Burton, Evgeny Epifanovsky
 -----------------------------------------------------------------------
 Exchange:     0.2000 Hartree-Fock + 0.0800 Slater + 0.7200 B88
 Correlation:  0.1900 VWN1RPA + 0.8100 LYP
 Using SG-1 standard quadrature grid
 using 12 threads for integral computing
 -------------------------------------------------------
 OpenMP Integral computing Module                
 Release: version 1.0, May 2013, Q-Chem Inc. Pittsburgh 
 -------------------------------------------------------
 -------------------------------------------------------
 OpenMP BLAS3 based DFT computing Module                
 Release: version 1.0, May 2013, Q-Chem Inc. Pittsburgh 
 -------------------------------------------------------
 A unrestricted SCF calculation will be
 performed using DIIS
 SCF converges when DIIS error is below 1.0e-06
 Alpha HF Exchange    Energy =  -4.29214917842995
 Beta HF Exchange     Energy =  -4.29214917842995
 DFT Correlation      Energy =  -1.80856397052984
 DFT Exchange         Energy = -33.53435659831753
 One-Electron (alpha) Energy = -504.21254496256404
 One-Electron (beta)  Energy = -504.21254496256404
 Total Coulomb        Energy = 382.33348426932315
 ---------------------------------------
  Cycle       Energy         DIIS error
 ---------------------------------------
    1    -516.6606928008      3.37e-02  
 Alpha HF Exchange    Energy =  -4.29263958408046
 Beta HF Exchange     Energy =  -4.29263958408046
 DFT Correlation      Energy =  -1.83474672394142
 DFT Exchange         Energy = -34.06707234913414
 One-Electron (alpha) Energy = -507.56233824789945
 One-Electron (beta)  Energy = -507.56233824789922
 Total Coulomb        Energy = 390.20784639591488
    2    -516.0457965604      3.89e-03  
 Alpha HF Exchange    Energy =  -4.24298403667844
 Beta HF Exchange     Energy =  -4.24298403667844
 DFT Correlation      Energy =  -1.81118381369224
 DFT Exchange         Energy = -33.64922069879746
 One-Electron (alpha) Energy = -504.35332540527554
 One-Electron (beta)  Energy = -504.35332540527548
 Total Coulomb        Energy = 383.25096902024961
    3    -516.0439225955      3.98e-03  
 Alpha HF Exchange    Energy =  -4.26555317994318
 Beta HF Exchange     Energy =  -4.26555317994318
 DFT Correlation      Energy =  -1.82296639994927
 DFT Exchange         Energy = -33.83973552170288
 One-Electron (alpha) Energy = -505.86583404475800
 One-Electron (beta)  Energy = -505.86583404475823
 Total Coulomb        Energy = 386.45177537568156
    4    -516.1155692147      6.23e-04  
 Alpha HF Exchange    Energy =  -4.26618682438516
 Beta HF Exchange     Energy =  -4.26618682438516
 DFT Correlation      Energy =  -1.82265067326597
 DFT Exchange         Energy = -33.84256584729479
 One-Electron (alpha) Energy = -505.90621231633145
 One-Electron (beta)  Energy = -505.90621231633145
 Total Coulomb        Energy = 386.53453597995707
    5    -516.1173470414      2.63e-04  
 Alpha HF Exchange    Energy =  -4.26643751355501
 Beta HF Exchange     Energy =  -4.26643751355501
 DFT Correlation      Energy =  -1.82289654621621
 DFT Exchange         Energy = -33.84547072130755
 One-Electron (alpha) Energy = -505.94065583775108
 One-Electron (beta)  Energy = -505.94065583775108
 Total Coulomb        Energy = 386.60675687226160
    6    -516.1176653172      6.12e-05  
 Alpha HF Exchange    Energy =  -4.26620465289632
 Beta HF Exchange     Energy =  -4.26620465289632
 DFT Correlation      Energy =  -1.82279246801977
 DFT Exchange         Energy = -33.84345086284513
 One-Electron (alpha) Energy = -505.91353665328029
 One-Electron (beta)  Energy = -505.91353665328023
 Total Coulomb        Energy = 386.54991130598893
    7    -516.1176828566      7.95e-06  
 Alpha HF Exchange    Energy =  -4.26623633675979
 Beta HF Exchange     Energy =  -4.26623633675979
 DFT Correlation      Energy =  -1.82280635830469
 DFT Exchange         Energy = -33.84370368081019
 One-Electron (alpha) Energy = -505.91743514317011
 One-Electron (beta)  Energy = -505.91743514317005
 Total Coulomb        Energy = 386.55803804253992
    8    -516.1176831758      7.11e-07  Convergence criterion met
 ---------------------------------------
 SCF time:   CPU 16.69s  wall 2.00s 
<S^2> =         -0.000000000
 Alpha HF Exchange    Energy =  -4.26623633675979
 Beta HF Exchange     Energy =  -4.26623633675979
 DFT Correlation      Energy =  -1.82280635830469
 DFT Exchange         Energy = -33.84370368081019
 One-Electron (alpha) Energy = -505.91743514317011
 One-Electron (beta)  Energy = -505.91743514317005
 Total Coulomb        Energy = 386.55803804253992
 Nuclear repulsion Energy = 153.35813178067659
 SCF   energy in the final basis set =     -516.1176831758
 Total energy in the final basis set =     -516.1176831758
 
 --------------------------------------------------------------
 
                    Orbital Energies (a.u.)
 --------------------------------------------------------------
 
 Alpha MOs
 -- Occupied --
-88.853 -10.262 -10.198 -10.198  -7.917  -5.880  -5.880  -5.871
 -0.837  -0.710  -0.709  -0.525  -0.453  -0.443  -0.442  -0.403
 -0.374  -0.358  -0.289  -0.216
 -- Virtual --
 -0.066   0.082   0.104   0.146   0.151   0.157   0.170   0.173
  0.221   0.230   0.315   0.366   0.434   0.448   0.502   0.504
  0.550   0.584   0.599   0.662   0.695   0.699   0.742   0.769
  0.803   0.810   0.852   0.877   0.888   0.895   0.906   0.940
  0.942   1.072   1.116   1.256   1.298   1.414   1.478   1.675
  1.718   1.820   1.857   1.872   1.915   2.019   2.026   2.043
  2.051   2.084   2.089   2.149   2.307   2.360   2.375   2.499
  2.575   2.591   2.691   2.694   2.804   2.851   2.888   2.929
  3.159   3.205   3.383   3.400   3.422   3.461   3.964   4.173
  4.472   4.533
 
 Beta MOs
 -- Occupied --
-88.853 -10.262 -10.198 -10.198  -7.917  -5.880  -5.880  -5.871
 -0.837  -0.710  -0.709  -0.525  -0.453  -0.443  -0.442  -0.403
 -0.374  -0.358  -0.289  -0.216
 -- Virtual --
 -0.066   0.082   0.104   0.146   0.151   0.157   0.170   0.173
  0.221   0.230   0.315   0.366   0.434   0.448   0.502   0.504
  0.550   0.584   0.599   0.662   0.695   0.699   0.742   0.769
  0.803   0.810   0.852   0.877   0.888   0.895   0.906   0.940
  0.942   1.072   1.116   1.256   1.298   1.414   1.478   1.675
  1.718   1.820   1.857   1.872   1.915   2.019   2.026   2.043
  2.051   2.084   2.089   2.149   2.307   2.360   2.375   2.499
  2.575   2.591   2.691   2.694   2.804   2.851   2.888   2.929
  3.159   3.205   3.383   3.400   3.422   3.461   3.964   4.173
  4.472   4.533
 --------------------------------------------------------------
 
          Ground-State Mulliken Net Atomic Charges

     Atom                 Charge (a.u.)    Spin (a.u.)
  --------------------------------------------------------
      1 S                    -0.129005       0.000000
      2 C                    -0.004440      -0.000000
      3 C                    -0.335095       0.000000
      4 C                    -0.335096       0.000000
      5 H                     0.129617      -0.000000
      6 H                     0.129408       0.000000
      7 H                     0.142793      -0.000000
      8 H                     0.142792       0.000000
      9 H                     0.129571      -0.000000
     10 H                     0.129454      -0.000000
  --------------------------------------------------------
  Sum of atomic charges =    -0.000000
  Sum of spin   charges =    -0.000000

 -----------------------------------------------------------------
                    Cartesian Multipole Moments
 -----------------------------------------------------------------
    Charge (ESU x 10^10)
                -0.0000
    Dipole Moment (Debye)
         X       2.9164      Y       0.0003      Z       0.0029
       Tot       2.9164
    Quadrupole Moments (Debye-Ang)
        XX     -33.0854     XY      -0.0002     YY     -32.0897
        XZ       0.0005     YZ       0.0005     ZZ     -32.0386
    Octopole Moments (Debye-Ang^2)
       XXX       2.8659    XXY       0.0008    XYY       3.0432
       YYY       0.0044    XXZ       0.0093    XYZ       0.0015
       YYZ       0.0114    XZZ       1.4200    YZZ       0.0013
       ZZZ       0.0494
    Hexadecapole Moments (Debye-Ang^3)
      XXXX    -300.7734   XXXY      -0.0034   XXYY     -89.7166
      XYYY      -0.0074   YYYY    -201.0974   XXXZ      -0.0917
      XXYZ       0.0014   XYYZ      -0.0127   YYYZ      -0.0043
      XXZZ     -54.9025   XYZZ      -0.0013   YYZZ     -43.4023
      XZZZ      -0.0417   YZZZ       0.0046   ZZZZ     -49.0200
 -----------------------------------------------------------------
 Calculating analytic gradient of the SCF energy
 Gradient of SCF Energy
            1           2           3           4           5           6
    1   0.0311192  -0.0311005  -0.0000963  -0.0000961   0.0000400   0.0000476
    2   0.0000034  -0.0000039  -0.0000292   0.0000300   0.0000151   0.0000104
    3   0.0000226  -0.0000125  -0.0000081  -0.0000077  -0.0000089   0.0000157
            7           8           9          10
    1  -0.0000008  -0.0000008   0.0000405   0.0000472
    2   0.0000045  -0.0000046  -0.0000147  -0.0000109
    3  -0.0000037  -0.0000028  -0.0000095   0.0000149
 Max gradient component =       3.112E-02
 RMS gradient           =       8.033E-03
 Gradient time:  CPU 9.51 s  wall 0.84 s
 Geometry Optimization Parameters
   NAtoms,    NIC,     NZ,  NCons,   NDum,   NFix, NCnnct, MaxDiis
       10      56       0       1       0       0       0       0


** CONSTRAINED OPTIMIZATION IN DELOCALIZED INTERNAL COORDINATES **
   Searching for a Minimum

   Optimization Cycle:   1

                       Coordinates (Angstroms)
     ATOM                X               Y               Z
      1  S        -1.3534060000   -0.0001790000   -0.0010170000
      2  C         0.2465940000   -0.0000110000   -0.0005390000
      3  C         1.0667510000    1.2682540000    0.0001380000
      4  C         1.0670220000   -1.2681000000    0.0001470000
      5  H         1.7218890000    1.2932640000    0.8809040000
      6  H         1.7283400000    1.2907910000   -0.8758120000
      7  H         0.4356480000    2.1567250000   -0.0031910000
      8  H         0.4361060000   -2.1567090000   -0.0018150000
      9  H         1.7233260000   -1.2923580000    0.8800600000
     10  H         1.7274600000   -1.2911080000   -0.8766650000
   Point Group: c1    Number of degrees of freedom:    24


   Energy is   -516.117683176

              Constraints and their Current Values
                                        Value     Constraint
   Distance(Angs):        1   2             1.600000     1.700000

 Attempting to Generate Delocalized Internal Coordinates

   Using Lagrange Multiplier Algorithm


 25 Hessian modes will be used to form the next step
  Hessian Eigenvalues:
    -0.776182    0.045000    0.045000    0.045000    0.093000    0.093000
     0.095642    0.095642    0.160000    0.160000    0.160000    0.160000
     0.160000    0.160000    0.250000    0.250000    0.313154    0.313155
     0.339055    0.339060    0.339092    0.339097    0.348347    0.348348
     1.288358

 Minimum Search - Taking P-RFO Step
 Searching for Lamda that Maximizes Along the Constraint modes Only
 Value Taken    Lamda =   0.02125818
 Searching for Lamda that Minimizes Along All other modes
 Value Taken    Lamda =  -0.01513395
 Step Taken.  Stepsize is  0.185232

                             Maximum     Tolerance    Cnvgd?
         Gradient            0.188972       0.000300      NO
         Displacement        0.185231       0.001200      NO
         Energy change     *********       0.000001      NO


 New Cartesian Coordinates Obtained by Inverse Iteration

 Displacement from previous Coordinates is:  0.175743
 ----------------------------------------------------------------
             Standard Nuclear Orientation (Angstroms)
    I     Atom           X                Y                Z
 ----------------------------------------------------------------
    1      S      -1.4416310017    -0.0001889586    -0.0011386786
    2      C       0.2563888436    -0.0000096042    -0.0005495959
    3      C       1.0766251994     1.2682126012     0.0001547712
    4      C       1.0768956388    -1.2680568351     0.0001650511
    5      H       1.7316313264     1.2930315413     0.8809921703
    6      H       1.7380150385     1.2906149500    -0.8759186001
    7      H       0.4455723481     2.1567120253    -0.0031290873
    8      H       0.4460301657    -2.1566943074    -0.0017627634
    9      H       1.7330571486    -1.2921266146     0.8801579605
   10      H       1.7371452926    -1.2909257979    -0.8767612279
 ----------------------------------------------------------------
 Nuclear Repulsion Energy =   149.9992508645 hartrees
 There are       20 alpha and       20 beta electrons

                       Distance Matrix (Angstroms)
             S (  1)   C (  2)   C (  3)   C (  4)   H (  5)   H (  6)
   C (  2)  1.698020
   C (  3)  2.819656  1.510356
   C (  4)  2.819657  1.510356  2.536269
   H (  5)  3.538385  2.150677  1.097963  2.786343
   H (  6)  3.541407  2.151092  1.097927  2.784134  1.756924
   H (  7)  2.865966  2.165005  1.089803  3.482474  1.783693  1.783898
   H (  8)  2.865969  2.165007  3.482476  1.089803  3.785847  3.783823
   H (  9)  3.538987  2.150758  2.785793  1.097959  2.585159  3.123201
   H ( 10)  3.540810  2.151012  2.784683  1.097931  3.125150  2.581541
             H (  7)   H (  8)   H (  9)
   H (  8)  4.313407
   H (  9)  3.785803  1.783732
   H ( 10)  3.783861  1.783860  1.756924
 
 Applying Cartesian multipole field
    Component          Value
    ---------          -----
     (2,0,0)        1.00000E-11
     (0,2,0)        2.00000E-11
     (0,0,2)       -3.00000E-10
 Nucleus-field energy     =     0.0000000014 hartrees
 Requested basis set is 6-31G(d,p)
 There are 35 shells and 94 basis functions
 A cutoff of  1.0D-14 yielded    618 shell pairs
 There are      4559 function pairs
 Smallest overlap matrix eigenvalue = 7.02E-03
 Guess from superposition of atomic densities
 Warning:  Energy on first SCF cycle will be non-variational
 SAD guess density has 40.000000 electrons

 -----------------------------------------------------------------------
  General SCF calculation program by
  Eric Jon Sundstrom, Paul Horn, Yuezhi Mao, Dmitri Zuev, Alec White,
  David Stuck, Shaama M.S., Shane Yost, Joonho Lee, David Small,
  Daniel Levine, Susi Lehtola, Hugh Burton, Evgeny Epifanovsky
 -----------------------------------------------------------------------
 Exchange:     0.2000 Hartree-Fock + 0.0800 Slater + 0.7200 B88
 Correlation:  0.1900 VWN1RPA + 0.8100 LYP
 Using SG-1 standard quadrature grid
 using 12 threads for integral computing
 -------------------------------------------------------
 OpenMP Integral computing Module                
 Release: version 1.0, May 2013, Q-Chem Inc. Pittsburgh 
 -------------------------------------------------------
 -------------------------------------------------------
 OpenMP BLAS3 based DFT computing Module                
 Release: version 1.0, May 2013, Q-Chem Inc. Pittsburgh 
 -------------------------------------------------------
 A unrestricted SCF calculation will be
 performed using DIIS
 SCF converges when DIIS error is below 1.0e-06
 Alpha HF Exchange    Energy =  -4.28048960786852
 Beta HF Exchange     Energy =  -4.28048960786852
 DFT Correlation      Energy =  -1.80569731325823
 DFT Exchange         Energy = -33.50963645828766
 One-Electron (alpha) Energy = -500.91556353601834
 One-Electron (beta)  Energy = -500.91556353601834
 Total Coulomb        Energy = 379.17227965914969
 ---------------------------------------
  Cycle       Energy         DIIS error
 ---------------------------------------
    1    -516.5359095343      3.21e-02  
 Alpha HF Exchange    Energy =  -4.28589461676131
 Beta HF Exchange     Energy =  -4.28589461676131
 DFT Correlation      Energy =  -1.83069928788743
 DFT Exchange         Energy = -34.01799581659134
 One-Electron (alpha) Energy = -504.10148447561028
 One-Electron (beta)  Energy = -504.10148447561050
 Total Coulomb        Energy = 386.57962963152011
    2    -516.0445727919      3.89e-03  
 Alpha HF Exchange    Energy =  -4.23851817657419
 Beta HF Exchange     Energy =  -4.23851817657419
 DFT Correlation      Energy =  -1.80939338222811
 DFT Exchange         Energy = -33.62623853227478
 One-Electron (alpha) Energy = -501.15325975918097
 One-Electron (beta)  Energy = -501.15325975918080
 Total Coulomb        Energy = 380.17624623608185
    3    -516.0436906841      4.00e-03  
 Alpha HF Exchange    Energy =  -4.25916305469731
 Beta HF Exchange     Energy =  -4.25916305469732
 DFT Correlation      Energy =  -1.81868430756020
 DFT Exchange         Energy = -33.79272257211656
 One-Electron (alpha) Energy = -502.44413452415677
 One-Electron (beta)  Energy = -502.44413452415699
 Total Coulomb        Energy = 382.90399425808528
    4    -516.1147569135      5.78e-04  
 Alpha HF Exchange    Energy =  -4.26042039558204
 Beta HF Exchange     Energy =  -4.26042039558205
 DFT Correlation      Energy =  -1.81978651212724
 DFT Exchange         Energy = -33.80633908889108
 One-Electron (alpha) Energy = -502.57974862478773
 One-Electron (beta)  Energy = -502.57974862478795
 Total Coulomb        Energy = 383.19152076972216
    5    -516.1156920062      3.58e-04  
 Alpha HF Exchange    Energy =  -4.26052700233702
 Beta HF Exchange     Energy =  -4.26052700233702
 DFT Correlation      Energy =  -1.81953555542902
 DFT Exchange         Energy = -33.80590289355297
 One-Electron (alpha) Energy = -502.58398559141659
 One-Electron (beta)  Energy = -502.58398559141665
 Total Coulomb        Energy = 383.19887189571631
    6    -516.1163408749      6.92e-05  
 Alpha HF Exchange    Energy =  -4.26027240785709
 Beta HF Exchange     Energy =  -4.26027240785709
 DFT Correlation      Energy =  -1.81946461091481
 DFT Exchange         Energy = -33.80390290020459
 One-Electron (alpha) Energy = -502.55626039574258
 One-Electron (beta)  Energy = -502.55626039574253
 Total Coulomb        Energy = 383.14081297394495
    7    -516.1163692785      8.43e-06  
 Alpha HF Exchange    Energy =  -4.26030381256852
 Beta HF Exchange     Energy =  -4.26030381256852
 DFT Correlation      Energy =  -1.81947680773051
 DFT Exchange         Energy = -33.80414373063935
 One-Electron (alpha) Energy = -502.56002712569511
 One-Electron (beta)  Energy = -502.56002712569511
 Total Coulomb        Energy = 383.14866190132670
    8    -516.1163696477      8.61e-07  Convergence criterion met
 ---------------------------------------
 SCF time:   CPU 16.49s  wall 2.00s 
<S^2> =          0.000000000
 Alpha HF Exchange    Energy =  -4.26030381256852
 Beta HF Exchange     Energy =  -4.26030381256852
 DFT Correlation      Energy =  -1.81947680773051
 DFT Exchange         Energy = -33.80414373063935
 One-Electron (alpha) Energy = -502.56002712569511
 One-Electron (beta)  Energy = -502.56002712569511
 Total Coulomb        Energy = 383.14866190132670
 Nuclear repulsion Energy = 149.99925086583664
 SCF   energy in the final basis set =     -516.1163696477
 Total energy in the final basis set =     -516.1163696477
 
 --------------------------------------------------------------
 
                    Orbital Energies (a.u.)
 --------------------------------------------------------------
 
 Alpha MOs
 -- Occupied --
-88.858 -10.274 -10.203 -10.203  -7.918  -5.882  -5.881  -5.873
 -0.826  -0.713  -0.697  -0.531  -0.455  -0.447  -0.441  -0.407
 -0.376  -0.352  -0.276  -0.217
 -- Virtual --
 -0.077   0.078   0.085   0.143   0.149   0.154   0.168   0.174
  0.219   0.233   0.313   0.374   0.416   0.427   0.498   0.499
  0.549   0.575   0.598   0.647   0.687   0.708   0.737   0.776
  0.807   0.813   0.849   0.873   0.891   0.892   0.903   0.936
  0.940   1.050   1.052   1.235   1.294   1.411   1.447   1.667
  1.703   1.817   1.851   1.852   1.893   2.013   2.016   2.023
  2.047   2.080   2.085   2.129   2.304   2.340   2.371   2.496
  2.569   2.569   2.687   2.689   2.801   2.845   2.884   2.916
  3.155   3.201   3.379   3.397   3.418   3.455   3.937   4.158
  4.467   4.520
 
 Beta MOs
 -- Occupied --
-88.858 -10.274 -10.203 -10.203  -7.918  -5.882  -5.881  -5.873
 -0.826  -0.713  -0.697  -0.531  -0.455  -0.447  -0.441  -0.407
 -0.376  -0.352  -0.276  -0.217
 -- Virtual --
 -0.077   0.078   0.085   0.143   0.149   0.154   0.168   0.174
  0.219   0.233   0.313   0.374   0.416   0.427   0.498   0.499
  0.549   0.575   0.598   0.647   0.687   0.708   0.737   0.776
  0.807   0.813   0.849   0.873   0.891   0.892   0.903   0.936
  0.940   1.050   1.052   1.235   1.294   1.411   1.447   1.667
  1.703   1.817   1.851   1.852   1.893   2.013   2.016   2.023
  2.047   2.080   2.085   2.129   2.304   2.340   2.371   2.496
  2.569   2.569   2.687   2.689   2.801   2.845   2.884   2.916
  3.155   3.201   3.379   3.397   3.418   3.455   3.937   4.158
  4.467   4.520
 --------------------------------------------------------------
 
          Ground-State Mulliken Net Atomic Charges

     Atom                 Charge (a.u.)    Spin (a.u.)
  --------------------------------------------------------
      1 S                    -0.137395      -0.000000
      2 C                    -0.018715      -0.000000
      3 C                    -0.335949       0.000000
      4 C                    -0.335949       0.000000
      5 H                     0.133260      -0.000000
      6 H                     0.133048      -0.000000
      7 H                     0.147696      -0.000000
      8 H                     0.147696      -0.000000
      9 H                     0.133213      -0.000000
     10 H                     0.133095       0.000000
  --------------------------------------------------------
  Sum of atomic charges =     0.000000
  Sum of spin   charges =    -0.000000

 -----------------------------------------------------------------
                    Cartesian Multipole Moments
 -----------------------------------------------------------------
    Charge (ESU x 10^10)
                 0.0000
    Dipole Moment (Debye)
         X       3.2615      Y       0.0003      Z       0.0032
       Tot       3.2615
    Quadrupole Moments (Debye-Ang)
        XX     -33.1855     XY      -0.0002     YY     -32.0113
        XZ       0.0003     YZ       0.0006     ZZ     -32.3033
    Octopole Moments (Debye-Ang^2)
       XXX       6.7342    XXY       0.0009    XYY       4.6761
       YYY       0.0050    XXZ       0.0110    XYZ       0.0015
       YYZ       0.0133    XZZ       2.8979    YZZ       0.0015
       ZZZ       0.0549
    Hexadecapole Moments (Debye-Ang^3)
      XXXX    -320.8209   XXXY      -0.0046   XXYY     -93.2561
      XYYY      -0.0089   YYYY    -199.8917   XXXZ      -0.1030
      XXYZ       0.0015   XYYZ      -0.0169   YYYZ      -0.0043
      XXZZ     -58.7073   XYZZ      -0.0017   YYZZ     -43.3723
      XZZZ      -0.0531   YZZZ       0.0047   ZZZZ     -49.7154
 -----------------------------------------------------------------
 Calculating analytic gradient of the SCF energy
 Gradient of SCF Energy
            1           2           3           4           5           6
    1  -0.0390341   0.0276482   0.0055147   0.0055150   0.0001504   0.0001579
    2  -0.0000045   0.0000031   0.0008275  -0.0008259   0.0004038   0.0004035
    3  -0.0000032   0.0000059   0.0000002  -0.0000017  -0.0001976   0.0002018
            7           8           9          10
    1  -0.0001305  -0.0001303   0.0001512   0.0001574
    2  -0.0001202   0.0001201  -0.0004042  -0.0004030
    3  -0.0000057  -0.0000039  -0.0001975   0.0002018
 Max gradient component =       3.903E-02
 RMS gradient           =       8.853E-03
 Gradient time:  CPU 7.32 s  wall 0.61 s
 Geometry Optimization Parameters
   NAtoms,    NIC,     NZ,  NCons,   NDum,   NFix, NCnnct, MaxDiis
       10      56       0       1       0       0       0       0

 Cartesian Hessian Update
 Hessian Updated using BFGS Update


** CONSTRAINED OPTIMIZATION IN DELOCALIZED INTERNAL COORDINATES **
   Searching for a Minimum

   Optimization Cycle:   2

                       Coordinates (Angstroms)
     ATOM                X               Y               Z
      1  S        -1.4416310017   -0.0001889586   -0.0011386786
      2  C         0.2563888436   -0.0000096042   -0.0005495959
      3  C         1.0766251994    1.2682126012    0.0001547712
      4  C         1.0768956388   -1.2680568351    0.0001650511
      5  H         1.7316313264    1.2930315413    0.8809921703
      6  H         1.7380150385    1.2906149500   -0.8759186001
      7  H         0.4455723481    2.1567120253   -0.0031290873
      8  H         0.4460301657   -2.1566943074   -0.0017627634
      9  H         1.7330571486   -1.2921266146    0.8801579605
     10  H         1.7371452926   -1.2909257979   -0.8767612279
   Point Group: c1    Number of degrees of freedom:    24


   Energy is   -516.116369648

              Constraints and their Current Values
                                        Value     Constraint
   Distance(Angs):        1   2             1.698020     1.700000
 Hessian Updated using BFGS Update

   Using Lagrange Multiplier Algorithm


 23 Hessian modes will be used to form the next step
  Hessian Eigenvalues:
    -0.829559    0.045000    0.045000    0.045000    0.093000    0.093000
     0.095642    0.095656    0.160000    0.160000    0.160000    0.160167
     0.250000    0.254453    0.313154    0.315941    0.339055    0.339060
     0.339092    0.339098    0.348347    0.348348    1.209119

 Minimum Search - Taking P-RFO Step
 Searching for Lamda that Maximizes Along the Constraint modes Only
 Value Taken    Lamda =   0.00019413
 Searching for Lamda that Minimizes Along All other modes
 Value Taken    Lamda =  -0.00077419
 Step Taken.  Stepsize is  0.039246

                             Maximum     Tolerance    Cnvgd?
         Gradient            0.023877       0.000300      NO
         Displacement        0.029121       0.001200      NO
         Energy change      0.001314       0.000001      NO


 New Cartesian Coordinates Obtained by Inverse Iteration

 Displacement from previous Coordinates is:  0.065877
 ----------------------------------------------------------------
             Standard Nuclear Orientation (Angstroms)
    I     Atom           X                Y                Z
 ----------------------------------------------------------------
    1      S      -1.4248482175    -0.0001849450    -0.0012278477
    2      C       0.2751475910    -0.0000079234    -0.0005587451
    3      C       1.0748612703     1.2726684604     0.0001645973
    4      C       1.0751329914    -1.2725139527     0.0001780537
    5      H       1.7287655747     1.3014259580     0.8818137573
    6      H       1.7350854105     1.2991240694    -0.8767850837
    7      H       0.4353573607     2.1551463317    -0.0030522560
    8      H       0.4358158964    -2.1551318889    -0.0017004746
    9      H       1.7301859099    -1.3005339557     0.8809922989
   10      H       1.7342262126    -1.2994231537    -0.8776143000
 ----------------------------------------------------------------
 Nuclear Repulsion Energy =   150.3267413521 hartrees
 There are       20 alpha and       20 beta electrons

                       Distance Matrix (Angstroms)
             S (  1)   C (  2)   C (  3)   C (  4)   H (  5)   H (  6)
   C (  2)  1.699996
   C (  3)  2.805121  1.503079
   C (  4)  2.805126  1.503080  2.545182
   H (  5)  3.524093  2.141335  1.098054  2.798157
   H (  6)  3.527036  2.141713  1.098015  2.796055  1.758612
   H (  7)  2.847072  2.161102  1.089836  3.486858  1.784582  1.784790
   H (  8)  2.847081  2.161105  3.486861  1.089837  3.794747  3.792856
   H (  9)  3.524693  2.141410  2.797620  1.098050  2.601960  3.138157
   H ( 10)  3.526446  2.141639  2.796590  1.098020  3.140069  2.598547
             H (  7)   H (  8)   H (  9)
   H (  8)  4.310278
   H (  9)  3.794712  1.784623
   H ( 10)  3.792884  1.784750  1.758612
 
 Applying Cartesian multipole field
    Component          Value
    ---------          -----
     (2,0,0)        1.00000E-11
     (0,2,0)        2.00000E-11
     (0,0,2)       -3.00000E-10
 Nucleus-field energy     =     0.0000000013 hartrees
 Requested basis set is 6-31G(d,p)
 There are 35 shells and 94 basis functions
 A cutoff of  1.0D-14 yielded    618 shell pairs
 There are      4559 function pairs
 Smallest overlap matrix eigenvalue = 6.91E-03
 Guess from superposition of atomic densities
 Warning:  Energy on first SCF cycle will be non-variational
 SAD guess density has 40.000000 electrons

 -----------------------------------------------------------------------
  General SCF calculation program by
  Eric Jon Sundstrom, Paul Horn, Yuezhi Mao, Dmitri Zuev, Alec White,
  David Stuck, Shaama M.S., Shane Yost, Joonho Lee, David Small,
  Daniel Levine, Susi Lehtola, Hugh Burton, Evgeny Epifanovsky
 -----------------------------------------------------------------------
 Exchange:     0.2000 Hartree-Fock + 0.0800 Slater + 0.7200 B88
 Correlation:  0.1900 VWN1RPA + 0.8100 LYP
 Using SG-1 standard quadrature grid
 using 12 threads for integral computing
 -------------------------------------------------------
 OpenMP Integral computing Module                
 Release: version 1.0, May 2013, Q-Chem Inc. Pittsburgh 
 -------------------------------------------------------
 -------------------------------------------------------
 OpenMP BLAS3 based DFT computing Module                
 Release: version 1.0, May 2013, Q-Chem Inc. Pittsburgh 
 -------------------------------------------------------
 A unrestricted SCF calculation will be
 performed using DIIS
 SCF converges when DIIS error is below 1.0e-06
 Alpha HF Exchange    Energy =  -4.28193598975321
 Beta HF Exchange     Energy =  -4.28193598975321
 DFT Correlation      Energy =  -1.80602910016911
 DFT Exchange         Energy = -33.51242731085706
 One-Electron (alpha) Energy = -501.23792767866831
 One-Electron (beta)  Energy = -501.23792767866831
 Total Coulomb        Energy = 379.48224312517806
 ---------------------------------------
  Cycle       Energy         DIIS error
 ---------------------------------------
    1    -516.5491992692      3.23e-02  
 Alpha HF Exchange    Energy =  -4.28657562126690
 Beta HF Exchange     Energy =  -4.28657562126690
 DFT Correlation      Energy =  -1.83112774811915
 DFT Exchange         Energy = -34.02300750249654
 One-Electron (alpha) Energy = -504.45050830589815
 One-Electron (beta)  Energy = -504.45050830589827
 Total Coulomb        Energy = 386.95706875361475
    2    -516.0444929979      3.89e-03  
 Alpha HF Exchange    Energy =  -4.23886755291668
 Beta HF Exchange     Energy =  -4.23886755291668
 DFT Correlation      Energy =  -1.80970152157235
 DFT Exchange         Energy = -33.62863430108521
 One-Electron (alpha) Energy = -501.45846908112452
 One-Electron (beta)  Energy = -501.45846908112401
 Total Coulomb        Energy = 380.46200573192897
    3    -516.0442620054      3.98e-03  
 Alpha HF Exchange    Energy =  -4.25973791091638
 Beta HF Exchange     Energy =  -4.25973791091638
 DFT Correlation      Energy =  -1.81906127847129
 DFT Exchange         Energy = -33.79689994420370
 One-Electron (alpha) Energy = -502.77847965537046
 One-Electron (beta)  Energy = -502.77847965537063
 Total Coulomb        Energy = 383.25083181198232
    4    -516.1148231898      5.83e-04  
 Alpha HF Exchange    Energy =  -4.26093860477014
 Beta HF Exchange     Energy =  -4.26093860477015
 DFT Correlation      Energy =  -1.82014853483473
 DFT Exchange         Energy = -33.81007625360856
 One-Electron (alpha) Energy = -502.90793213255074
 One-Electron (beta)  Energy = -502.90793213255091
 Total Coulomb        Energy = 383.52543472912271
    5    -516.1157901805      3.57e-04  
 Alpha HF Exchange    Energy =  -4.26104524990017
 Beta HF Exchange     Energy =  -4.26104524990018
 DFT Correlation      Energy =  -1.81990075582406
 DFT Exchange         Energy = -33.80965965394326
 One-Electron (alpha) Energy = -502.91264967030401
 One-Electron (beta)  Energy = -502.91264967030423
 Total Coulomb        Energy = 383.53376922444778
    6    -516.1164396723      6.62e-05  
 Alpha HF Exchange    Energy =  -4.26079914387173
 Beta HF Exchange     Energy =  -4.26079914387172
 DFT Correlation      Energy =  -1.81983110751561
 DFT Exchange         Energy = -33.80771866324956
 One-Electron (alpha) Energy = -502.88567174836004
 One-Electron (beta)  Energy = -502.88567174835970
 Total Coulomb        Energy = 383.47728453807781
    7    -516.1164656637      8.33e-06  
 Alpha HF Exchange    Energy =  -4.26083004507780
 Beta HF Exchange     Energy =  -4.26083004507780
 DFT Correlation      Energy =  -1.81984319335932
 DFT Exchange         Energy = -33.80795602372790
 One-Electron (alpha) Energy = -502.88941149141237
 One-Electron (beta)  Energy = -502.88941149141249
 Total Coulomb        Energy = 383.48507491223899
    8    -516.1164660244      8.59e-07  Convergence criterion met
 ---------------------------------------
 SCF time:   CPU 16.58s  wall 1.00s 
<S^2> =         -0.000000000
 Alpha HF Exchange    Energy =  -4.26083004507780
 Beta HF Exchange     Energy =  -4.26083004507780
 DFT Correlation      Energy =  -1.81984319335932
 DFT Exchange         Energy = -33.80795602372790
 One-Electron (alpha) Energy = -502.88941149141237
 One-Electron (beta)  Energy = -502.88941149141249
 Total Coulomb        Energy = 383.48507491223899
 Nuclear repulsion Energy = 150.32674135344229
 SCF   energy in the final basis set =     -516.1164660244
 Total energy in the final basis set =     -516.1164660244
 
 --------------------------------------------------------------
 
                    Orbital Energies (a.u.)
 --------------------------------------------------------------
 
 Alpha MOs
 -- Occupied --
-88.856 -10.273 -10.203 -10.203  -7.917  -5.881  -5.880  -5.872
 -0.828  -0.715  -0.696  -0.531  -0.456  -0.447  -0.442  -0.408
 -0.379  -0.350  -0.275  -0.216
 -- Virtual --
 -0.077   0.078   0.086   0.143   0.149   0.154   0.167   0.174
  0.221   0.236   0.315   0.375   0.418   0.430   0.494   0.499
  0.549   0.576   0.595   0.648   0.690   0.711   0.735   0.774
  0.808   0.814   0.849   0.872   0.891   0.891   0.902   0.938
  0.939   1.050   1.057   1.238   1.290   1.405   1.451   1.670
  1.710   1.821   1.856   1.862   1.895   2.013   2.015   2.022
  2.047   2.080   2.083   2.131   2.296   2.341   2.368   2.503
  2.573   2.574   2.685   2.687   2.803   2.846   2.888   2.919
  3.157   3.201   3.379   3.396   3.417   3.454   3.939   4.160
  4.467   4.520
 
 Beta MOs
 -- Occupied --
-88.856 -10.273 -10.203 -10.203  -7.917  -5.881  -5.880  -5.872
 -0.828  -0.715  -0.696  -0.531  -0.456  -0.447  -0.442  -0.408
 -0.379  -0.350  -0.275  -0.216
 -- Virtual --
 -0.077   0.078   0.086   0.143   0.149   0.154   0.167   0.174
  0.221   0.236   0.315   0.375   0.418   0.430   0.494   0.499
  0.549   0.576   0.595   0.648   0.690   0.711   0.735   0.774
  0.808   0.814   0.849   0.872   0.891   0.891   0.902   0.938
  0.939   1.050   1.057   1.238   1.290   1.405   1.451   1.670
  1.710   1.821   1.856   1.862   1.895   2.013   2.015   2.022
  2.047   2.080   2.083   2.131   2.296   2.341   2.368   2.503
  2.573   2.574   2.685   2.687   2.803   2.846   2.888   2.919
  3.157   3.201   3.379   3.396   3.417   3.454   3.939   4.160
  4.467   4.520
 --------------------------------------------------------------
 
          Ground-State Mulliken Net Atomic Charges

     Atom                 Charge (a.u.)    Spin (a.u.)
  --------------------------------------------------------
      1 S                    -0.141239       0.000000
      2 C                    -0.019208       0.000000
      3 C                    -0.334997      -0.000000
      4 C                    -0.334997      -0.000000
      5 H                     0.133105       0.000000
      6 H                     0.132894      -0.000000
      7 H                     0.149221      -0.000000
      8 H                     0.149221      -0.000000
      9 H                     0.133057       0.000000
     10 H                     0.132942       0.000000
  --------------------------------------------------------
  Sum of atomic charges =    -0.000000
  Sum of spin   charges =     0.000000

 -----------------------------------------------------------------
                    Cartesian Multipole Moments
 -----------------------------------------------------------------
    Charge (ESU x 10^10)
                -0.0000
    Dipole Moment (Debye)
         X       3.2869      Y       0.0003      Z       0.0033
       Tot       3.2869
    Quadrupole Moments (Debye-Ang)
        XX     -33.2198     XY      -0.0003     YY     -31.9328
        XZ       0.0000     YZ       0.0006     ZZ     -32.2921
    Octopole Moments (Debye-Ang^2)
       XXX       5.9165    XXY       0.0009    XYY       4.3990
       YYY       0.0048    XXZ       0.0121    XYZ       0.0015
       YYZ       0.0146    XZZ       2.6769    YZZ       0.0014
       ZZZ       0.0580
    Hexadecapole Moments (Debye-Ang^3)
      XXXX    -317.4597   XXXY      -0.0042   XXYY     -92.7704
      XYYY      -0.0085   YYYY    -200.4820   XXXZ      -0.1075
      XXYZ       0.0015   XYYZ      -0.0190   YYYZ      -0.0041
      XXZZ     -58.1062   XYZZ      -0.0016   YYZZ     -43.4868
      XZZZ      -0.0581   YZZZ       0.0048   ZZZZ     -49.7403
 -----------------------------------------------------------------
 Calculating analytic gradient of the SCF energy
 Gradient of SCF Energy
            1           2           3           4           5           6
    1  -0.0380968   0.0359563   0.0018686   0.0018689  -0.0003621  -0.0003565
    2  -0.0000042   0.0000039   0.0003660  -0.0003656  -0.0001177  -0.0001227
    3  -0.0000044   0.0000119  -0.0000032  -0.0000048  -0.0000122   0.0000163
            7           8           9          10
    1  -0.0000801  -0.0000798  -0.0003616  -0.0003568
    2   0.0003171  -0.0003172   0.0001184   0.0001220
    3  -0.0000046  -0.0000031  -0.0000122   0.0000162
 Max gradient component =       3.810E-02
 RMS gradient           =       9.578E-03
 Gradient time:  CPU 7.43 s  wall 0.63 s
 Geometry Optimization Parameters
   NAtoms,    NIC,     NZ,  NCons,   NDum,   NFix, NCnnct, MaxDiis
       10      56       0       1       0       0       0       0

 Cartesian Hessian Update
 Hessian Updated using BFGS Update


** CONSTRAINED OPTIMIZATION IN DELOCALIZED INTERNAL COORDINATES **
   Searching for a Minimum

   Optimization Cycle:   3

                       Coordinates (Angstroms)
     ATOM                X               Y               Z
      1  S        -1.4248482175   -0.0001849450   -0.0012278477
      2  C         0.2751475910   -0.0000079234   -0.0005587451
      3  C         1.0748612703    1.2726684604    0.0001645973
      4  C         1.0751329914   -1.2725139527    0.0001780537
      5  H         1.7287655747    1.3014259580    0.8818137573
      6  H         1.7350854105    1.2991240694   -0.8767850837
      7  H         0.4353573607    2.1551463317   -0.0030522560
      8  H         0.4358158964   -2.1551318889   -0.0017004746
      9  H         1.7301859099   -1.3005339557    0.8809922989
     10  H         1.7342262126   -1.2994231537   -0.8776143000
   Point Group: c1    Number of degrees of freedom:    24


   Energy is   -516.116466024

              Constraints and their Current Values
                                        Value     Constraint
   Distance(Angs):        1   2             1.699996     1.700000
 Hessian Updated using BFGS Update

   Using Lagrange Multiplier Algorithm


 22 Hessian modes will be used to form the next step
  Hessian Eigenvalues:
    -0.829275    0.044999    0.045000    0.045000    0.093000    0.093000
     0.095288    0.095642    0.159919    0.160000    0.163014    0.209053
     0.250000    0.302339    0.313154    0.339057    0.339075    0.339095
     0.340495    0.348347    0.350472    1.210200

 Minimum Search - Taking P-RFO Step
 Searching for Lamda that Maximizes Along the Constraint modes Only
 Value Taken    Lamda =   0.00000005
 Searching for Lamda that Minimizes Along All other modes
 Value Taken    Lamda =  -0.00003672
 Step Taken.  Stepsize is  0.014301

                             Maximum     Tolerance    Cnvgd?
         Gradient            0.001479       0.000300      NO
         Displacement        0.009025       0.001200      NO
         Energy change     -0.000096       0.000001      NO


 New Cartesian Coordinates Obtained by Inverse Iteration

 Displacement from previous Coordinates is:  0.034339
 ----------------------------------------------------------------
             Standard Nuclear Orientation (Angstroms)
    I     Atom           X                Y                Z
 ----------------------------------------------------------------
    1      S      -1.4189336707    -0.0001837645    -0.0013490767
    2      C       0.2810661306    -0.0000075734    -0.0005735889
    3      C       1.0739485179     1.2743163882     0.0001778093
    4      C       1.0742205465    -1.2741623539     0.0001960420
    5      H       1.7292960790     1.3077679123     0.8811478551
    6      H       1.7355153600     1.3055952278    -0.8761672227
    7      H       0.4293916698     2.1523963459    -0.0029598813
    8      H       0.4298498251    -2.1523834940    -0.0016249068
    9      H       1.7307033424    -1.3068914496     0.8803426048
   10      H       1.7346721995    -1.3058782388    -0.8769796348
 ----------------------------------------------------------------
 Nuclear Repulsion Energy =   150.4394170776 hartrees
 There are       20 alpha and       20 beta electrons

                       Distance Matrix (Angstroms)
             S (  1)   C (  2)   C (  3)   C (  4)   H (  5)   H (  6)
   C (  2)  1.700000
   C (  3)  2.799788  1.500855
   C (  4)  2.799793  1.500855  2.548479
   H (  5)  3.521490  2.141280  1.098502  2.805631
   H (  6)  3.524332  2.141655  1.098467  2.803653  1.757327
   H (  7)  2.837236  2.157510  1.089260  3.486706  1.784599  1.784803
   H (  8)  2.837246  2.157512  3.486709  1.089261  3.800065  3.798316
   H (  9)  3.522084  2.141356  2.805112  1.098498  2.614660  3.148085
   H ( 10)  3.523748  2.141578  2.804169  1.098471  3.149950  2.611474
             H (  7)   H (  8)   H (  9)
   H (  8)  4.304780
   H (  9)  3.800040  1.784641
   H ( 10)  3.798333  1.784763  1.757327
 
 Applying Cartesian multipole field
    Component          Value
    ---------          -----
     (2,0,0)        1.00000E-11
     (0,2,0)        2.00000E-11
     (0,0,2)       -3.00000E-10
 Nucleus-field energy     =     0.0000000013 hartrees
 Requested basis set is 6-31G(d,p)
 There are 35 shells and 94 basis functions
 A cutoff of  1.0D-14 yielded    618 shell pairs
 There are      4559 function pairs
 Smallest overlap matrix eigenvalue = 6.87E-03
 Guess from superposition of atomic densities
 Warning:  Energy on first SCF cycle will be non-variational
 SAD guess density has 40.000000 electrons

 -----------------------------------------------------------------------
  General SCF calculation program by
  Eric Jon Sundstrom, Paul Horn, Yuezhi Mao, Dmitri Zuev, Alec White,
  David Stuck, Shaama M.S., Shane Yost, Joonho Lee, David Small,
  Daniel Levine, Susi Lehtola, Hugh Burton, Evgeny Epifanovsky
 -----------------------------------------------------------------------
 Exchange:     0.2000 Hartree-Fock + 0.0800 Slater + 0.7200 B88
 Correlation:  0.1900 VWN1RPA + 0.8100 LYP
 Using SG-1 standard quadrature grid
 using 12 threads for integral computing
 -------------------------------------------------------
 OpenMP Integral computing Module                
 Release: version 1.0, May 2013, Q-Chem Inc. Pittsburgh 
 -------------------------------------------------------
 -------------------------------------------------------
 OpenMP BLAS3 based DFT computing Module                
 Release: version 1.0, May 2013, Q-Chem Inc. Pittsburgh 
 -------------------------------------------------------
 A unrestricted SCF calculation will be
 performed using DIIS
 SCF converges when DIIS error is below 1.0e-06
 Alpha HF Exchange    Energy =  -4.28239815556850
 Beta HF Exchange     Energy =  -4.28239815556850
 DFT Correlation      Energy =  -1.80613042542031
 DFT Exchange         Energy = -33.51334155751832
 One-Electron (alpha) Energy = -501.34892189702725
 One-Electron (beta)  Energy = -501.34892189702725
 Total Coulomb        Energy = 379.58903922466533
 ---------------------------------------
  Cycle       Energy         DIIS error
 ---------------------------------------
    1    -516.5536557845      3.23e-02  
 Alpha HF Exchange    Energy =  -4.28678373581438
 Beta HF Exchange     Energy =  -4.28678373581439
 DFT Correlation      Energy =  -1.83126886288402
 DFT Exchange         Energy = -34.02457999151358
 One-Electron (alpha) Energy = -504.56971914755536
 One-Electron (beta)  Energy = -504.56971914755582
 Total Coulomb        Energy = 387.08496443160942
    2    -516.0444731106      3.89e-03  
 Alpha HF Exchange    Energy =  -4.23896964646609
 Beta HF Exchange     Energy =  -4.23896964646610
 DFT Correlation      Energy =  -1.80978541530218
 DFT Exchange         Energy = -33.62929144446300
 One-Electron (alpha) Energy = -501.56282457834340
 One-Electron (beta)  Energy = -501.56282457834357
 Total Coulomb        Energy = 380.55871690698604
    3    -516.0445313235      3.97e-03  
 Alpha HF Exchange    Energy =  -4.25993124085717
 Beta HF Exchange     Energy =  -4.25993124085718
 DFT Correlation      Energy =  -1.81919977805779
 DFT Exchange         Energy = -33.79839198348548
 One-Electron (alpha) Energy = -502.89458659615258
 One-Electron (beta)  Energy = -502.89458659615286
 Total Coulomb        Energy = 383.37229702835339
    4    -516.1149133283      5.70e-04  
 Alpha HF Exchange    Energy =  -4.26110969264727
 Beta HF Exchange     Energy =  -4.26110969264727
 DFT Correlation      Energy =  -1.82026860523462
 DFT Exchange         Energy = -33.81133466301047
 One-Electron (alpha) Energy = -503.02157336168676
 One-Electron (beta)  Energy = -503.02157336168671
 Total Coulomb        Energy = 383.64174126468095
    5    -516.1158110333      3.57e-04  
 Alpha HF Exchange    Energy =  -4.26120622065331
 Beta HF Exchange     Energy =  -4.26120622065331
 DFT Correlation      Energy =  -1.82001759693900
 DFT Exchange         Energy = -33.81083697078066
 One-Electron (alpha) Energy = -503.02535857925477
 One-Electron (beta)  Energy = -503.02535857925471
 Total Coulomb        Energy = 383.64810760303726
    6    -516.1164594856      6.55e-05  
 Alpha HF Exchange    Energy =  -4.26096409037375
 Beta HF Exchange     Energy =  -4.26096409037375
 DFT Correlation      Energy =  -1.81994937304112
 DFT Exchange         Energy = -33.80892814685832
 One-Electron (alpha) Energy = -502.99874962295530
 One-Electron (beta)  Energy = -502.99874962295542
 Total Coulomb        Energy = 383.59240298064594
    7    -516.1164848870      8.35e-06  
 Alpha HF Exchange    Energy =  -4.26099506271005
 Beta HF Exchange     Energy =  -4.26099506271005
 DFT Correlation      Energy =  -1.81996149452724
 DFT Exchange         Energy = -33.80916623506774
 One-Electron (alpha) Energy = -503.00251118460483
 One-Electron (beta)  Energy = -503.00251118460454
 Total Coulomb        Energy = 383.60023789419097
    8    -516.1164852511      8.54e-07  Convergence criterion met
 ---------------------------------------
 SCF time:   CPU 16.51s  wall 2.00s 
<S^2> =         -0.000000000
 Alpha HF Exchange    Energy =  -4.26099506271005
 Beta HF Exchange     Energy =  -4.26099506271005
 DFT Correlation      Energy =  -1.81996149452724
 DFT Exchange         Energy = -33.80916623506774
 One-Electron (alpha) Energy = -503.00251118460483
 One-Electron (beta)  Energy = -503.00251118460454
 Total Coulomb        Energy = 383.60023789419097
 Nuclear repulsion Energy = 150.43941707893046
 SCF   energy in the final basis set =     -516.1164852511
 Total energy in the final basis set =     -516.1164852511
 
 --------------------------------------------------------------
 
                    Orbital Energies (a.u.)
 --------------------------------------------------------------
 
 Alpha MOs
 -- Occupied --
-88.856 -10.273 -10.203 -10.203  -7.916  -5.880  -5.879  -5.871
 -0.829  -0.715  -0.696  -0.532  -0.456  -0.447  -0.443  -0.407
 -0.379  -0.350  -0.275  -0.216
 -- Virtual --
 -0.077   0.078   0.086   0.142   0.149   0.155   0.166   0.174
  0.221   0.237   0.316   0.375   0.418   0.431   0.493   0.498
  0.550   0.576   0.594   0.649   0.692   0.711   0.734   0.774
  0.808   0.815   0.849   0.872   0.891   0.892   0.901   0.938
  0.938   1.050   1.058   1.240   1.290   1.399   1.452   1.674
  1.712   1.820   1.858   1.865   1.894   2.014   2.015   2.022
  2.048   2.081   2.084   2.130   2.295   2.341   2.368   2.504
  2.573   2.574   2.685   2.688   2.803   2.846   2.889   2.922
  3.156   3.200   3.378   3.397   3.416   3.454   3.940   4.160
  4.467   4.521
 
 Beta MOs
 -- Occupied --
-88.856 -10.273 -10.203 -10.203  -7.916  -5.880  -5.879  -5.871
 -0.829  -0.715  -0.696  -0.532  -0.456  -0.447  -0.443  -0.407
 -0.379  -0.350  -0.275  -0.216
 -- Virtual --
 -0.077   0.078   0.086   0.142   0.149   0.155   0.166   0.174
  0.221   0.237   0.316   0.375   0.418   0.431   0.493   0.498
  0.550   0.576   0.594   0.649   0.692   0.711   0.734   0.774
  0.808   0.815   0.849   0.872   0.891   0.892   0.901   0.938
  0.938   1.050   1.058   1.240   1.290   1.399   1.452   1.674
  1.712   1.820   1.858   1.865   1.894   2.014   2.015   2.022
  2.048   2.081   2.084   2.130   2.295   2.341   2.368   2.504
  2.573   2.574   2.685   2.688   2.803   2.846   2.889   2.922
  3.156   3.200   3.378   3.397   3.416   3.454   3.940   4.160
  4.467   4.521
 --------------------------------------------------------------
 
          Ground-State Mulliken Net Atomic Charges

     Atom                 Charge (a.u.)    Spin (a.u.)
  --------------------------------------------------------
      1 S                    -0.141994       0.000000
      2 C                    -0.019053      -0.000000
      3 C                    -0.334972      -0.000000
      4 C                    -0.334972       0.000000
      5 H                     0.133011       0.000000
      6 H                     0.132807       0.000000
      7 H                     0.149677      -0.000000
      8 H                     0.149677      -0.000000
      9 H                     0.132964       0.000000
     10 H                     0.132855      -0.000000
  --------------------------------------------------------
  Sum of atomic charges =    -0.000000
  Sum of spin   charges =     0.000000

 -----------------------------------------------------------------
                    Cartesian Multipole Moments
 -----------------------------------------------------------------
    Charge (ESU x 10^10)
                -0.0000
    Dipole Moment (Debye)
         X       3.2903      Y       0.0003      Z       0.0034
       Tot       3.2903
    Quadrupole Moments (Debye-Ang)
        XX     -33.2028     XY      -0.0003     YY     -31.9110
        XZ      -0.0002     YZ       0.0006     ZZ     -32.2990
    Octopole Moments (Debye-Ang^2)
       XXX       5.6858    XXY       0.0009    XYY       4.3241
       YYY       0.0047    XXZ       0.0138    XYZ       0.0015
       YYZ       0.0163    XZZ       2.5815    YZZ       0.0014
       ZZZ       0.0620
    Hexadecapole Moments (Debye-Ang^3)
      XXXX    -316.1022   XXXY      -0.0041   XXYY     -92.5069
      XYYY      -0.0083   YYYY    -200.9497   XXXZ      -0.1140
      XXYZ       0.0016   XYYZ      -0.0222   YYYZ      -0.0039
      XXZZ     -57.9029   XYZZ      -0.0015   YYZZ     -43.5383
      XZZZ      -0.0657   YZZZ       0.0049   ZZZZ     -49.7497
 -----------------------------------------------------------------
 Calculating analytic gradient of the SCF energy
 Gradient of SCF Energy
            1           2           3           4           5           6
    1  -0.0375068   0.0375258   0.0002163   0.0002165  -0.0001173  -0.0001104
    2  -0.0000040   0.0000039   0.0000138  -0.0000138  -0.0000267  -0.0000310
    3  -0.0000069   0.0000152  -0.0000054  -0.0000062   0.0000396  -0.0000350
            7           8           9          10
    1   0.0000015   0.0000017  -0.0001164  -0.0001110
    2  -0.0000186   0.0000186   0.0000274   0.0000305
    3  -0.0000034  -0.0000023   0.0000395  -0.0000351
 Max gradient component =       3.753E-02
 RMS gradient           =       9.687E-03
 Gradient time:  CPU 7.30 s  wall 0.61 s
 Geometry Optimization Parameters
   NAtoms,    NIC,     NZ,  NCons,   NDum,   NFix, NCnnct, MaxDiis
       10      56       0       1       0       0       0       0

 Cartesian Hessian Update
 Hessian Updated using BFGS Update


** CONSTRAINED OPTIMIZATION IN DELOCALIZED INTERNAL COORDINATES **
   Searching for a Minimum

   Optimization Cycle:   4

                       Coordinates (Angstroms)
     ATOM                X               Y               Z
      1  S        -1.4189336707   -0.0001837645   -0.0013490767
      2  C         0.2810661306   -0.0000075734   -0.0005735889
      3  C         1.0739485179    1.2743163882    0.0001778093
      4  C         1.0742205465   -1.2741623539    0.0001960420
      5  H         1.7292960790    1.3077679123    0.8811478551
      6  H         1.7355153600    1.3055952278   -0.8761672227
      7  H         0.4293916698    2.1523963459   -0.0029598813
      8  H         0.4298498251   -2.1523834940   -0.0016249068
      9  H         1.7307033424   -1.3068914496    0.8803426048
     10  H         1.7346721995   -1.3058782388   -0.8769796348
   Point Group: c1    Number of degrees of freedom:    24


   Energy is   -516.116485251

              Constraints and their Current Values
                                        Value     Constraint
   Distance(Angs):        1   2             1.700000     1.700000
 Hessian Updated using BFGS Update

 19 Hessian modes will be used to form the next step
  Hessian Eigenvalues:
     0.044980    0.045000    0.045000    0.092441    0.093000    0.093001
     0.095642    0.147004    0.160000    0.161267    0.218336    0.250000
     0.309232    0.313154    0.339057    0.339075    0.339095    0.340165
     0.350644

 Minimum Search - Taking Simple RFO Step
 Searching for Lamda that Minimizes Along All modes
 Value Taken    Lamda =   0.00000000
 Step Taken.  Stepsize is  0.002419

                             Maximum     Tolerance    Cnvgd?
         Gradient           0.000162      0.000300     YES
         Displacement       0.001353      0.001200      NO
         Energy change     -0.000019      0.000001      NO


 New Cartesian Coordinates Obtained by Inverse Iteration

 Displacement from previous Coordinates is:  0.003633
 ----------------------------------------------------------------
             Standard Nuclear Orientation (Angstroms)
    I     Atom           X                Y                Z
 ----------------------------------------------------------------
    1      S      -1.4188191807    -0.0001836842    -0.0014504716
    2      C       0.2811805776    -0.0000075915    -0.0005859038
    3      C       1.0736960510     1.2745770330     0.0001902240
    4      C       1.0739680780    -1.2744230278     0.0002118737
    5      H       1.7296229551     1.3084758620     0.8808009201
    6      H       1.7357472927     1.3063802663    -0.8758609877
    7      H       0.4289706415     2.1525560119    -0.0028838904
    8      H       0.4294289802    -2.1525432389    -0.0015630514
    9      H       1.7310142712    -1.3076068852     0.8800099871
   10      H       1.7349203334    -1.3066557456    -0.8766587001
 ----------------------------------------------------------------
 Nuclear Repulsion Energy =   150.4353738209 hartrees
 There are       20 alpha and       20 beta electrons

                       Distance Matrix (Angstroms)
             S (  1)   C (  2)   C (  3)   C (  4)   H (  5)   H (  6)
   C (  2)  1.700000
   C (  3)  2.799580  1.500882
   C (  4)  2.799585  1.500882  2.549000
   H (  5)  3.521881  2.141718  1.098574  2.806544
   H (  6)  3.524627  2.142083  1.098539  2.804639  1.756674
   H (  7)  2.837009  2.157632  1.089278  3.487150  1.784675  1.784872
   H (  8)  2.837018  2.157635  3.487153  1.089279  3.801016  3.799344
   H (  9)  3.522468  2.141794  2.806033  1.098570  2.616083  3.148974
   H ( 10)  3.524050  2.142007  2.805146  1.098544  3.150810  2.613036
             H (  7)   H (  8)   H (  9)
   H (  8)  4.305099
   H (  9)  3.800993  1.784716
   H ( 10)  3.799360  1.784832  1.756673
 
 Applying Cartesian multipole field
    Component          Value
    ---------          -----
     (2,0,0)        1.00000E-11
     (0,2,0)        2.00000E-11
     (0,0,2)       -3.00000E-10
 Nucleus-field energy     =     0.0000000013 hartrees
 Requested basis set is 6-31G(d,p)
 There are 35 shells and 94 basis functions
 A cutoff of  1.0D-14 yielded    618 shell pairs
 There are      4559 function pairs
 Smallest overlap matrix eigenvalue = 6.87E-03
 Guess from superposition of atomic densities
 Warning:  Energy on first SCF cycle will be non-variational
 SAD guess density has 40.000000 electrons

 -----------------------------------------------------------------------
  General SCF calculation program by
  Eric Jon Sundstrom, Paul Horn, Yuezhi Mao, Dmitri Zuev, Alec White,
  David Stuck, Shaama M.S., Shane Yost, Joonho Lee, David Small,
  Daniel Levine, Susi Lehtola, Hugh Burton, Evgeny Epifanovsky
 -----------------------------------------------------------------------
 Exchange:     0.2000 Hartree-Fock + 0.0800 Slater + 0.7200 B88
 Correlation:  0.1900 VWN1RPA + 0.8100 LYP
 Using SG-1 standard quadrature grid
 using 12 threads for integral computing
 -------------------------------------------------------
 OpenMP Integral computing Module                
 Release: version 1.0, May 2013, Q-Chem Inc. Pittsburgh 
 -------------------------------------------------------
 -------------------------------------------------------
 OpenMP BLAS3 based DFT computing Module                
 Release: version 1.0, May 2013, Q-Chem Inc. Pittsburgh 
 -------------------------------------------------------
 A unrestricted SCF calculation will be
 performed using DIIS
 SCF converges when DIIS error is below 1.0e-06
 Alpha HF Exchange    Energy =  -4.28236492289581
 Beta HF Exchange     Energy =  -4.28236492289581
 DFT Correlation      Energy =  -1.80612097233929
 DFT Exchange         Energy = -33.51327786154269
 One-Electron (alpha) Energy = -501.34506510369482
 One-Electron (beta)  Energy = -501.34506510369482
 Total Coulomb        Energy = 379.58546876839654
 ---------------------------------------
  Cycle       Energy         DIIS error
 ---------------------------------------
    1    -516.5534162965      3.23e-02  
 Alpha HF Exchange    Energy =  -4.28676166574192
 Beta HF Exchange     Energy =  -4.28676166574192
 DFT Correlation      Energy =  -1.83125813306355
 DFT Exchange         Energy = -34.02442366853050
 One-Electron (alpha) Energy = -504.56572447562758
 One-Electron (beta)  Energy = -504.56572447562780
 Total Coulomb        Energy = 387.08079326112829
    2    -516.0444870010      3.89e-03  
 Alpha HF Exchange    Energy =  -4.23895279476221
 Beta HF Exchange     Energy =  -4.23895279476221
 DFT Correlation      Energy =  -1.80977654433310
 DFT Exchange         Energy = -33.62918240126406
 One-Electron (alpha) Energy = -501.55866406058436
 One-Electron (beta)  Energy = -501.55866406058419
 Total Coulomb        Energy = 380.55429334232906
    3    -516.0445254918      3.97e-03  
 Alpha HF Exchange    Energy =  -4.25991249189814
 Beta HF Exchange     Energy =  -4.25991249189813
 DFT Correlation      Energy =  -1.81918944628393
 DFT Exchange         Energy = -33.79826142828230
 One-Electron (alpha) Energy = -502.89068446127590
 One-Electron (beta)  Energy = -502.89068446127567
 Total Coulomb        Energy = 383.36836224044936
    4    -516.1149087183      5.71e-04  
 Alpha HF Exchange    Energy =  -4.26109033404361
 Beta HF Exchange     Energy =  -4.26109033404362
 DFT Correlation      Energy =  -1.82025888586518
 DFT Exchange         Energy = -33.81120290397480
 One-Electron (alpha) Energy = -503.01756927551378
 One-Electron (beta)  Energy = -503.01756927551395
 Total Coulomb        Energy = 383.63759599171135
    5    -516.1158111950      3.57e-04  
 Alpha HF Exchange    Energy =  -4.26118735191799
 Beta HF Exchange     Energy =  -4.26118735191799
 DFT Correlation      Energy =  -1.82000806262269
 DFT Exchange         Energy = -33.81070965443373
 One-Electron (alpha) Energy = -503.02140635150175
 One-Electron (beta)  Energy = -503.02140635150147
 Total Coulomb        Energy = 383.64407133380382
    6    -516.1164599679      6.54e-05  
 Alpha HF Exchange    Energy =  -4.26094533419909
 Beta HF Exchange     Energy =  -4.26094533419909
 DFT Correlation      Energy =  -1.81993978183413
 DFT Exchange         Energy = -33.80880126292321
 One-Electron (alpha) Energy = -502.99480275544295
 One-Electron (beta)  Energy = -502.99480275544278
 Total Coulomb        Energy = 383.58837811373098
    7    -516.1164852881      8.36e-06  
 Alpha HF Exchange    Energy =  -4.26097629430945
 Beta HF Exchange     Energy =  -4.26097629430945
 DFT Correlation      Energy =  -1.81995190375549
 DFT Exchange         Energy = -33.80903925485610
 One-Electron (alpha) Energy = -502.99856698473712
 One-Electron (beta)  Energy = -502.99856698473690
 Total Coulomb        Energy = 383.59621824144108
    8    -516.1164856531      8.53e-07  Convergence criterion met
 ---------------------------------------
 SCF time:   CPU 16.57s  wall 2.00s 
<S^2> =          0.000000000
 Alpha HF Exchange    Energy =  -4.26097629430945
 Beta HF Exchange     Energy =  -4.26097629430945
 DFT Correlation      Energy =  -1.81995190375549
 DFT Exchange         Energy = -33.80903925485610
 One-Electron (alpha) Energy = -502.99856698473712
 One-Electron (beta)  Energy = -502.99856698473690
 Total Coulomb        Energy = 383.59621824144108
 Nuclear repulsion Energy = 150.43537382220703
 SCF   energy in the final basis set =     -516.1164856531
 Total energy in the final basis set =     -516.1164856531
 
 --------------------------------------------------------------
 
                    Orbital Energies (a.u.)
 --------------------------------------------------------------
 
 Alpha MOs
 -- Occupied --
-88.856 -10.273 -10.203 -10.203  -7.916  -5.880  -5.879  -5.871
 -0.829  -0.715  -0.696  -0.532  -0.456  -0.447  -0.443  -0.407
 -0.379  -0.350  -0.275  -0.216
 -- Virtual --
 -0.077   0.078   0.086   0.142   0.149   0.155   0.166   0.174
  0.221   0.237   0.316   0.375   0.418   0.431   0.493   0.499
  0.550   0.576   0.595   0.649   0.692   0.711   0.734   0.774
  0.808   0.815   0.849   0.872   0.891   0.892   0.901   0.938
  0.938   1.050   1.059   1.241   1.290   1.399   1.452   1.674
  1.712   1.820   1.858   1.864   1.894   2.014   2.015   2.021
  2.048   2.081   2.085   2.130   2.295   2.341   2.367   2.504
  2.573   2.574   2.685   2.688   2.803   2.845   2.889   2.922
  3.156   3.200   3.378   3.397   3.417   3.454   3.940   4.160
  4.466   4.521
 
 Beta MOs
 -- Occupied --
-88.856 -10.273 -10.203 -10.203  -7.916  -5.880  -5.879  -5.871
 -0.829  -0.715  -0.696  -0.532  -0.456  -0.447  -0.443  -0.407
 -0.379  -0.350  -0.275  -0.216
 -- Virtual --
 -0.077   0.078   0.086   0.142   0.149   0.155   0.166   0.174
  0.221   0.237   0.316   0.375   0.418   0.431   0.493   0.499
  0.550   0.576   0.595   0.649   0.692   0.711   0.734   0.774
  0.808   0.815   0.849   0.872   0.891   0.892   0.901   0.938
  0.938   1.050   1.059   1.241   1.290   1.399   1.452   1.674
  1.712   1.820   1.858   1.864   1.894   2.014   2.015   2.021
  2.048   2.081   2.085   2.130   2.295   2.341   2.367   2.504
  2.573   2.574   2.685   2.688   2.803   2.845   2.889   2.922
  3.156   3.200   3.378   3.397   3.417   3.454   3.940   4.160
  4.466   4.521
 --------------------------------------------------------------
 
          Ground-State Mulliken Net Atomic Charges

     Atom                 Charge (a.u.)    Spin (a.u.)
  --------------------------------------------------------
      1 S                    -0.141979      -0.000000
      2 C                    -0.018955       0.000000
      3 C                    -0.335037       0.000000
      4 C                    -0.335037      -0.000000
      5 H                     0.132999      -0.000000
      6 H                     0.132802      -0.000000
      7 H                     0.149703       0.000000
      8 H                     0.149703       0.000000
      9 H                     0.132952       0.000000
     10 H                     0.132849       0.000000
  --------------------------------------------------------
  Sum of atomic charges =     0.000000
  Sum of spin   charges =     0.000000

 -----------------------------------------------------------------
                    Cartesian Multipole Moments
 -----------------------------------------------------------------
    Charge (ESU x 10^10)
                -0.0000
    Dipole Moment (Debye)
         X       3.2907      Y       0.0003      Z       0.0035
       Tot       3.2907
    Quadrupole Moments (Debye-Ang)
        XX     -33.1985     XY      -0.0003     YY     -31.9071
        XZ      -0.0004     YZ       0.0006     ZZ     -32.3034
    Octopole Moments (Debye-Ang^2)
       XXX       5.6991    XXY       0.0009    XYY       4.3305
       YYY       0.0047    XXZ       0.0151    XYZ       0.0015
       YYZ       0.0177    XZZ       2.5758    YZZ       0.0014
       ZZZ       0.0654
    Hexadecapole Moments (Debye-Ang^3)
      XXXX    -316.0258   XXXY      -0.0041   XXYY     -92.4938
      XYYY      -0.0083   YYYY    -201.0143   XXXZ      -0.1198
      XXYZ       0.0016   XYYZ      -0.0250   YYYZ      -0.0037
      XXZZ     -57.9016   XYZZ      -0.0015   YYZZ     -43.5547
      XZZZ      -0.0723   YZZZ       0.0049   ZZZZ     -49.7510
 -----------------------------------------------------------------
 Calculating analytic gradient of the SCF energy
 Gradient of SCF Energy
            1           2           3           4           5           6
    1  -0.0374876   0.0375005   0.0000499   0.0000501  -0.0000319  -0.0000254
    2  -0.0000040   0.0000039   0.0000047  -0.0000047   0.0000066   0.0000027
    3  -0.0000093   0.0000174  -0.0000058  -0.0000063   0.0000121  -0.0000071
            7           8           9          10
    1   0.0000005   0.0000007  -0.0000310  -0.0000259
    2   0.0000062  -0.0000063  -0.0000060  -0.0000032
    3  -0.0000033  -0.0000022   0.0000119  -0.0000074
 Max gradient component =       3.750E-02
 RMS gradient           =       9.681E-03
 Gradient time:  CPU 7.35 s  wall 0.63 s
 Geometry Optimization Parameters
   NAtoms,    NIC,     NZ,  NCons,   NDum,   NFix, NCnnct, MaxDiis
       10      56       0       1       0       0       0       0

 Cartesian Hessian Update
 Hessian Updated using BFGS Update


** CONSTRAINED OPTIMIZATION IN DELOCALIZED INTERNAL COORDINATES **
   Searching for a Minimum

   Optimization Cycle:   5

                       Coordinates (Angstroms)
     ATOM                X               Y               Z
      1  S        -1.4188191807   -0.0001836842   -0.0014504716
      2  C         0.2811805776   -0.0000075915   -0.0005859038
      3  C         1.0736960510    1.2745770330    0.0001902240
      4  C         1.0739680780   -1.2744230278    0.0002118737
      5  H         1.7296229551    1.3084758620    0.8808009201
      6  H         1.7357472927    1.3063802663   -0.8758609877
      7  H         0.4289706415    2.1525560119   -0.0028838904
      8  H         0.4294289802   -2.1525432389   -0.0015630514
      9  H         1.7310142712   -1.3076068852    0.8800099871
     10  H         1.7349203334   -1.3066557456   -0.8766587001
   Point Group: c1    Number of degrees of freedom:    24


   Energy is   -516.116485653

              Constraints and their Current Values
                                        Value     Constraint
   Distance(Angs):        1   2             1.700000     1.700000
 Hessian Updated using BFGS Update

 19 Hessian modes will be used to form the next step
  Hessian Eigenvalues:
     0.043995    0.045000    0.045000    0.074444    0.093000    0.093009
     0.095642    0.152416    0.160000    0.160013    0.162234    0.218136
     0.313154    0.324040    0.338380    0.339057    0.339085    0.339095
     0.351590

 Minimum Search - Taking Simple RFO Step
 Searching for Lamda that Minimizes Along All modes
 Value Taken    Lamda =   0.00000000
 Step Taken.  Stepsize is  0.000848

                             Maximum     Tolerance    Cnvgd?
         Gradient           0.000043      0.000300     YES
         Displacement       0.000439      0.001200     YES
         Energy change     -0.000000      0.000001     YES


                       Distance Matrix (Angstroms)
             S (  1)   C (  2)   C (  3)   C (  4)   H (  5)   H (  6)
   C (  2)  1.700000
   C (  3)  2.799580  1.500882
   C (  4)  2.799585  1.500882  2.549000
   H (  5)  3.521881  2.141718  1.098574  2.806544
   H (  6)  3.524627  2.142083  1.098539  2.804639  1.756674
   H (  7)  2.837009  2.157632  1.089278  3.487150  1.784675  1.784872
   H (  8)  2.837018  2.157635  3.487153  1.089279  3.801016  3.799344
   H (  9)  3.522468  2.141794  2.806033  1.098570  2.616083  3.148974
   H ( 10)  3.524050  2.142007  2.805146  1.098544  3.150810  2.613036
             H (  7)   H (  8)   H (  9)
   H (  8)  4.305099
   H (  9)  3.800993  1.784716
   H ( 10)  3.799360  1.784832  1.756673
 
 Final energy is   -516.116485653057     


 ******************************
 **  OPTIMIZATION CONVERGED  **
 ******************************

                       Coordinates (Angstroms)
     ATOM                X               Y               Z
      1  S        -1.4188191807   -0.0001836842   -0.0014504716
      2  C         0.2811805776   -0.0000075915   -0.0005859038
      3  C         1.0736960510    1.2745770330    0.0001902240
      4  C         1.0739680780   -1.2744230278    0.0002118737
      5  H         1.7296229551    1.3084758620    0.8808009201
      6  H         1.7357472927    1.3063802663   -0.8758609877
      7  H         0.4289706415    2.1525560119   -0.0028838904
      8  H         0.4294289802   -2.1525432389   -0.0015630514
      9  H         1.7310142712   -1.3076068852    0.8800099871
     10  H         1.7349203334   -1.3066557456   -0.8766587001

Z-matrix Print:
$molecule
0 1
S 
C  1 1.700000
C  2 1.500882 1 121.878603
H  3 1.089278 2 111.836239 1 -0.170181 0
H  3 1.098539 2 110.023167 1 -121.885124 0
H  3 1.098574 2 109.992219 1 121.497386 0
C  2 1.500882 1 121.878963 3 179.965489 0
H  7 1.089279 2 111.836403 1 0.097407 0
H  7 1.098544 2 110.016838 1 121.802991 0
H  7 1.098570 2 109.998482 1 -121.579652 0
$end

PES scan, value:    1.7000 energy: -516.1164856531
------- Summary of potential scan: ------ 
    1.7000      -516.1164856531
----------------------------------------- 
Archival summary:
1\1\hpc0249\JobtypUnspecified\ProcedureUnspecified\6-31G**\136\knomura\WedMar1313:48:162019WedMar1313:48:162019\0\\#,JobtypUnspecified,ProcedureUnspecified,6-31G**,\\0,1\S\C,1,1.7\C,2,1.50088,1,121.879\H,3,1.08928,2,111.836,1,-0.170181,0\H,3,1.09854,2,110.023,1,-121.885,0\H,3,1.09857,2,109.992,1,121.497,0\C,2,1.50088,1,121.879,3,179.965,0\H,7,1.08928,2,111.836,1,0.097407,0\H,7,1.09854,2,110.017,1,121.803,0\H,7,1.09857,2,109.998,1,-121.58,0\\\@

 Total job time:  13.69s(wall), 145.40s(cpu) 
 Wed Mar 13 13:48:16 2019

        *************************************************************
        *                                                           *
        *  Thank you very much for using Q-Chem.  Have a nice day.  *
        *                                                           *
        *************************************************************


