
Running Job 1 of 1 thio_ketone/CHOSx.xyz.data/inputs/bond_singlet_3.0.in
qchem thio_ketone/CHOSx.xyz.data/inputs/bond_singlet_3.0.in_4055.0 /staging/scratch/2868766/qchem4055/ 1
/usr/usc/qchem/5.1.1/exe/qcprog.exe_s thio_ketone/CHOSx.xyz.data/inputs/bond_singlet_3.0.in_4055.0 /staging/scratch/2868766/qchem4055/
Check license passed

                  Welcome to Q-Chem
     A Quantum Leap Into The Future Of Chemistry


 Q-Chem 5.1, Q-Chem, Inc., Pleasanton, CA (2018)

 Yihan Shao,  Zhengting Gan,  E. Epifanovsky,  A. T. B. Gilbert,  M. Wormit,  
 J. Kussmann,  A. W. Lange,  A. Behn,  Jia Deng,  Xintian Feng,  D. Ghosh,  
 M. Goldey,  P. R. Horn,  L. D. Jacobson,  I. Kaliman,  T. Kus,  A. Landau,  
 Jie Liu,  E. I. Proynov,  R. M. Richard,  R. P. Steele,  E. J. Sundstrom,  
 H. L. Woodcock III,  P. M. Zimmerman,  D. Zuev,  B. Albrecht,  E. Alguire,  
 S. A. Baeppler,  D. Barton,  Z. Benda,  Y. A. Bernard,  E. J. Berquist,  
 K. B. Bravaya,  H. Burton,  D. Casanova,  Chun-Min Chang,  Yunqing Chen,  
 A. Chien,  K. D. Closser,  M. P. Coons,  S. Coriani,  S. Dasgupta,  
 A. L. Dempwolff,  M. Diedenhofen,  Hainam Do,  R. G. Edgar,  Po-Tung Fang,  
 S. Faraji,  S. Fatehi,  Qingguo Feng,  K. D. Fenk,  J. Fosso-Tande,  
 Qinghui Ge,  A. Ghysels,  G. Gidofalvi,  J. Gomes,  J. Gonthier,  A. Gunina,  
 D. Hait,  M. W. D. Hanson-Heine,  P. H. P. Harbach,  A. W. Hauser,  
 J. E. Herr,  E. G. Hohenstein,  Z. C. Holden,  Kerwin Hui,  B. C. Huynh,  
 T.-C. Jagau,  Hyunjun Ji,  B. Kaduk,  K. Khistyaev,  Jaehoon Kim,  
 P. Klunzinger,  K. Koh,  D. Kosenkov,  L. Koulias,  T. Kowalczyk,  
 C. M. Krauter,  A. Kunitsa,  Ka Un Lao,  A. Laurent,  K. V. Lawler,  
 Joonho Lee,  D. Lefrancois,  S. Lehtola,  D. S. Levine,  Yi-Pei Li,  
 You-Sheng Lin,  Fenglai Liu,  E. Livshits,  A. Luenser,  P. Manohar,  
 E. Mansoor,  S. F. Manzer,  Shan-Ping Mao,  Yuezhi Mao,  N. Mardirossian,  
 A. V. Marenich,  T. Markovich,  L. A. Martinez-Martinez,  S. A. Maurer,  
 N. J. Mayhall,  S. C. McKenzie,  J.-M. Mewes,  A. F. Morrison,  
 J. W. Mullinax,  K. Nanda,  T. S. Nguyen-Beck,  R. Olivares-Amaya,  
 J. A. Parkhill,  T. M. Perrine,  F. Plasser,  P. Pokhilko,  S. Prager,  
 A. Prociuk,  E. Ramos,  D. R. Rehn,  F. Rob,  M. Schneider,  N. Sergueev,  
 S. M. Sharada,  S. Sharma,  D. W. Small,  T. Stauch,  T. Stein,  
 Yu-Chuan Su,  A. J. W. Thom,  A. Tkatchenko,  T. Tsuchimochi,  N. M. Tubman,  
 L. Vogt,  M. L. Vidal,  O. Vydrov,  M. A. Watson,  J. Wenzel,  
 M. de Wergifosse,  T. A. Wesolowski,  A. White,  J. Witte,  A. Yamada,  
 Jun Yang,  K. Yao,  S. Yeganeh,  S. R. Yost,  Zhi-Qiang You,  A. Zech,  
 Igor Ying Zhang,  Xing Zhang,  Yan Zhao,  Ying Zhu,  B. R. Brooks,  
 G. K. L. Chan,  C. J. Cramer,  M. S. Gordon,  W. J. Hehre,  A. Klamt,  
 M. W. Schmidt,  C. D. Sherrill,  D. G. Truhlar,  A. Aspuru-Guzik,  R. Baer,  
 A. T. Bell,  N. A. Besley,  Jeng-Da Chai,  A. E. DePrince, III,  
 R. A. DiStasio Jr.,  A. Dreuw,  B. D. Dunietz,  T. R. Furlani,  
 Chao-Ping Hsu,  Yousung Jung,  Jing Kong,  D. S. Lambrecht,  WanZhen Liang,  
 C. Ochsenfeld,  V. A. Rassolov,  L. V. Slipchenko,  J. E. Subotnik,  
 T. Van Voorhis,  J. M. Herbert,  A. I. Krylov,  P. M. W. Gill,  M. Head-Gordon

 Contributors to earlier versions of Q-Chem not listed above: 
 R. D. Adamson,  B. Austin,  J. Baker,  G. J. O. Beran,  K. Brandhorst,  
 S. T. Brown,  E. F. C. Byrd,  A. K. Chakraborty,  C.-L. Cheng,  
 Siu Hung Chien,  D. M. Chipman,  D. L. Crittenden,  H. Dachsel,  
 R. J. Doerksen,  A. D. Dutoi,  L. Fusti-Molnar,  W. A. Goddard III,  
 A. Golubeva-Zadorozhnaya,  S. R. Gwaltney,  G. Hawkins,  A. Heyden,  
 S. Hirata,  G. Kedziora,  F. J. Keil,  C. Kelley,  Jihan Kim,  R. A. King,  
 R. Z. Khaliullin,  P. P. Korambath,  W. Kurlancheek,  A. M. Lee,  M. S. Lee,  
 S. V. Levchenko,  Ching Yeh Lin,  D. Liotard,  R. C. Lochan,  I. Lotan,  
 P. E. Maslen,  N. Nair,  D. P. O'Neill,  D. Neuhauser,  E. Neuscamman,  
 C. M. Oana,  R. Olson,  B. Peters,  R. Peverati,  P. A. Pieniazek,  
 Y. M. Rhee,  J. Ritchie,  M. A. Rohrdanz,  E. Rosta,  N. J. Russ,  
 H. F. Schaefer III,  N. E. Schultz,  N. Shenvi,  A. C. Simmonett,  A. Sodt,  
 D. Stuck,  K. S. Thanthiriwatte,  V. Vanovschi,  Tao Wang,  A. Warshel,  
 C. F. Williams,  Q. Wu,  X. Xu,  W. Zhang

 Please cite Q-Chem as follows:
 Y. Shao et al., Mol. Phys. 113, 184-215 (2015)
 DOI: 10.1080/00268976.2014.952696

 Q-Chem 5.1.1 for Intel X86 EM64T Linux

 Parts of Q-Chem use Armadillo 8.300.2 (Tropical Shenanigans).
 http://arma.sourceforge.net/

 Q-Chem begins on Wed Mar 13 13:51:11 2019  

Host: 
0

     Scratch files written to /staging/scratch/2868766/qchem4055//
 Aug318 |scratch|qcdevops|jenkins|workspace|build_RNUM 6013   
Processing $rem in /usr/usc/qchem/5.1.1/config/preferences.
 MEM_TOTAL  2000 
Input Ideriv = 2
Curr. Ideriv = -1
Max.  Ideriv = 2

Checking the input file for inconsistencies... 	...done.

--------------------------------------------------------------
User input:
--------------------------------------------------------------

$comment
potential surface scanner
$end

$rem
JOBTYPE  PES_SCAN
UNRESTRICTED TRUE
SYM_IGNORE  TRUE
GEOM_OPT_MAX_CYCLES 400
SCF_MAX_CYCLES 400
METHOD   B3LYP
BASIS   6-31G**
PDB_PRINT 2
SCF_CONVERGENCE 6
THRESH 14
SCF_PRINT 1
$end
$molecule
0 1
S -2.411029 -0.000239 -0.003662
C 0.488969 0.000005 -0.000578
C 1.176472 1.287881 0.000325
C 1.176762 -1.287718 0.000458
H 1.841460 1.348894 0.879734
H 1.847156 1.348189 -0.874763
H 0.495113 2.138579 -0.001978
H 0.495598 -2.138576 -0.000533
H 1.843128 -1.348132 0.878855
H 1.846105 -1.348316 -0.875648
$end
$scan
stre 1 2 3.000000 3.001000 0.100000
$end
--------------------------------------------------------------
 ----------------------------------------------------------------
             Standard Nuclear Orientation (Angstroms)
    I     Atom           X                Y                Z
 ----------------------------------------------------------------
    1      S      -2.4110290000    -0.0002390000    -0.0036620000
    2      C       0.4889690000     0.0000050000    -0.0005780000
    3      C       1.1764720000     1.2878810000     0.0003250000
    4      C       1.1767620000    -1.2877180000     0.0004580000
    5      H       1.8414600000     1.3488940000     0.8797340000
    6      H       1.8471560000     1.3481890000    -0.8747630000
    7      H       0.4951130000     2.1385790000    -0.0019780000
    8      H       0.4955980000    -2.1385760000    -0.0005330000
    9      H       1.8431280000    -1.3481320000     0.8788550000
   10      H       1.8461050000    -1.3483160000    -0.8756480000
 ----------------------------------------------------------------
 Nuclear Repulsion Energy =   125.5815706929 hartrees
 There are       20 alpha and       20 beta electrons
 Requested basis set is 6-31G(d,p)
 There are 35 shells and 94 basis functions

 Total QAlloc Memory Limit   2000 MB
 Mega-Array Size       188 MB
 MEM_STATIC part       192 MB
A total of 1 constraints
  
            1
    1   1.0100000
    2   1.0100000
    3   2.0100000
    4   3.0000000
    5   3.0010000
    6   0.1000000
    7   0.0000000
    8   0.0000000
    9   0.0000000
   10   0.0000000

                       Distance Matrix (Angstroms)
             S (  1)   C (  2)   C (  3)   C (  4)   H (  5)   H (  6)
   C (  2)  2.900000
   C (  3)  3.811749  1.459892
   C (  4)  3.811806  1.459894  2.575599
   H (  5)  4.547990  2.103255  1.104215  2.857739
   H (  6)  4.550738  2.103918  1.104189  2.857174  1.754506
   H (  7)  3.608352  2.138583  1.089928  3.493446  1.792671  1.792900
   H (  8)  3.608459  2.138591  3.493451  1.089929  3.840399  3.840380
   H (  9)  4.549011  2.103479  2.857413  1.104208  2.697027  3.216417
   H ( 10)  4.549820  2.103696  2.857494  1.104198  3.218125  2.696505
             H (  7)   H (  8)   H (  9)
   H (  8)  4.277155
   H (  9)  3.840594  1.792753
   H ( 10)  3.840171  1.792821  1.754506
 
 A cutoff of  1.0D-14 yielded    600 shell pairs
 There are      4468 function pairs
 
 -------------------------------------------------------
 OpenMP Integral Computing Module                       
 Release: version 1.0, May 2013, Q-Chem Inc. Pittsburgh 
 -------------------------------------------------------
 Integral Job Info:
 Integral job number is                      11
 Integral operator is                         1
 short-range coefficients                     0
 long-range coefficients              100000000
 Omega coefficients                           0
 if combine SR and LR in K                    0
 Integral screening is                        0
 Integral computing path is                   2
 max size of driver memory is            800000
 size of driver memory is                593474
 size of scratch memory is             15267112
 max col of scratch BK array               1296
 max len of scratch array in speh3          155
 max len of scratch index in speh4           18
 max int batch size is                      520
 min int batch size is                       52
 fixed nKL is                                52
 max L of basis functions is                  2
 order of int derivative is                   0
 number of shells is                         35
 number of basis is                          94
 number of cartesian basis is                94
 number of contracted shell pairs           600
 number of primitive shell pairs           2258
 maxK2 (contraction) of shell pair           36
 max number of K2 of shell pair               1
 max number of CS2 of shell pair             48
 max number of PS2 of shell pair            192
 mem total for path MDJ                  513890
 -------------------------------------------------------
 Smallest overlap matrix eigenvalue = 6.26E-03

 Scale SEOQF with 1.000000e-01/1.000000e-01/1.000000e+00

 Standard Electronic Orientation quadrupole field applied
 Nucleus-field energy     =     0.0000000038 hartrees
 Guess from superposition of atomic densities
 Warning:  Energy on first SCF cycle will be non-variational
 SAD guess density has 40.000000 electrons

 -----------------------------------------------------------------------
  General SCF calculation program by
  Eric Jon Sundstrom, Paul Horn, Yuezhi Mao, Dmitri Zuev, Alec White,
  David Stuck, Shaama M.S., Shane Yost, Joonho Lee, David Small,
  Daniel Levine, Susi Lehtola, Hugh Burton, Evgeny Epifanovsky
 -----------------------------------------------------------------------
 Exchange:     0.2000 Hartree-Fock + 0.0800 Slater + 0.7200 B88
 Correlation:  0.1900 VWN1RPA + 0.8100 LYP
 Using SG-1 standard quadrature grid
 using 12 threads for integral computing
 -------------------------------------------------------
 OpenMP Integral computing Module                
 Release: version 1.0, May 2013, Q-Chem Inc. Pittsburgh 
 -------------------------------------------------------
 -------------------------------------------------------
 OpenMP BLAS3 based DFT computing Module                
 Release: version 1.0, May 2013, Q-Chem Inc. Pittsburgh 
 -------------------------------------------------------
 A unrestricted SCF calculation will be
 performed using DIIS
 SCF converges when DIIS error is below 1.0e-06
 Alpha HF Exchange    Energy =  -4.24129196600367
 Beta HF Exchange     Energy =  -4.24129196600367
 DFT Correlation      Energy =  -1.78854747025757
 DFT Exchange         Energy = -33.43014748560522
 One-Electron (alpha) Energy = -476.58243219753427
 One-Electron (beta)  Energy = -476.58243219753427
 Total Coulomb        Energy = 355.11536494246388
 ---------------------------------------
  Cycle       Energy         DIIS error
 ---------------------------------------
    1    -516.1692076438      2.92e-02  
 Alpha HF Exchange    Energy =  -4.26643028859469
 Beta HF Exchange     Energy =  -4.26643028859469
 DFT Correlation      Energy =  -1.81079857179686
 DFT Exchange         Energy = -33.88929056415451
 One-Electron (alpha) Energy = -479.67693889861931
 One-Electron (beta)  Energy = -479.67693889861943
 Total Coulomb        Energy = 362.35330746038125
    2    -515.6519493533      5.95e-03  
 Alpha HF Exchange    Energy =  -4.26606208363998
 Beta HF Exchange     Energy =  -4.26606208363998
 DFT Correlation      Energy =  -1.80913805581734
 DFT Exchange         Energy = -33.82928182543183
 One-Electron (alpha) Energy = -476.49056088725956
 One-Electron (beta)  Energy = -476.49056088725968
 Total Coulomb        Energy = 358.07025134678634
    3    -513.4998437796      1.71e-02  
 Alpha HF Exchange    Energy =  -4.21790403518597
 Beta HF Exchange     Energy =  -4.21790403518596
 DFT Correlation      Energy =  -1.79446871975646
 DFT Exchange         Energy = -33.54563003856386
 One-Electron (alpha) Energy = -476.75296691314418
 One-Electron (beta)  Energy = -476.75296691314412
 Total Coulomb        Energy = 355.84652260373673
    4    -515.8537473545      3.22e-03  
 Alpha HF Exchange    Energy =  -4.23822311644839
 Beta HF Exchange     Energy =  -4.23822311644839
 DFT Correlation      Energy =  -1.80247438286291
 DFT Exchange         Energy = -33.70067507124584
 One-Electron (alpha) Energy = -478.08641213511106
 One-Electron (beta)  Energy = -478.08641213511095
 Total Coulomb        Energy = 358.65835191933047
    5    -515.9124973412      1.09e-03  
 Alpha HF Exchange    Energy =  -4.23589442621677
 Beta HF Exchange     Energy =  -4.23589442621677
 DFT Correlation      Energy =  -1.80037875783286
 DFT Exchange         Energy = -33.67003099771703
 One-Electron (alpha) Energy = -477.87642770503015
 One-Electron (beta)  Energy = -477.87642770502970
 Total Coulomb        Energy = 358.19401405652548
    6    -515.9194692648      2.45e-04  
 Alpha HF Exchange    Energy =  -4.23796881591575
 Beta HF Exchange     Energy =  -4.23796881591576
 DFT Correlation      Energy =  -1.80113497001858
 DFT Exchange         Energy = -33.68352933219021
 One-Electron (alpha) Energy = -477.94622082319256
 One-Electron (beta)  Energy = -477.94622082319268
 Total Coulomb        Energy = 358.35192945013921
    7    -515.9195434336      2.15e-04  
 Alpha HF Exchange    Energy =  -4.23863743501587
 Beta HF Exchange     Energy =  -4.23863743501587
 DFT Correlation      Energy =  -1.80109461301855
 DFT Exchange         Energy = -33.68552081703969
 One-Electron (alpha) Energy = -477.98672422911352
 One-Electron (beta)  Energy = -477.98672422911363
 Total Coulomb        Energy = 358.43586204019141
    8    -515.9199060214      7.94e-05  
 Alpha HF Exchange    Energy =  -4.23890137071071
 Beta HF Exchange     Energy =  -4.23890137071071
 DFT Correlation      Energy =  -1.80108321107455
 DFT Exchange         Energy = -33.68598607287457
 One-Electron (alpha) Energy = -477.98324020400918
 One-Electron (beta)  Energy = -477.98324020400912
 Total Coulomb        Energy = 358.42985009890867
    9    -515.9199316378      7.04e-05  
 Alpha HF Exchange    Energy =  -4.23900489995737
 Beta HF Exchange     Energy =  -4.23900489995737
 DFT Correlation      Energy =  -1.80109216793906
 DFT Exchange         Energy = -33.68623273738734
 One-Electron (alpha) Energy = -477.98085784609384
 One-Electron (beta)  Energy = -477.98085784609378
 Total Coulomb        Energy = 358.42551539521133
   10    -515.9199643055      2.84e-05  
 Alpha HF Exchange    Energy =  -4.23904777981595
 Beta HF Exchange     Energy =  -4.23904777981595
 DFT Correlation      Energy =  -1.80109662831245
 DFT Exchange         Energy = -33.68631962000295
 One-Electron (alpha) Energy = -477.97763429843269
 One-Electron (beta)  Energy = -477.97763429843280
 Total Coulomb        Energy = 358.41923917198335
   11    -515.9199705361      3.97e-06  
 Alpha HF Exchange    Energy =  -4.23904488400231
 Beta HF Exchange     Energy =  -4.23904488400230
 DFT Correlation      Energy =  -1.80109631609553
 DFT Exchange         Energy = -33.68631480341886
 One-Electron (alpha) Energy = -477.97787944400335
 One-Electron (beta)  Energy = -477.97787944400261
 Total Coulomb        Energy = 358.41971844517906
   12    -515.9199706336      1.54e-06  
 Alpha HF Exchange    Energy =  -4.23904351326697
 Beta HF Exchange     Energy =  -4.23904351326697
 DFT Correlation      Energy =  -1.80109592809453
 DFT Exchange         Energy = -33.68630922825063
 One-Electron (alpha) Energy = -477.97796164702436
 One-Electron (beta)  Energy = -477.97796164702424
 Total Coulomb        Energy = 358.41987412919588
   13    -515.9199706510      2.17e-07  Convergence criterion met
 ---------------------------------------
 SCF time:   CPU 26.23s  wall 2.00s 
<S^2> =         -0.000000000
 Alpha HF Exchange    Energy =  -4.23904351326697
 Beta HF Exchange     Energy =  -4.23904351326697
 DFT Correlation      Energy =  -1.80109592809453
 DFT Exchange         Energy = -33.68630922825063
 One-Electron (alpha) Energy = -477.97796164702436
 One-Electron (beta)  Energy = -477.97796164702424
 Total Coulomb        Energy = 358.41987412919588
 Nuclear repulsion Energy = 125.58157069669743
 SCF   energy in the final basis set =     -515.9199706510
 Total energy in the final basis set =     -515.9199706510
 
 --------------------------------------------------------------
 
                    Orbital Energies (a.u.)
 --------------------------------------------------------------
 
 Alpha MOs
 -- Occupied --
-88.851 -10.309 -10.235 -10.235  -7.905  -5.877  -5.862  -5.860
 -0.844  -0.752  -0.597  -0.577  -0.484  -0.480  -0.466  -0.439
 -0.418  -0.256  -0.197  -0.194
 -- Virtual --
 -0.133  -0.123   0.065   0.112   0.126   0.128   0.135   0.158
  0.194   0.264   0.344   0.404   0.410   0.433   0.456   0.530
  0.532   0.533   0.553   0.638   0.642   0.680   0.700   0.773
  0.773   0.824   0.825   0.837   0.846   0.850   0.856   0.862
  0.869   0.906   0.962   1.207   1.245   1.314   1.335   1.431
  1.523   1.806   1.829   1.861   1.882   1.885   1.982   1.985
  2.025   2.051   2.055   2.062   2.223   2.290   2.317   2.498
  2.546   2.567   2.642   2.673   2.784   2.806   2.886   2.899
  3.116   3.160   3.338   3.365   3.377   3.420   3.934   4.050
  4.428   4.487
 
 Beta MOs
 -- Occupied --
-88.851 -10.309 -10.235 -10.235  -7.905  -5.877  -5.862  -5.860
 -0.844  -0.752  -0.597  -0.577  -0.484  -0.480  -0.466  -0.439
 -0.418  -0.256  -0.197  -0.194
 -- Virtual --
 -0.133  -0.123   0.065   0.112   0.126   0.128   0.135   0.158
  0.194   0.264   0.344   0.404   0.410   0.433   0.456   0.530
  0.532   0.533   0.553   0.638   0.642   0.680   0.700   0.773
  0.773   0.824   0.825   0.837   0.846   0.850   0.856   0.862
  0.869   0.906   0.962   1.207   1.245   1.314   1.335   1.431
  1.523   1.806   1.829   1.861   1.882   1.885   1.982   1.985
  2.025   2.051   2.055   2.062   2.223   2.290   2.317   2.498
  2.546   2.567   2.642   2.673   2.784   2.806   2.886   2.899
  3.116   3.160   3.338   3.365   3.377   3.420   3.934   4.050
  4.428   4.487
 --------------------------------------------------------------
 
          Ground-State Mulliken Net Atomic Charges

     Atom                 Charge (a.u.)    Spin (a.u.)
  --------------------------------------------------------
      1 S                    -0.367290       0.000000
      2 C                     0.127008      -0.000000
      3 C                    -0.386316       0.000000
      4 C                    -0.386316       0.000000
      5 H                     0.157815       0.000000
      6 H                     0.157617      -0.000000
      7 H                     0.191026      -0.000000
      8 H                     0.191023       0.000000
      9 H                     0.157741      -0.000000
     10 H                     0.157692      -0.000000
  --------------------------------------------------------
  Sum of atomic charges =    -0.000000
  Sum of spin   charges =    -0.000000

 -----------------------------------------------------------------
                    Cartesian Multipole Moments
 -----------------------------------------------------------------
    Charge (ESU x 10^10)
                -0.0000
    Dipole Moment (Debye)
         X       7.0739      Y       0.0007      Z       0.0095
       Tot       7.0739
    Quadrupole Moments (Debye-Ang)
        XX     -36.7854     XY      -0.0009     YY     -30.8039
        XZ      -0.0075     YZ       0.0011     ZZ     -33.6532
    Octopole Moments (Debye-Ang^2)
       XXX      52.9484    XXY       0.0020    XYY      21.3525
       YYY       0.0079    XXZ       0.0498    XYZ       0.0024
       YYZ       0.0533    XZZ      19.7423    YZZ       0.0027
       ZZZ       0.1681
    Hexadecapole Moments (Debye-Ang^3)
      XXXX    -638.5593   XXXY      -0.0168   XXYY    -153.1668
      XYYY      -0.0235   YYYY    -196.0279   XXXZ      -0.3680
      XXYZ       0.0038   XYYZ      -0.1380   YYYZ      -0.0010
      XXZZ    -122.4364   XYZZ      -0.0069   YYZZ     -43.5497
      XZZZ      -0.3980   YZZZ       0.0095   ZZZZ     -53.6133
 -----------------------------------------------------------------
 Calculating analytic gradient of the SCF energy
 Gradient of SCF Energy
            1           2           3           4           5           6
    1  -0.0543326   0.0544417  -0.0001771  -0.0001771   0.0000512   0.0000458
    2  -0.0000052   0.0000062  -0.0001006   0.0000995   0.0000095   0.0000121
    3  -0.0000656   0.0000538   0.0000074   0.0000073   0.0000008  -0.0000052
            7           8           9          10
    1   0.0000248   0.0000252   0.0000492   0.0000490
    2   0.0000413  -0.0000417  -0.0000100  -0.0000111
    3   0.0000014   0.0000004   0.0000032  -0.0000034
 Max gradient component =       5.444E-02
 RMS gradient           =       1.404E-02
 Gradient time:  CPU 6.66 s  wall 0.56 s
 Geometry Optimization Parameters
   NAtoms,    NIC,     NZ,  NCons,   NDum,   NFix, NCnnct, MaxDiis
       10      56       0       1       0       0       0       0


** CONSTRAINED OPTIMIZATION IN DELOCALIZED INTERNAL COORDINATES **
   Searching for a Minimum

   Optimization Cycle:   1

                       Coordinates (Angstroms)
     ATOM                X               Y               Z
      1  S        -2.4110290000   -0.0002390000   -0.0036620000
      2  C         0.4889690000    0.0000050000   -0.0005780000
      3  C         1.1764720000    1.2878810000    0.0003250000
      4  C         1.1767620000   -1.2877180000    0.0004580000
      5  H         1.8414600000    1.3488940000    0.8797340000
      6  H         1.8471560000    1.3481890000   -0.8747630000
      7  H         0.4951130000    2.1385790000   -0.0019780000
      8  H         0.4955980000   -2.1385760000   -0.0005330000
      9  H         1.8431280000   -1.3481320000    0.8788550000
     10  H         1.8461050000   -1.3483160000   -0.8756480000
   Point Group: c1    Number of degrees of freedom:    24


   Energy is   -515.919970651

              Constraints and their Current Values
                                        Value     Constraint
   Distance(Angs):        1   2             2.900000     3.000000

 Attempting to Generate Delocalized Internal Coordinates

   Using Lagrange Multiplier Algorithm


 25 Hessian modes will be used to form the next step
  Hessian Eigenvalues:
    -0.986117    0.045000    0.045000    0.045000    0.091559    0.091559
     0.096626    0.096626    0.160000    0.160000    0.160000    0.160000
     0.160000    0.160000    0.250000    0.250000    0.332202    0.332210
     0.332221    0.332231    0.348209    0.348210    0.369776    0.369778
     1.014078

 Minimum Search - Taking P-RFO Step
 Searching for Lamda that Maximizes Along the Constraint modes Only
 Value Taken    Lamda =   0.02937191
 Searching for Lamda that Minimizes Along All other modes
 Value Taken    Lamda =  -0.00863998
 Step Taken.  Stepsize is  0.184862

                             Maximum     Tolerance    Cnvgd?
         Gradient            0.188973       0.000300      NO
         Displacement        0.184859       0.001200      NO
         Energy change     *********       0.000001      NO


 New Cartesian Coordinates Obtained by Inverse Iteration

 Displacement from previous Coordinates is:  0.175158
 ----------------------------------------------------------------
             Standard Nuclear Orientation (Angstroms)
    I     Atom           X                Y                Z
 ----------------------------------------------------------------
    1      S      -2.4989602540    -0.0002439900    -0.0037036101
    2      C       0.4988608611     0.0000041284    -0.0005767581
    3      C       1.1864126467     1.2879479811     0.0003248589
    4      C       1.1867039371    -1.2877838484     0.0004555725
    5      H       1.8511450696     1.3490007670     0.8798622454
    6      H       1.8569565388     1.3482673699    -0.8748053752
    7      H       0.5047038527     2.1383340076    -0.0020253273
    8      H       0.5051908774    -2.1383300682    -0.0005443658
    9      H       1.8528586916    -1.3482253918     0.8789478691
   10      H       1.8558617790    -1.3484039555    -0.8757251094
 ----------------------------------------------------------------
 Nuclear Repulsion Energy =   124.1316456109 hartrees
 There are       20 alpha and       20 beta electrons

                       Distance Matrix (Angstroms)
             S (  1)   C (  2)   C (  3)   C (  4)   H (  5)   H (  6)
   C (  2)  2.997823
   C (  3)  3.904027  1.459975
   C (  4)  3.904087  1.459975  2.575732
   H (  5)  4.639458  2.103244  1.104166  2.857879
   H (  6)  4.642339  2.103928  1.104138  2.857287  1.754677
   H (  7)  3.687210  2.138338  1.089903  3.493338  1.792673  1.792913
   H (  8)  3.687322  2.138344  3.493343  1.089904  3.840337  3.840308
   H (  9)  4.640523  2.103472  2.857541  1.104158  2.697227  3.216635
   H ( 10)  4.641383  2.103697  2.857617  1.104147  3.218400  2.696672
             H (  7)   H (  8)   H (  9)
   H (  8)  4.276664
   H (  9)  3.840538  1.792758
   H ( 10)  3.840094  1.792829  1.754676
 
 Applying Cartesian multipole field
    Component          Value
    ---------          -----
     (2,0,0)        1.00000E-11
     (0,2,0)        2.00000E-11
     (0,0,2)       -3.00000E-10
 Nucleus-field energy     =     0.0000000040 hartrees
 Requested basis set is 6-31G(d,p)
 There are 35 shells and 94 basis functions
 A cutoff of  1.0D-14 yielded    598 shell pairs
 There are      4444 function pairs
 Smallest overlap matrix eigenvalue = 6.26E-03
 Guess from superposition of atomic densities
 Warning:  Energy on first SCF cycle will be non-variational
 SAD guess density has 40.000000 electrons

 -----------------------------------------------------------------------
  General SCF calculation program by
  Eric Jon Sundstrom, Paul Horn, Yuezhi Mao, Dmitri Zuev, Alec White,
  David Stuck, Shaama M.S., Shane Yost, Joonho Lee, David Small,
  Daniel Levine, Susi Lehtola, Hugh Burton, Evgeny Epifanovsky
 -----------------------------------------------------------------------
 Exchange:     0.2000 Hartree-Fock + 0.0800 Slater + 0.7200 B88
 Correlation:  0.1900 VWN1RPA + 0.8100 LYP
 Using SG-1 standard quadrature grid
 using 12 threads for integral computing
 -------------------------------------------------------
 OpenMP Integral computing Module                
 Release: version 1.0, May 2013, Q-Chem Inc. Pittsburgh 
 -------------------------------------------------------
 -------------------------------------------------------
 OpenMP BLAS3 based DFT computing Module                
 Release: version 1.0, May 2013, Q-Chem Inc. Pittsburgh 
 -------------------------------------------------------
 A unrestricted SCF calculation will be
 performed using DIIS
 SCF converges when DIIS error is below 1.0e-06
 Alpha HF Exchange    Energy =  -4.24070744876397
 Beta HF Exchange     Energy =  -4.24070744876397
 DFT Correlation      Energy =  -1.78786000093432
 DFT Exchange         Energy = -33.42907271095950
 One-Electron (alpha) Energy = -475.13264671447683
 One-Electron (beta)  Energy = -475.13264671447683
 Total Coulomb        Energy = 353.66749125408273
 ---------------------------------------
  Cycle       Energy         DIIS error
 ---------------------------------------
    1    -516.1645041693      2.92e-02  
 Alpha HF Exchange    Energy =  -4.26616863497616
 Beta HF Exchange     Energy =  -4.26616863497616
 DFT Correlation      Energy =  -1.81009143971418
 DFT Exchange         Energy = -33.88850014699300
 One-Electron (alpha) Energy = -478.23291183323283
 One-Electron (beta)  Energy = -478.23291183323266
 Total Coulomb        Energy = 360.95016991825992
    2    -515.6149369899      6.14e-03  
 Alpha HF Exchange    Energy =  -4.25613898973156
 Beta HF Exchange     Energy =  -4.25613898973156
 DFT Correlation      Energy =  -1.80950095086770
 DFT Exchange         Energy = -33.79191275998473
 One-Electron (alpha) Energy = -472.20431861885606
 One-Electron (beta)  Energy = -472.20431861885578
 Total Coulomb        Energy = 353.51030014921048
    3    -510.8803831639      1.77e-02  
 Alpha HF Exchange    Energy =  -4.22644463150420
 Beta HF Exchange     Energy =  -4.22644463150420
 DFT Correlation      Energy =  -1.79363116720035
 DFT Exchange         Energy = -33.57676227179089
 One-Electron (alpha) Energy = -476.26244279338198
 One-Electron (beta)  Energy = -476.26244279338181
 Total Coulomb        Energy = 356.45882838880516
    4    -515.7576942850      4.51e-03  
 Alpha HF Exchange    Energy =  -4.23737620731214
 Beta HF Exchange     Energy =  -4.23737620731214
 DFT Correlation      Energy =  -1.80311653255540
 DFT Exchange         Energy = -33.70702602329670
 One-Electron (alpha) Energy = -476.47611506764662
 One-Electron (beta)  Energy = -476.47611506764645
 Total Coulomb        Energy = 356.96753841365387
    5    -515.8379410772      3.35e-03  
 Alpha HF Exchange    Energy =  -4.23372359577855
 Beta HF Exchange     Energy =  -4.23372359577855
 DFT Correlation      Energy =  -1.80088024987248
 DFT Exchange         Energy = -33.67527860271690
 One-Electron (alpha) Energy = -476.16988057350960
 One-Electron (beta)  Energy = -476.16988057350960
 Total Coulomb        Energy = 356.29768119559117
    6    -515.8540403806      2.75e-03  
 Alpha HF Exchange    Energy =  -4.23785577907545
 Beta HF Exchange     Energy =  -4.23785577907544
 DFT Correlation      Energy =  -1.80103451417296
 DFT Exchange         Energy = -33.69013669931014
 One-Electron (alpha) Energy = -476.51796387356126
 One-Electron (beta)  Energy = -476.51796387356097
 Total Coulomb        Energy = 356.96509482954832
    7    -515.9060700742      7.66e-04  
 Alpha HF Exchange    Energy =  -4.23897246453339
 Beta HF Exchange     Energy =  -4.23897246453339
 DFT Correlation      Energy =  -1.80038567984403
 DFT Exchange         Energy = -33.68622488944017
 One-Electron (alpha) Energy = -476.52157156952688
 One-Electron (beta)  Energy = -476.52157156952683
 Total Coulomb        Energy = 356.96567036082911
    8    -515.9103826616      9.46e-05  
 Alpha HF Exchange    Energy =  -4.23963698577747
 Beta HF Exchange     Energy =  -4.23963698577747
 DFT Correlation      Energy =  -1.80041329965610
 DFT Exchange         Energy = -33.68847915276537
 One-Electron (alpha) Energy = -476.53730259312857
 One-Electron (beta)  Energy = -476.53730259312817
 Total Coulomb        Energy = 357.00074761842905
    9    -515.9103783768      1.29e-04  
 Alpha HF Exchange    Energy =  -4.23981800167863
 Beta HF Exchange     Energy =  -4.23981800167863
 DFT Correlation      Energy =  -1.80039581480426
 DFT Exchange         Energy = -33.68859214496187
 One-Electron (alpha) Energy = -476.53095297896061
 One-Electron (beta)  Energy = -476.53095297896061
 Total Coulomb        Energy = 356.98844202108393
   10    -515.9104422850      1.01e-04  
 Alpha HF Exchange    Energy =  -4.24003392394522
 Beta HF Exchange     Energy =  -4.24003392394521
 DFT Correlation      Energy =  -1.80040239866259
 DFT Exchange         Energy = -33.68894633322149
 One-Electron (alpha) Energy = -476.52123098682227
 One-Electron (beta)  Energy = -476.52123098682210
 Total Coulomb        Energy = 356.96970542492670
   11    -515.9105275135      8.37e-06  
 Alpha HF Exchange    Energy =  -4.24008594529574
 Beta HF Exchange     Energy =  -4.24008594529574
 DFT Correlation      Energy =  -1.80041213147084
 DFT Exchange         Energy = -33.68920754549524
 One-Electron (alpha) Energy = -476.52148531861280
 One-Electron (beta)  Energy = -476.52148531861280
 Total Coulomb        Energy = 356.97058861106308
   12    -515.9105279788      3.65e-06  
 Alpha HF Exchange    Energy =  -4.24006571524353
 Beta HF Exchange     Energy =  -4.24006571524354
 DFT Correlation      Energy =  -1.80040937641260
 DFT Exchange         Energy = -33.68912555809543
 One-Electron (alpha) Energy = -476.52114552527962
 One-Electron (beta)  Energy = -476.52114552527985
 Total Coulomb        Energy = 356.96978372811998
   13    -515.9105280725      1.45e-06  
 Alpha HF Exchange    Energy =  -4.24006400309019
 Beta HF Exchange     Energy =  -4.24006400309019
 DFT Correlation      Energy =  -1.80040903801222
 DFT Exchange         Energy = -33.68912019200287
 One-Electron (alpha) Energy = -476.52128312243195
 One-Electron (beta)  Energy = -476.52128312243173
 Total Coulomb        Energy = 356.97004977691688
   14    -515.9105280892      1.09e-07  Convergence criterion met
 ---------------------------------------
 SCF time:   CPU 27.89s  wall 3.00s 
<S^2> =          0.000000000
 Alpha HF Exchange    Energy =  -4.24006400309019
 Beta HF Exchange     Energy =  -4.24006400309019
 DFT Correlation      Energy =  -1.80040903801222
 DFT Exchange         Energy = -33.68912019200287
 One-Electron (alpha) Energy = -476.52128312243195
 One-Electron (beta)  Energy = -476.52128312243173
 Total Coulomb        Energy = 356.97004977691688
 Nuclear repulsion Energy = 124.13164561496113
 SCF   energy in the final basis set =     -515.9105280892
 Total energy in the final basis set =     -515.9105280892
 
 --------------------------------------------------------------
 
                    Orbital Energies (a.u.)
 --------------------------------------------------------------
 
 Alpha MOs
 -- Occupied --
-88.851 -10.307 -10.236 -10.236  -7.905  -5.877  -5.861  -5.859
 -0.845  -0.753  -0.596  -0.578  -0.486  -0.481  -0.467  -0.440
 -0.419  -0.252  -0.196  -0.193
 -- Virtual --
 -0.133  -0.129   0.063   0.111   0.125   0.127   0.134   0.157
  0.192   0.264   0.343   0.405   0.411   0.434   0.453   0.527
  0.529   0.532   0.544   0.643   0.647   0.683   0.700   0.771
  0.774   0.824   0.824   0.834   0.848   0.851   0.854   0.854
  0.868   0.904   0.940   1.200   1.244   1.312   1.333   1.427
  1.519   1.805   1.828   1.861   1.881   1.884   1.981   1.984
  2.023   2.049   2.053   2.061   2.222   2.289   2.316   2.498
  2.544   2.565   2.640   2.672   2.783   2.805   2.884   2.899
  3.115   3.159   3.337   3.364   3.375   3.419   3.933   4.048
  4.427   4.485
 
 Beta MOs
 -- Occupied --
-88.851 -10.307 -10.236 -10.236  -7.905  -5.877  -5.861  -5.859
 -0.845  -0.753  -0.596  -0.578  -0.486  -0.481  -0.467  -0.440
 -0.419  -0.252  -0.196  -0.193
 -- Virtual --
 -0.133  -0.129   0.063   0.111   0.125   0.127   0.134   0.157
  0.192   0.264   0.343   0.405   0.411   0.434   0.453   0.527
  0.529   0.532   0.544   0.643   0.647   0.683   0.700   0.771
  0.774   0.824   0.824   0.834   0.848   0.851   0.854   0.854
  0.868   0.904   0.940   1.200   1.244   1.312   1.333   1.427
  1.519   1.805   1.828   1.861   1.881   1.884   1.981   1.984
  2.023   2.049   2.053   2.061   2.222   2.289   2.316   2.498
  2.544   2.565   2.640   2.672   2.783   2.805   2.884   2.899
  3.115   3.159   3.337   3.364   3.375   3.419   3.933   4.048
  4.427   4.485
 --------------------------------------------------------------
 
          Ground-State Mulliken Net Atomic Charges

     Atom                 Charge (a.u.)    Spin (a.u.)
  --------------------------------------------------------
      1 S                    -0.367994       0.000000
      2 C                     0.131241      -0.000000
      3 C                    -0.389210       0.000000
      4 C                    -0.389211       0.000000
      5 H                     0.158438       0.000000
      6 H                     0.158222      -0.000000
      7 H                     0.190927       0.000000
      8 H                     0.190925      -0.000000
      9 H                     0.158359       0.000000
     10 H                     0.158303      -0.000000
  --------------------------------------------------------
  Sum of atomic charges =     0.000000
  Sum of spin   charges =     0.000000

 -----------------------------------------------------------------
                    Cartesian Multipole Moments
 -----------------------------------------------------------------
    Charge (ESU x 10^10)
                -0.0000
    Dipole Moment (Debye)
         X       7.2870      Y       0.0007      Z       0.0097
       Tot       7.2870
    Quadrupole Moments (Debye-Ang)
        XX     -37.2258     XY      -0.0009     YY     -30.8273
        XZ      -0.0077     YZ       0.0012     ZZ     -33.6955
    Octopole Moments (Debye-Ang^2)
       XXX      57.1554    XXY       0.0021    XYY      22.6618
       YYY       0.0082    XXZ       0.0513    XYZ       0.0027
       YYZ       0.0544    XZZ      21.3284    YZZ       0.0028
       ZZZ       0.1718
    Hexadecapole Moments (Debye-Ang^3)
      XXXX    -673.9193   XXXY      -0.0181   XXYY    -160.2360
      XYYY      -0.0251   YYYY    -196.2486   XXXZ      -0.3791
      XXYZ       0.0040   XYYZ      -0.1439   YYYZ      -0.0008
      XXZZ    -130.1757   XYZZ      -0.0075   YYZZ     -43.5463
      XZZZ      -0.4204   YZZZ       0.0097   ZZZZ     -53.7559
 -----------------------------------------------------------------
 Calculating analytic gradient of the SCF energy
 Gradient of SCF Energy
            1           2           3           4           5           6
    1  -0.0478644   0.0495472  -0.0005644  -0.0005643  -0.0001350  -0.0001454
    2  -0.0000046   0.0000047   0.0006783  -0.0006788   0.0000150   0.0000123
    3  -0.0000597   0.0000403   0.0000148   0.0000101   0.0000195  -0.0000261
            7           8           9          10
    1   0.0000029   0.0000034  -0.0001388  -0.0001411
    2  -0.0001428   0.0001428  -0.0000138  -0.0000130
    3   0.0000013   0.0000003   0.0000226  -0.0000230
 Max gradient component =       4.955E-02
 RMS gradient           =       1.258E-02
 Gradient time:  CPU 6.89 s  wall 0.58 s
 Geometry Optimization Parameters
   NAtoms,    NIC,     NZ,  NCons,   NDum,   NFix, NCnnct, MaxDiis
       10      56       0       1       0       0       0       0

 Cartesian Hessian Update
 Hessian Updated using BFGS Update
**WARNING** Hereditary positive definiteness endangered


** CONSTRAINED OPTIMIZATION IN DELOCALIZED INTERNAL COORDINATES **
   Searching for a Minimum

   Optimization Cycle:   2

                       Coordinates (Angstroms)
     ATOM                X               Y               Z
      1  S        -2.4989602540   -0.0002439900   -0.0037036101
      2  C         0.4988608611    0.0000041284   -0.0005767581
      3  C         1.1864126467    1.2879479811    0.0003248589
      4  C         1.1867039371   -1.2877838484    0.0004555725
      5  H         1.8511450696    1.3490007670    0.8798622454
      6  H         1.8569565388    1.3482673699   -0.8748053752
      7  H         0.5047038527    2.1383340076   -0.0020253273
      8  H         0.5051908774   -2.1383300682   -0.0005443658
      9  H         1.8528586916   -1.3482253918    0.8789478691
     10  H         1.8558617790   -1.3484039555   -0.8757251094
   Point Group: c1    Number of degrees of freedom:    24


   Energy is   -515.910528089

              Constraints and their Current Values
                                        Value     Constraint
   Distance(Angs):        1   2             2.997823     3.000000
 Hessian Updated using BFGS Update
**WARNING** Hereditary positive definiteness endangered

   Using Lagrange Multiplier Algorithm


 21 Hessian modes will be used to form the next step
  Hessian Eigenvalues:
    -1.017728    0.045000    0.045000    0.045000    0.091559    0.091559
     0.096502    0.096626    0.159895    0.160000    0.244878    0.250000
     0.332178    0.332206    0.332217    0.332228    0.348182    0.348209
     0.369729    0.369777    0.982775

 Minimum Search - Taking P-RFO Step
 Searching for Lamda that Maximizes Along the Constraint modes Only
 Value Taken    Lamda =   0.00001095
 Searching for Lamda that Minimizes Along All other modes
 Value Taken    Lamda =  -0.00011055
 Step Taken.  Stepsize is  0.011656

                             Maximum     Tolerance    Cnvgd?
         Gradient            0.008695       0.000300      NO
         Displacement        0.009073       0.001200      NO
         Energy change      0.009443       0.000001      NO


 New Cartesian Coordinates Obtained by Inverse Iteration

 Displacement from previous Coordinates is:  0.033177
 ----------------------------------------------------------------
             Standard Nuclear Orientation (Angstroms)
    I     Atom           X                Y                Z
 ----------------------------------------------------------------
    1      S      -2.5064695141    -0.0002389969    -0.0036164730
    2      C       0.4935285837     0.0000022987    -0.0006018209
    3      C       1.1864257876     1.2849060531     0.0002930487
    4      C       1.1867185984    -1.2847431719     0.0004323409
    5      H       1.8519827651     1.3427011324     0.8795644135
    6      H       1.8579888389     1.3419773340    -0.8744146961
    7      H       0.5092374111     2.1391265437    -0.0021004691
    8      H       0.5097284020    -2.1391243510    -0.0005602350
    9      H       1.8537727755    -1.3419193549     0.8785994082
   10      H       1.8568203516    -1.3421204873    -0.8753855172
 ----------------------------------------------------------------
 Nuclear Repulsion Energy =   124.0925217692 hartrees
 There are       20 alpha and       20 beta electrons

                       Distance Matrix (Angstroms)
             S (  1)   C (  2)   C (  3)   C (  4)   H (  5)   H (  6)
   C (  2)  3.000000
   C (  3)  3.910126  1.459824
   C (  4)  3.910193  1.459823  2.569649
   H (  5)  4.645385  2.103076  1.104276  2.849371
   H (  6)  4.648476  2.103853  1.104250  2.848793  1.753990
   H (  7)  3.697482  2.139182  1.090084  3.490254  1.792928  1.793184
   H (  8)  3.697606  2.139188  3.490258  1.090084  3.833976  3.833992
   H (  9)  4.646517  2.103334  2.849032  1.104268  2.684621  3.205679
   H ( 10)  4.647464  2.103593  2.849124  1.104258  3.207513  2.684098
             H (  7)   H (  8)   H (  9)
   H (  8)  4.278251
   H (  9)  3.834200  1.793018
   H ( 10)  3.833756  1.793095  1.753988
 
 Applying Cartesian multipole field
    Component          Value
    ---------          -----
     (2,0,0)        1.00000E-11
     (0,2,0)        2.00000E-11
     (0,0,2)       -3.00000E-10
 Nucleus-field energy     =     0.0000000040 hartrees
 Requested basis set is 6-31G(d,p)
 There are 35 shells and 94 basis functions
 A cutoff of  1.0D-14 yielded    598 shell pairs
 There are      4444 function pairs
 Smallest overlap matrix eigenvalue = 6.26E-03
 Guess from superposition of atomic densities
 Warning:  Energy on first SCF cycle will be non-variational
 SAD guess density has 40.000000 electrons

 -----------------------------------------------------------------------
  General SCF calculation program by
  Eric Jon Sundstrom, Paul Horn, Yuezhi Mao, Dmitri Zuev, Alec White,
  David Stuck, Shaama M.S., Shane Yost, Joonho Lee, David Small,
  Daniel Levine, Susi Lehtola, Hugh Burton, Evgeny Epifanovsky
 -----------------------------------------------------------------------
 Exchange:     0.2000 Hartree-Fock + 0.0800 Slater + 0.7200 B88
 Correlation:  0.1900 VWN1RPA + 0.8100 LYP
 Using SG-1 standard quadrature grid
 using 12 threads for integral computing
 -------------------------------------------------------
 OpenMP Integral computing Module                
 Release: version 1.0, May 2013, Q-Chem Inc. Pittsburgh 
 -------------------------------------------------------
 -------------------------------------------------------
 OpenMP BLAS3 based DFT computing Module                
 Release: version 1.0, May 2013, Q-Chem Inc. Pittsburgh 
 -------------------------------------------------------
 A unrestricted SCF calculation will be
 performed using DIIS
 SCF converges when DIIS error is below 1.0e-06
 Alpha HF Exchange    Energy =  -4.24075479807916
 Beta HF Exchange     Energy =  -4.24075479807916
 DFT Correlation      Energy =  -1.78787452700491
 DFT Exchange         Energy = -33.42911267547083
 One-Electron (alpha) Energy = -475.09375646525871
 One-Electron (beta)  Energy = -475.09375646525871
 Total Coulomb        Energy = 353.62859753367297
 ---------------------------------------
  Cycle       Energy         DIIS error
 ---------------------------------------
    1    -516.1648904223      2.92e-02  
 Alpha HF Exchange    Energy =  -4.26608364993289
 Beta HF Exchange     Energy =  -4.26608364993289
 DFT Correlation      Energy =  -1.81009852370632
 DFT Exchange         Energy = -33.88828665715253
 One-Electron (alpha) Energy = -478.18849777970991
 One-Electron (beta)  Energy = -478.18849777971013
 Total Coulomb        Energy = 360.89750016451302
    2    -515.6175261024      6.12e-03  
 Alpha HF Exchange    Energy =  -4.25593927622852
 Beta HF Exchange     Energy =  -4.25593927622852
 DFT Correlation      Energy =  -1.80943752410131
 DFT Exchange         Energy = -33.79008588220069
 One-Electron (alpha) Energy = -472.16213507754134
 One-Electron (beta)  Energy = -472.16213507754151
 Total Coulomb        Energy = 353.45503451760169
    3    -510.8881158230      1.77e-02  
 Alpha HF Exchange    Energy =  -4.22653162196456
 Beta HF Exchange     Energy =  -4.22653162196456
 DFT Correlation      Energy =  -1.79362124005929
 DFT Exchange         Energy = -33.57721166326539
 One-Electron (alpha) Energy = -476.22771984651081
 One-Electron (beta)  Energy = -476.22771984651087
 Total Coulomb        Energy = 356.43423397159944
    4    -515.7525800955      4.58e-03  
 Alpha HF Exchange    Energy =  -4.23769871542888
 Beta HF Exchange     Energy =  -4.23769871542888
 DFT Correlation      Energy =  -1.80286871030829
 DFT Exchange         Energy = -33.70542738719140
 One-Electron (alpha) Energy = -476.46018707413918
 One-Electron (beta)  Energy = -476.46018707413913
 Total Coulomb        Energy = 356.95731510835077
    5    -515.8542307951      2.95e-03  
 Alpha HF Exchange    Energy =  -4.23409565300706
 Beta HF Exchange     Energy =  -4.23409565300706
 DFT Correlation      Energy =  -1.80073616841265
 DFT Exchange         Energy = -33.67507707915679
 One-Electron (alpha) Energy = -476.14334382322352
 One-Electron (beta)  Energy = -476.14334382322323
 Total Coulomb        Energy = 356.27544043787736
    6    -515.8627299889      2.50e-03  
 Alpha HF Exchange    Energy =  -4.23762301675405
 Beta HF Exchange     Energy =  -4.23762301675405
 DFT Correlation      Energy =  -1.80090638127787
 DFT Exchange         Energy = -33.68800691403358
 One-Electron (alpha) Energy = -476.43758938374646
 One-Electron (beta)  Energy = -476.43758938374668
 Total Coulomb        Energy = 356.84222688097634
    7    -515.9045894421      8.57e-04  
 Alpha HF Exchange    Energy =  -4.23916224655696
 Beta HF Exchange     Energy =  -4.23916224655696
 DFT Correlation      Energy =  -1.80039283914042
 DFT Exchange         Energy = -33.68679948389797
 One-Electron (alpha) Energy = -476.48072168227577
 One-Electron (beta)  Energy = -476.48072168227549
 Total Coulomb        Energy = 356.92420404818620
    8    -515.9102343593      7.75e-05  
 Alpha HF Exchange    Energy =  -4.23978929691267
 Beta HF Exchange     Energy =  -4.23978929691267
 DFT Correlation      Energy =  -1.80041327498665
 DFT Exchange         Energy = -33.68886052957808
 One-Electron (alpha) Energy = -476.49513687041372
 One-Electron (beta)  Energy = -476.49513687041355
 Total Coulomb        Energy = 356.95637182473274
    9    -515.9102325413      1.14e-04  
 Alpha HF Exchange    Energy =  -4.23997670944074
 Beta HF Exchange     Energy =  -4.23997670944074
 DFT Correlation      Energy =  -1.80039779973259
 DFT Exchange         Energy = -33.68904082883671
 One-Electron (alpha) Energy = -476.49011132625236
 One-Electron (beta)  Energy = -476.49011132625247
 Total Coulomb        Energy = 356.94681360926450
   10    -515.9102793175      9.23e-05  
 Alpha HF Exchange    Energy =  -4.24017771255239
 Beta HF Exchange     Energy =  -4.24017771255239
 DFT Correlation      Energy =  -1.80040236835340
 DFT Exchange         Energy = -33.68934691499008
 One-Electron (alpha) Energy = -476.48073583117713
 One-Electron (beta)  Energy = -476.48073583117667
 Total Coulomb        Energy = 356.92870282323378
   11    -515.9103517743      5.99e-06  
 Alpha HF Exchange    Energy =  -4.24022752028212
 Beta HF Exchange     Energy =  -4.24022752028212
 DFT Correlation      Energy =  -1.80041138288221
 DFT Exchange         Energy = -33.68959571393910
 One-Electron (alpha) Energy = -476.48114000980092
 One-Electron (beta)  Energy = -476.48114000980104
 Total Coulomb        Energy = 356.92986842839343
   12    -515.9103519554      3.94e-06  
 Alpha HF Exchange    Energy =  -4.24020954217873
 Beta HF Exchange     Energy =  -4.24020954217872
 DFT Correlation      Energy =  -1.80040873456395
 DFT Exchange         Energy = -33.68952204242897
 One-Electron (alpha) Energy = -476.48089830409424
 One-Electron (beta)  Energy = -476.48089830409413
 Total Coulomb        Energy = 356.92927262961382
   13    -515.9103520667      1.23e-06  
 Alpha HF Exchange    Energy =  -4.24020848310185
 Beta HF Exchange     Energy =  -4.24020848310185
 DFT Correlation      Energy =  -1.80040843264058
 DFT Exchange         Energy = -33.68951839667805
 One-Electron (alpha) Energy = -476.48102249431031
 One-Electron (beta)  Energy = -476.48102249431020
 Total Coulomb        Energy = 356.92951493253918
   14    -515.9103520784      1.66e-07  Convergence criterion met
 ---------------------------------------
 SCF time:   CPU 27.60s  wall 2.00s 
<S^2> =          0.000000000
 Alpha HF Exchange    Energy =  -4.24020848310185
 Beta HF Exchange     Energy =  -4.24020848310185
 DFT Correlation      Energy =  -1.80040843264058
 DFT Exchange         Energy = -33.68951839667805
 One-Electron (alpha) Energy = -476.48102249431031
 One-Electron (beta)  Energy = -476.48102249431020
 Total Coulomb        Energy = 356.92951493253918
 Nuclear repulsion Energy = 124.09252177322570
 SCF   energy in the final basis set =     -515.9103520784
 Total energy in the final basis set =     -515.9103520784
 
 --------------------------------------------------------------
 
                    Orbital Energies (a.u.)
 --------------------------------------------------------------
 
 Alpha MOs
 -- Occupied --
-88.851 -10.307 -10.236 -10.236  -7.905  -5.877  -5.861  -5.859
 -0.845  -0.752  -0.596  -0.578  -0.486  -0.481  -0.467  -0.440
 -0.419  -0.253  -0.196  -0.194
 -- Virtual --
 -0.133  -0.130   0.063   0.111   0.125   0.127   0.134   0.157
  0.192   0.264   0.342   0.404   0.411   0.434   0.455   0.526
  0.529   0.532   0.544   0.643   0.647   0.683   0.700   0.771
  0.775   0.823   0.824   0.834   0.848   0.851   0.854   0.854
  0.868   0.904   0.939   1.199   1.245   1.316   1.332   1.425
  1.518   1.805   1.827   1.862   1.881   1.885   1.981   1.984
  2.023   2.049   2.054   2.063   2.224   2.288   2.316   2.496
  2.544   2.566   2.641   2.672   2.782   2.805   2.883   2.898
  3.114   3.159   3.337   3.364   3.375   3.420   3.933   4.049
  4.427   4.485
 
 Beta MOs
 -- Occupied --
-88.851 -10.307 -10.236 -10.236  -7.905  -5.877  -5.861  -5.859
 -0.845  -0.752  -0.596  -0.578  -0.486  -0.481  -0.467  -0.440
 -0.419  -0.253  -0.196  -0.194
 -- Virtual --
 -0.133  -0.130   0.063   0.111   0.125   0.127   0.134   0.157
  0.192   0.264   0.342   0.404   0.411   0.434   0.455   0.526
  0.529   0.532   0.544   0.643   0.647   0.683   0.700   0.771
  0.775   0.823   0.824   0.834   0.848   0.851   0.854   0.854
  0.868   0.904   0.939   1.199   1.245   1.316   1.332   1.425
  1.518   1.805   1.827   1.862   1.881   1.885   1.981   1.984
  2.023   2.049   2.054   2.063   2.224   2.288   2.316   2.496
  2.544   2.566   2.641   2.672   2.782   2.805   2.883   2.898
  3.114   3.159   3.337   3.364   3.375   3.420   3.933   4.049
  4.427   4.485
 --------------------------------------------------------------
 
          Ground-State Mulliken Net Atomic Charges

     Atom                 Charge (a.u.)    Spin (a.u.)
  --------------------------------------------------------
      1 S                    -0.366601      -0.000000
      2 C                     0.131264       0.000000
      3 C                    -0.389225      -0.000000
      4 C                    -0.389227       0.000000
      5 H                     0.158395      -0.000000
      6 H                     0.158166       0.000000
      7 H                     0.190334      -0.000000
      8 H                     0.190332       0.000000
      9 H                     0.158312      -0.000000
     10 H                     0.158251       0.000000
  --------------------------------------------------------
  Sum of atomic charges =     0.000000
  Sum of spin   charges =     0.000000

 -----------------------------------------------------------------
                    Cartesian Multipole Moments
 -----------------------------------------------------------------
    Charge (ESU x 10^10)
                 0.0000
    Dipole Moment (Debye)
         X       7.2874      Y       0.0007      Z       0.0096
       Tot       7.2874
    Quadrupole Moments (Debye-Ang)
        XX     -37.2382     XY      -0.0009     YY     -30.8636
        XZ      -0.0072     YZ       0.0012     ZZ     -33.7031
    Octopole Moments (Debye-Ang^2)
       XXX      57.4980    XXY       0.0021    XYY      22.7575
       YYY       0.0080    XXZ       0.0503    XYZ       0.0028
       YYZ       0.0533    XZZ      21.4685    YZZ       0.0027
       ZZZ       0.1693
    Hexadecapole Moments (Debye-Ang^3)
      XXXX    -676.3112   XXXY      -0.0178   XXYY    -160.7596
      XYYY      -0.0246   YYYY    -195.5914   XXXZ      -0.3699
      XXYZ       0.0041   XYYZ      -0.1404   YYYZ      -0.0010
      XXZZ    -130.7918   XYZZ      -0.0073   YYZZ     -43.4706
      XZZZ      -0.4099   YZZZ       0.0101   ZZZZ     -53.7653
 -----------------------------------------------------------------
 Calculating analytic gradient of the SCF energy
 Gradient of SCF Energy
            1           2           3           4           5           6
    1  -0.0475739   0.0487027  -0.0004694  -0.0004695  -0.0000106  -0.0000192
    2  -0.0000045   0.0000044   0.0000457  -0.0000461   0.0000044   0.0000050
    3  -0.0000574   0.0000370   0.0000166   0.0000124   0.0000318  -0.0000405
            7           8           9          10
    1  -0.0000657  -0.0000652  -0.0000137  -0.0000155
    2  -0.0000665   0.0000664  -0.0000044  -0.0000046
    3   0.0000011  -0.0000000   0.0000356  -0.0000367
 Max gradient component =       4.870E-02
 RMS gradient           =       1.243E-02
 Gradient time:  CPU 6.88 s  wall 0.58 s
 Geometry Optimization Parameters
   NAtoms,    NIC,     NZ,  NCons,   NDum,   NFix, NCnnct, MaxDiis
       10      56       0       1       0       0       0       0

 Cartesian Hessian Update
 Hessian Updated using BFGS Update


** CONSTRAINED OPTIMIZATION IN DELOCALIZED INTERNAL COORDINATES **
   Searching for a Minimum

   Optimization Cycle:   3

                       Coordinates (Angstroms)
     ATOM                X               Y               Z
      1  S        -2.5064695141   -0.0002389969   -0.0036164730
      2  C         0.4935285837    0.0000022987   -0.0006018209
      3  C         1.1864257876    1.2849060531    0.0002930487
      4  C         1.1867185984   -1.2847431719    0.0004323409
      5  H         1.8519827651    1.3427011324    0.8795644135
      6  H         1.8579888389    1.3419773340   -0.8744146961
      7  H         0.5092374111    2.1391265437   -0.0021004691
      8  H         0.5097284020   -2.1391243510   -0.0005602350
      9  H         1.8537727755   -1.3419193549    0.8785994082
     10  H         1.8568203516   -1.3421204873   -0.8753855172
   Point Group: c1    Number of degrees of freedom:    24


   Energy is   -515.910352078

              Constraints and their Current Values
                                        Value     Constraint
   Distance(Angs):        1   2             3.000000     3.000000
 Hessian Updated using BFGS Update

 18 Hessian modes will be used to form the next step
  Hessian Eigenvalues:
     0.044964    0.045000    0.088239    0.091559    0.091607    0.118403
     0.160000    0.160206    0.167828    0.250000    0.332205    0.332216
     0.332227    0.333152    0.348209    0.348398    0.369777    0.399937

 Minimum Search - Taking Simple RFO Step
 Searching for Lamda that Minimizes Along All modes
 Value Taken    Lamda =  -0.00001663
 Step Taken.  Stepsize is  0.012519

                             Maximum     Tolerance    Cnvgd?
         Gradient           0.000952      0.000300      NO
         Displacement       0.009651      0.001200      NO
         Energy change      0.000176      0.000001      NO


 New Cartesian Coordinates Obtained by Inverse Iteration

 Displacement from previous Coordinates is:  0.034950
 ----------------------------------------------------------------
             Standard Nuclear Orientation (Angstroms)
    I     Atom           X                Y                Z
 ----------------------------------------------------------------
    1      S      -2.5130967428    -0.0002300988    -0.0034231312
    2      C       0.4869015701    -0.0000007490    -0.0006296829
    3      C       1.1862466300     1.2823329888     0.0002358022
    4      C       1.1865428177    -1.2821723723     0.0003810130
    5      H       1.8523200194     1.3363179741     0.8792927083
    6      H       1.8587336356     1.3355363398    -0.8739319401
    7      H       0.5149534183     2.1412607743    -0.0022830769
    8      H       0.5154511677    -2.1412616446    -0.0006120742
    9      H       1.8542749932    -1.3355045860     0.8782060336
   10      H       1.8574064908    -1.3357116262    -0.8750256516
 ----------------------------------------------------------------
 Nuclear Repulsion Energy =   124.0503624496 hartrees
 There are       20 alpha and       20 beta electrons

                       Distance Matrix (Angstroms)
             S (  1)   C (  2)   C (  3)   C (  4)   H (  5)   H (  6)
   C (  2)  3.000000
   C (  3)  3.915370  1.460638
   C (  4)  3.915447  1.460638  2.564505
   H (  5)  4.649990  2.103421  1.104223  2.841168
   H (  6)  4.653489  2.104338  1.104191  2.840539  1.753237
   H (  7)  3.708783  2.141446  1.090137  3.488687  1.792668  1.792961
   H (  8)  3.708925  2.141451  3.488691  1.090137  3.828186  3.828214
   H (  9)  4.651254  2.103719  2.840804  1.104213  2.671823  3.194443
   H ( 10)  4.652365  2.104038  2.840897  1.104202  3.196467  2.671249
             H (  7)   H (  8)   H (  9)
   H (  8)  4.282523
   H (  9)  3.828438  1.792767
   H ( 10)  3.827949  1.792862  1.753234
 
 Applying Cartesian multipole field
    Component          Value
    ---------          -----
     (2,0,0)        1.00000E-11
     (0,2,0)        2.00000E-11
     (0,0,2)       -3.00000E-10
 Nucleus-field energy     =     0.0000000041 hartrees
 Requested basis set is 6-31G(d,p)
 There are 35 shells and 94 basis functions
 A cutoff of  1.0D-14 yielded    598 shell pairs
 There are      4444 function pairs
 Smallest overlap matrix eigenvalue = 6.27E-03
 Guess from superposition of atomic densities
 Warning:  Energy on first SCF cycle will be non-variational
 SAD guess density has 40.000000 electrons

 -----------------------------------------------------------------------
  General SCF calculation program by
  Eric Jon Sundstrom, Paul Horn, Yuezhi Mao, Dmitri Zuev, Alec White,
  David Stuck, Shaama M.S., Shane Yost, Joonho Lee, David Small,
  Daniel Levine, Susi Lehtola, Hugh Burton, Evgeny Epifanovsky
 -----------------------------------------------------------------------
 Exchange:     0.2000 Hartree-Fock + 0.0800 Slater + 0.7200 B88
 Correlation:  0.1900 VWN1RPA + 0.8100 LYP
 Using SG-1 standard quadrature grid
 using 12 threads for integral computing
 -------------------------------------------------------
 OpenMP Integral computing Module                
 Release: version 1.0, May 2013, Q-Chem Inc. Pittsburgh 
 -------------------------------------------------------
 -------------------------------------------------------
 OpenMP BLAS3 based DFT computing Module                
 Release: version 1.0, May 2013, Q-Chem Inc. Pittsburgh 
 -------------------------------------------------------
 A unrestricted SCF calculation will be
 performed using DIIS
 SCF converges when DIIS error is below 1.0e-06
 Alpha HF Exchange    Energy =  -4.24065078252378
 Beta HF Exchange     Energy =  -4.24065078252378
 DFT Correlation      Energy =  -1.78786456456138
 DFT Exchange         Energy = -33.42884973143055
 One-Electron (alpha) Energy = -475.05238284229586
 One-Electron (beta)  Energy = -475.05238284229586
 Total Coulomb        Energy = 353.58878486199910
 ---------------------------------------
  Cycle       Energy         DIIS error
 ---------------------------------------
    1    -516.1636342299      2.92e-02  
 Alpha HF Exchange    Energy =  -4.26594256333065
 Beta HF Exchange     Energy =  -4.26594256333065
 DFT Correlation      Energy =  -1.81006704444236
 DFT Exchange         Energy = -33.88759573096308
 One-Electron (alpha) Energy = -478.13872273963437
 One-Electron (beta)  Energy = -478.13872273963472
 Total Coulomb        Energy = 360.83579857379152
    2    -515.6208323539      6.09e-03  
 Alpha HF Exchange    Energy =  -4.25565501481923
 Beta HF Exchange     Energy =  -4.25565501481924
 DFT Correlation      Energy =  -1.80933576882704
 DFT Exchange         Energy = -33.78770614725570
 One-Electron (alpha) Energy = -472.11839829290545
 One-Electron (beta)  Energy = -472.11839829290557
 Total Coulomb        Energy = 353.39454019285472
    3    -510.9002458850      1.76e-02  
 Alpha HF Exchange    Energy =  -4.22659409799894
 Beta HF Exchange     Energy =  -4.22659409799894
 DFT Correlation      Energy =  -1.79359196048164
 DFT Exchange         Energy = -33.57746027154217
 One-Electron (alpha) Energy = -476.19113350545729
 One-Electron (beta)  Energy = -476.19113350545700
 Total Coulomb        Energy = 356.40795577722241
    4    -515.7481892080      4.63e-03  
 Alpha HF Exchange    Energy =  -4.23793555381762
 Beta HF Exchange     Energy =  -4.23793555381762
 DFT Correlation      Energy =  -1.80263717358163
 DFT Exchange         Energy = -33.70371526996685
 One-Electron (alpha) Energy = -476.43435787786797
 One-Electron (beta)  Energy = -476.43435787786808
 Total Coulomb        Energy = 356.93510470482045
    5    -515.8654721484      2.64e-03  
 Alpha HF Exchange    Energy =  -4.23439116743963
 Beta HF Exchange     Energy =  -4.23439116743964
 DFT Correlation      Energy =  -1.80060194076198
 DFT Exchange         Energy = -33.67472326419620
 One-Electron (alpha) Energy = -476.11089492245782
 One-Electron (beta)  Energy = -476.11089492245799
 Total Coulomb        Energy = 356.24661101813626
    6    -515.8689239129      2.31e-03  
 Alpha HF Exchange    Energy =  -4.23752478962518
 Beta HF Exchange     Energy =  -4.23752478962519
 DFT Correlation      Energy =  -1.80078345854032
 DFT Exchange         Energy = -33.68643990107222
 One-Electron (alpha) Energy = -476.37094438931354
 One-Electron (beta)  Energy = -476.37094438931376
 Total Coulomb        Energy = 356.74980692878501
    7    -515.9039923350      8.92e-04  
 Alpha HF Exchange    Energy =  -4.23928666645353
 Beta HF Exchange     Energy =  -4.23928666645354
 DFT Correlation      Energy =  -1.80036490547888
 DFT Exchange         Energy = -33.68688347068148
 One-Electron (alpha) Energy = -476.43704263343062
 One-Electron (beta)  Energy = -476.43704263343079
 Total Coulomb        Energy = 356.87928728234192
    8    -515.9102572399      7.00e-05  
 Alpha HF Exchange    Energy =  -4.23988305907810
 Beta HF Exchange     Energy =  -4.23988305907810
 DFT Correlation      Energy =  -1.80038540018553
 DFT Exchange         Energy = -33.68886443903278
 One-Electron (alpha) Energy = -476.45093396840190
 One-Electron (beta)  Energy = -476.45093396840167
 Total Coulomb        Energy = 356.91026286337535
    9    -515.9102585771      1.04e-04  
 Alpha HF Exchange    Energy =  -4.24007126035410
 Beta HF Exchange     Energy =  -4.24007126035410
 DFT Correlation      Energy =  -1.80037093187139
 DFT Exchange         Energy = -33.68907218844285
 One-Electron (alpha) Energy = -476.44651185638855
 One-Electron (beta)  Energy = -476.44651185638816
 Total Coulomb        Energy = 356.90194931399617
   10    -515.9102975861      8.54e-05  
 Alpha HF Exchange    Energy =  -4.24025960332146
 Beta HF Exchange     Energy =  -4.24025960332146
 DFT Correlation      Energy =  -1.80037411551319
 DFT Exchange         Energy = -33.68934490478021
 One-Electron (alpha) Energy = -476.43761557806056
 One-Electron (beta)  Energy = -476.43761557806050
 Total Coulomb        Energy = 356.88474683130164
   11    -515.9103600981      5.01e-06  
 Alpha HF Exchange    Energy =  -4.24030678049013
 Beta HF Exchange     Energy =  -4.24030678049013
 DFT Correlation      Energy =  -1.80038250773843
 DFT Exchange         Energy = -33.68957932551130
 One-Electron (alpha) Energy = -476.43804362576492
 One-Electron (beta)  Energy = -476.43804362576503
 Total Coulomb        Energy = 356.88593999032162
   12    -515.9103602017      3.83e-06  
 Alpha HF Exchange    Energy =  -4.24029080316766
 Beta HF Exchange     Energy =  -4.24029080316765
 DFT Correlation      Energy =  -1.80038003670378
 DFT Exchange         Energy = -33.68951307878872
 One-Electron (alpha) Energy = -476.43784862036625
 One-Electron (beta)  Energy = -476.43784862036620
 Total Coulomb        Energy = 356.88544920146387
   13    -515.9103603074      1.08e-06  
 Alpha HF Exchange    Energy =  -4.24029011354845
 Beta HF Exchange     Energy =  -4.24029011354845
 DFT Correlation      Energy =  -1.80037976690593
 DFT Exchange         Energy = -33.68951050980275
 One-Electron (alpha) Energy = -476.43796355307154
 One-Electron (beta)  Energy = -476.43796355307154
 Total Coulomb        Energy = 356.88567483981893
   14    -515.9103603164      1.85e-07  Convergence criterion met
 ---------------------------------------
 SCF time:   CPU 26.75s  wall 2.00s 
<S^2> =          0.000000000
 Alpha HF Exchange    Energy =  -4.24029011354845
 Beta HF Exchange     Energy =  -4.24029011354845
 DFT Correlation      Energy =  -1.80037976690593
 DFT Exchange         Energy = -33.68951050980275
 One-Electron (alpha) Energy = -476.43796355307154
 One-Electron (beta)  Energy = -476.43796355307154
 Total Coulomb        Energy = 356.88567483981893
 Nuclear repulsion Energy = 124.05036245369341
 SCF   energy in the final basis set =     -515.9103603164
 Total energy in the final basis set =     -515.9103603164
 
 --------------------------------------------------------------
 
                    Orbital Energies (a.u.)
 --------------------------------------------------------------
 
 Alpha MOs
 -- Occupied --
-88.851 -10.307 -10.236 -10.236  -7.905  -5.877  -5.862  -5.859
 -0.845  -0.752  -0.596  -0.579  -0.486  -0.481  -0.467  -0.440
 -0.418  -0.253  -0.196  -0.194
 -- Virtual --
 -0.133  -0.130   0.063   0.112   0.124   0.126   0.134   0.157
  0.192   0.263   0.342   0.404   0.411   0.434   0.456   0.525
  0.529   0.531   0.543   0.643   0.647   0.682   0.702   0.771
  0.775   0.823   0.825   0.834   0.848   0.851   0.854   0.854
  0.868   0.905   0.939   1.196   1.245   1.320   1.330   1.422
  1.516   1.805   1.826   1.864   1.880   1.886   1.981   1.984
  2.023   2.048   2.055   2.065   2.226   2.288   2.317   2.494
  2.543   2.567   2.642   2.672   2.781   2.805   2.882   2.897
  3.113   3.159   3.337   3.363   3.376   3.422   3.933   4.049
  4.427   4.484
 
 Beta MOs
 -- Occupied --
-88.851 -10.307 -10.236 -10.236  -7.905  -5.877  -5.862  -5.859
 -0.845  -0.752  -0.596  -0.579  -0.486  -0.481  -0.467  -0.440
 -0.418  -0.253  -0.196  -0.194
 -- Virtual --
 -0.133  -0.130   0.063   0.112   0.124   0.126   0.134   0.157
  0.192   0.263   0.342   0.404   0.411   0.434   0.456   0.525
  0.529   0.531   0.543   0.643   0.647   0.682   0.702   0.771
  0.775   0.823   0.825   0.834   0.848   0.851   0.854   0.854
  0.868   0.905   0.939   1.196   1.245   1.320   1.330   1.422
  1.516   1.805   1.826   1.864   1.880   1.886   1.981   1.984
  2.023   2.048   2.055   2.065   2.226   2.288   2.317   2.494
  2.543   2.567   2.642   2.672   2.781   2.805   2.882   2.897
  3.113   3.159   3.337   3.363   3.376   3.422   3.933   4.049
  4.427   4.484
 --------------------------------------------------------------
 
          Ground-State Mulliken Net Atomic Charges

     Atom                 Charge (a.u.)    Spin (a.u.)
  --------------------------------------------------------
      1 S                    -0.364857       0.000000
      2 C                     0.131004      -0.000000
      3 C                    -0.389088      -0.000000
      4 C                    -0.389090      -0.000000
      5 H                     0.158324       0.000000
      6 H                     0.158066      -0.000000
      7 H                     0.189625      -0.000000
      8 H                     0.189622      -0.000000
      9 H                     0.158233       0.000000
     10 H                     0.158160      -0.000000
  --------------------------------------------------------
  Sum of atomic charges =     0.000000
  Sum of spin   charges =     0.000000

 -----------------------------------------------------------------
                    Cartesian Multipole Moments
 -----------------------------------------------------------------
    Charge (ESU x 10^10)
                -0.0000
    Dipole Moment (Debye)
         X       7.2797      Y       0.0006      Z       0.0093
       Tot       7.2797
    Quadrupole Moments (Debye-Ang)
        XX     -37.2460     XY      -0.0009     YY     -30.8958
        XZ      -0.0061     YZ       0.0013     ZZ     -33.7106
    Octopole Moments (Debye-Ang^2)
       XXX      57.7660    XXY       0.0020    XYY      22.8500
       YYY       0.0076    XXZ       0.0478    XYZ       0.0030
       YYZ       0.0510    XZZ      21.5883    YZZ       0.0026
       ZZZ       0.1630
    Hexadecapole Moments (Debye-Ang^3)
      XXXX    -678.2518   XXXY      -0.0171   XXYY    -161.2243
      XYYY      -0.0235   YYYY    -194.9650   XXXZ      -0.3490
      XXYZ       0.0043   XYYZ      -0.1316   YYYZ      -0.0015
      XXZZ    -131.3140   XYZZ      -0.0069   YYZZ     -43.4169
      XZZZ      -0.3848   YZZZ       0.0108   ZZZZ     -53.7688
 -----------------------------------------------------------------
 Calculating analytic gradient of the SCF energy
 Gradient of SCF Energy
            1           2           3           4           5           6
    1  -0.0474104   0.0475356  -0.0001847  -0.0001848   0.0000513   0.0000413
    2  -0.0000042   0.0000039  -0.0001021   0.0001020   0.0000091   0.0000122
    3  -0.0000535   0.0000302   0.0000162   0.0000148  -0.0000129   0.0000044
            7           8           9          10
    1   0.0000290   0.0000295   0.0000477   0.0000455
    2   0.0000412  -0.0000413  -0.0000099  -0.0000109
    3   0.0000020   0.0000002  -0.0000093   0.0000080
 Max gradient component =       4.754E-02
 RMS gradient           =       1.226E-02
 Gradient time:  CPU 6.83 s  wall 0.57 s
 Geometry Optimization Parameters
   NAtoms,    NIC,     NZ,  NCons,   NDum,   NFix, NCnnct, MaxDiis
       10      56       0       1       0       0       0       0

 Cartesian Hessian Update
 Hessian Updated using BFGS Update


** CONSTRAINED OPTIMIZATION IN DELOCALIZED INTERNAL COORDINATES **
   Searching for a Minimum

   Optimization Cycle:   4

                       Coordinates (Angstroms)
     ATOM                X               Y               Z
      1  S        -2.5130967428   -0.0002300988   -0.0034231312
      2  C         0.4869015701   -0.0000007490   -0.0006296829
      3  C         1.1862466300    1.2823329888    0.0002358022
      4  C         1.1865428177   -1.2821723723    0.0003810130
      5  H         1.8523200194    1.3363179741    0.8792927083
      6  H         1.8587336356    1.3355363398   -0.8739319401
      7  H         0.5149534183    2.1412607743   -0.0022830769
      8  H         0.5154511677   -2.1412616446   -0.0006120742
      9  H         1.8542749932   -1.3355045860    0.8782060336
     10  H         1.8574064908   -1.3357116262   -0.8750256516
   Point Group: c1    Number of degrees of freedom:    24


   Energy is   -515.910360316

              Constraints and their Current Values
                                        Value     Constraint
   Distance(Angs):        1   2             3.000000     3.000000
 Hessian Updated using BFGS Update

 21 Hessian modes will be used to form the next step
  Hessian Eigenvalues:
     0.044874    0.045000    0.045000    0.091366    0.091559    0.094868
     0.096626    0.113687    0.160000    0.160006    0.160824    0.165331
     0.250000    0.332205    0.332216    0.332227    0.333244    0.348209
     0.348444    0.369777    0.398298

 Minimum Search - Taking Simple RFO Step
 Searching for Lamda that Minimizes Along All modes
 Value Taken    Lamda =   0.00000000
 Step Taken.  Stepsize is  0.001260

                             Maximum     Tolerance    Cnvgd?
         Gradient           0.000173      0.000300     YES
         Displacement       0.000932      0.001200     YES
         Energy change     -0.000008      0.000001      NO


                       Distance Matrix (Angstroms)
             S (  1)   C (  2)   C (  3)   C (  4)   H (  5)   H (  6)
   C (  2)  3.000000
   C (  3)  3.915370  1.460638
   C (  4)  3.915447  1.460638  2.564505
   H (  5)  4.649990  2.103421  1.104223  2.841168
   H (  6)  4.653489  2.104338  1.104191  2.840539  1.753237
   H (  7)  3.708783  2.141446  1.090137  3.488687  1.792668  1.792961
   H (  8)  3.708925  2.141451  3.488691  1.090137  3.828186  3.828214
   H (  9)  4.651254  2.103719  2.840804  1.104213  2.671823  3.194443
   H ( 10)  4.652365  2.104038  2.840897  1.104202  3.196467  2.671249
             H (  7)   H (  8)   H (  9)
   H (  8)  4.282523
   H (  9)  3.828438  1.792767
   H ( 10)  3.827949  1.792862  1.753234
 
 Final energy is   -515.910360316436     


 ******************************
 **  OPTIMIZATION CONVERGED  **
 ******************************

                       Coordinates (Angstroms)
     ATOM                X               Y               Z
      1  S        -2.5130967428   -0.0002300988   -0.0034231312
      2  C         0.4869015701   -0.0000007490   -0.0006296829
      3  C         1.1862466300    1.2823329888    0.0002358022
      4  C         1.1865428177   -1.2821723723    0.0003810130
      5  H         1.8523200194    1.3363179741    0.8792927083
      6  H         1.8587336356    1.3355363398   -0.8739319401
      7  H         0.5149534183    2.1412607743   -0.0022830769
      8  H         0.5154511677   -2.1412616446   -0.0006120742
      9  H         1.8542749932   -1.3355045860    0.8782060336
     10  H         1.8574064908   -1.3357116262   -0.8750256516

Z-matrix Print:
$molecule
0 1
S 
C  1 3.000000
C  2 1.460638 1 118.615567
H  3 1.090137 2 113.384261 1 0.034865 0
H  3 1.104202 2 109.452861 1 122.711120 0
H  3 1.104213 2 109.426862 1 -122.609950 0
C  2 1.460638 1 118.611079 3 -179.974373 0
H  7 1.090137 2 113.383832 1 -0.116662 0
H  7 1.104191 2 109.477260 1 -122.823339 0
H  7 1.104223 2 109.402625 1 122.497414 0
$end

PES scan, value:    3.0000 energy: -515.9103603164
------- Summary of potential scan: ------ 
    3.0000      -515.9103603164
----------------------------------------- 
Archival summary:
1\1\hpc0249\JobtypUnspecified\ProcedureUnspecified\6-31G**\136\knomura\WedMar1313:51:252019WedMar1313:51:252019\0\\#,JobtypUnspecified,ProcedureUnspecified,6-31G**,\\0,1\S\C,1,3\C,2,1.46064,1,118.616\H,3,1.09014,2,113.384,1,0.0348646,0\H,3,1.1042,2,109.453,1,122.711,0\H,3,1.10421,2,109.427,1,-122.61,0\C,2,1.46064,1,118.611,3,-179.974,0\H,7,1.09014,2,113.384,1,-0.116662,0\H,7,1.10419,2,109.477,1,-122.823,0\H,7,1.10422,2,109.403,1,122.497,0\\\@

 Total job time:  13.75s(wall), 155.79s(cpu) 
 Wed Mar 13 13:51:25 2019

        *************************************************************
        *                                                           *
        *  Thank you very much for using Q-Chem.  Have a nice day.  *
        *                                                           *
        *************************************************************


