
Running Job 1 of 1 thio_ketone/CHOSx.xyz.data/inputs/bond_singlet_1.9.in
qchem thio_ketone/CHOSx.xyz.data/inputs/bond_singlet_1.9.in_3717.0 /staging/scratch/2868766/qchem3717/ 1
/usr/usc/qchem/5.1.1/exe/qcprog.exe_s thio_ketone/CHOSx.xyz.data/inputs/bond_singlet_1.9.in_3717.0 /staging/scratch/2868766/qchem3717/
Check license passed

                  Welcome to Q-Chem
     A Quantum Leap Into The Future Of Chemistry


 Q-Chem 5.1, Q-Chem, Inc., Pleasanton, CA (2018)

 Yihan Shao,  Zhengting Gan,  E. Epifanovsky,  A. T. B. Gilbert,  M. Wormit,  
 J. Kussmann,  A. W. Lange,  A. Behn,  Jia Deng,  Xintian Feng,  D. Ghosh,  
 M. Goldey,  P. R. Horn,  L. D. Jacobson,  I. Kaliman,  T. Kus,  A. Landau,  
 Jie Liu,  E. I. Proynov,  R. M. Richard,  R. P. Steele,  E. J. Sundstrom,  
 H. L. Woodcock III,  P. M. Zimmerman,  D. Zuev,  B. Albrecht,  E. Alguire,  
 S. A. Baeppler,  D. Barton,  Z. Benda,  Y. A. Bernard,  E. J. Berquist,  
 K. B. Bravaya,  H. Burton,  D. Casanova,  Chun-Min Chang,  Yunqing Chen,  
 A. Chien,  K. D. Closser,  M. P. Coons,  S. Coriani,  S. Dasgupta,  
 A. L. Dempwolff,  M. Diedenhofen,  Hainam Do,  R. G. Edgar,  Po-Tung Fang,  
 S. Faraji,  S. Fatehi,  Qingguo Feng,  K. D. Fenk,  J. Fosso-Tande,  
 Qinghui Ge,  A. Ghysels,  G. Gidofalvi,  J. Gomes,  J. Gonthier,  A. Gunina,  
 D. Hait,  M. W. D. Hanson-Heine,  P. H. P. Harbach,  A. W. Hauser,  
 J. E. Herr,  E. G. Hohenstein,  Z. C. Holden,  Kerwin Hui,  B. C. Huynh,  
 T.-C. Jagau,  Hyunjun Ji,  B. Kaduk,  K. Khistyaev,  Jaehoon Kim,  
 P. Klunzinger,  K. Koh,  D. Kosenkov,  L. Koulias,  T. Kowalczyk,  
 C. M. Krauter,  A. Kunitsa,  Ka Un Lao,  A. Laurent,  K. V. Lawler,  
 Joonho Lee,  D. Lefrancois,  S. Lehtola,  D. S. Levine,  Yi-Pei Li,  
 You-Sheng Lin,  Fenglai Liu,  E. Livshits,  A. Luenser,  P. Manohar,  
 E. Mansoor,  S. F. Manzer,  Shan-Ping Mao,  Yuezhi Mao,  N. Mardirossian,  
 A. V. Marenich,  T. Markovich,  L. A. Martinez-Martinez,  S. A. Maurer,  
 N. J. Mayhall,  S. C. McKenzie,  J.-M. Mewes,  A. F. Morrison,  
 J. W. Mullinax,  K. Nanda,  T. S. Nguyen-Beck,  R. Olivares-Amaya,  
 J. A. Parkhill,  T. M. Perrine,  F. Plasser,  P. Pokhilko,  S. Prager,  
 A. Prociuk,  E. Ramos,  D. R. Rehn,  F. Rob,  M. Schneider,  N. Sergueev,  
 S. M. Sharada,  S. Sharma,  D. W. Small,  T. Stauch,  T. Stein,  
 Yu-Chuan Su,  A. J. W. Thom,  A. Tkatchenko,  T. Tsuchimochi,  N. M. Tubman,  
 L. Vogt,  M. L. Vidal,  O. Vydrov,  M. A. Watson,  J. Wenzel,  
 M. de Wergifosse,  T. A. Wesolowski,  A. White,  J. Witte,  A. Yamada,  
 Jun Yang,  K. Yao,  S. Yeganeh,  S. R. Yost,  Zhi-Qiang You,  A. Zech,  
 Igor Ying Zhang,  Xing Zhang,  Yan Zhao,  Ying Zhu,  B. R. Brooks,  
 G. K. L. Chan,  C. J. Cramer,  M. S. Gordon,  W. J. Hehre,  A. Klamt,  
 M. W. Schmidt,  C. D. Sherrill,  D. G. Truhlar,  A. Aspuru-Guzik,  R. Baer,  
 A. T. Bell,  N. A. Besley,  Jeng-Da Chai,  A. E. DePrince, III,  
 R. A. DiStasio Jr.,  A. Dreuw,  B. D. Dunietz,  T. R. Furlani,  
 Chao-Ping Hsu,  Yousung Jung,  Jing Kong,  D. S. Lambrecht,  WanZhen Liang,  
 C. Ochsenfeld,  V. A. Rassolov,  L. V. Slipchenko,  J. E. Subotnik,  
 T. Van Voorhis,  J. M. Herbert,  A. I. Krylov,  P. M. W. Gill,  M. Head-Gordon

 Contributors to earlier versions of Q-Chem not listed above: 
 R. D. Adamson,  B. Austin,  J. Baker,  G. J. O. Beran,  K. Brandhorst,  
 S. T. Brown,  E. F. C. Byrd,  A. K. Chakraborty,  C.-L. Cheng,  
 Siu Hung Chien,  D. M. Chipman,  D. L. Crittenden,  H. Dachsel,  
 R. J. Doerksen,  A. D. Dutoi,  L. Fusti-Molnar,  W. A. Goddard III,  
 A. Golubeva-Zadorozhnaya,  S. R. Gwaltney,  G. Hawkins,  A. Heyden,  
 S. Hirata,  G. Kedziora,  F. J. Keil,  C. Kelley,  Jihan Kim,  R. A. King,  
 R. Z. Khaliullin,  P. P. Korambath,  W. Kurlancheek,  A. M. Lee,  M. S. Lee,  
 S. V. Levchenko,  Ching Yeh Lin,  D. Liotard,  R. C. Lochan,  I. Lotan,  
 P. E. Maslen,  N. Nair,  D. P. O'Neill,  D. Neuhauser,  E. Neuscamman,  
 C. M. Oana,  R. Olson,  B. Peters,  R. Peverati,  P. A. Pieniazek,  
 Y. M. Rhee,  J. Ritchie,  M. A. Rohrdanz,  E. Rosta,  N. J. Russ,  
 H. F. Schaefer III,  N. E. Schultz,  N. Shenvi,  A. C. Simmonett,  A. Sodt,  
 D. Stuck,  K. S. Thanthiriwatte,  V. Vanovschi,  Tao Wang,  A. Warshel,  
 C. F. Williams,  Q. Wu,  X. Xu,  W. Zhang

 Please cite Q-Chem as follows:
 Y. Shao et al., Mol. Phys. 113, 184-215 (2015)
 DOI: 10.1080/00268976.2014.952696

 Q-Chem 5.1.1 for Intel X86 EM64T Linux

 Parts of Q-Chem use Armadillo 8.300.2 (Tropical Shenanigans).
 http://arma.sourceforge.net/

 Q-Chem begins on Wed Mar 13 13:48:29 2019  

Host: 
0

     Scratch files written to /staging/scratch/2868766/qchem3717//
 Aug318 |scratch|qcdevops|jenkins|workspace|build_RNUM 6013   
Processing $rem in /usr/usc/qchem/5.1.1/config/preferences.
 MEM_TOTAL  2000 
Input Ideriv = 2
Curr. Ideriv = -1
Max.  Ideriv = 2

Checking the input file for inconsistencies... 	...done.

--------------------------------------------------------------
User input:
--------------------------------------------------------------

$comment
potential surface scanner
$end

$rem
JOBTYPE  PES_SCAN
UNRESTRICTED TRUE
SYM_IGNORE  TRUE
GEOM_OPT_MAX_CYCLES 400
SCF_MAX_CYCLES 400
METHOD   B3LYP
BASIS   6-31G**
PDB_PRINT 2
SCF_CONVERGENCE 6
THRESH 14
SCF_PRINT 1
$end
$molecule
0 1
S -1.486772 -0.000191 -0.001764
C 0.313228 -0.000004 -0.000595
C 1.081047 1.280282 0.000226
C 1.081320 -1.280127 0.000258
H 1.737467 1.322072 0.880880
H 1.743369 1.320228 -0.876044
H 0.424104 2.148658 -0.002680
H 0.424561 -2.148646 -0.001403
H 1.738824 -1.321234 0.880131
H 1.742582 -1.320470 -0.876799
$end
$scan
stre 1 2 1.900000 1.901000 0.100000
$end
--------------------------------------------------------------
 ----------------------------------------------------------------
             Standard Nuclear Orientation (Angstroms)
    I     Atom           X                Y                Z
 ----------------------------------------------------------------
    1      S      -1.4867720000    -0.0001910000    -0.0017640000
    2      C       0.3132280000    -0.0000040000    -0.0005950000
    3      C       1.0810470000     1.2802820000     0.0002260000
    4      C       1.0813200000    -1.2801270000     0.0002580000
    5      H       1.7374670000     1.3220720000     0.8808800000
    6      H       1.7433690000     1.3202280000    -0.8760440000
    7      H       0.4241040000     2.1486580000    -0.0026800000
    8      H       0.4245610000    -2.1486460000    -0.0014030000
    9      H       1.7388240000    -1.3212340000     0.8801310000
   10      H       1.7425820000    -1.3204700000    -0.8767990000
 ----------------------------------------------------------------
 Nuclear Repulsion Energy =   147.7062235508 hartrees
 There are       20 alpha and       20 beta electrons
 Requested basis set is 6-31G(d,p)
 There are 35 shells and 94 basis functions

 Total QAlloc Memory Limit   2000 MB
 Mega-Array Size       188 MB
 MEM_STATIC part       192 MB
A total of 1 constraints
  
            1
    1   1.0100000
    2   1.0100000
    3   2.0100000
    4   1.9000000
    5   1.9010000
    6   0.1000000
    7   0.0000000
    8   0.0000000
    9   0.0000000
   10   0.0000000

                       Distance Matrix (Angstroms)
             S (  1)   C (  2)   C (  3)   C (  4)   H (  5)   H (  6)
   C (  2)  1.800000
   C (  3)  2.869374  1.492876
   C (  4)  2.869379  1.492877  2.560409
   H (  5)  3.594879  2.133856  1.099175  2.824440
   H (  6)  3.597455  2.134181  1.099143  2.822775  1.756935
   H (  7)  2.875587  2.151522  1.088880  3.491204  1.785734  1.785923
   H (  8)  2.875596  2.151525  3.491207  1.088880  3.814188  3.812786
   H (  9)  3.595464  2.133929  2.823967  1.099171  2.643306  3.171986
   H ( 10)  3.596881  2.134108  2.823245  1.099147  3.173719  2.640698
             H (  7)   H (  8)   H (  9)
   H (  8)  4.297304
   H (  9)  3.814183  1.785777
   H ( 10)  3.812783  1.785882  1.756934
 
 A cutoff of  1.0D-14 yielded    618 shell pairs
 There are      4559 function pairs
 
 -------------------------------------------------------
 OpenMP Integral Computing Module                       
 Release: version 1.0, May 2013, Q-Chem Inc. Pittsburgh 
 -------------------------------------------------------
 Integral Job Info:
 Integral job number is                      11
 Integral operator is                         1
 short-range coefficients                     0
 long-range coefficients              100000000
 Omega coefficients                           0
 if combine SR and LR in K                    0
 Integral screening is                        0
 Integral computing path is                   2
 max size of driver memory is            800000
 size of driver memory is                593474
 size of scratch memory is             15267112
 max col of scratch BK array               1296
 max len of scratch array in speh3          155
 max len of scratch index in speh4           18
 max int batch size is                      520
 min int batch size is                       52
 fixed nKL is                                52
 max L of basis functions is                  2
 order of int derivative is                   0
 number of shells is                         35
 number of basis is                          94
 number of cartesian basis is                94
 number of contracted shell pairs           618
 number of primitive shell pairs           2429
 maxK2 (contraction) of shell pair           36
 max number of K2 of shell pair               1
 max number of CS2 of shell pair             48
 max number of PS2 of shell pair            216
 mem total for path MDJ                  514716
 -------------------------------------------------------
 Smallest overlap matrix eigenvalue = 6.75E-03

 Scale SEOQF with 1.000000e-01/1.000000e-01/1.000000e+00

 Standard Electronic Orientation quadrupole field applied
 Nucleus-field energy     =     0.0000000015 hartrees
 Guess from superposition of atomic densities
 Warning:  Energy on first SCF cycle will be non-variational
 SAD guess density has 40.000000 electrons

 -----------------------------------------------------------------------
  General SCF calculation program by
  Eric Jon Sundstrom, Paul Horn, Yuezhi Mao, Dmitri Zuev, Alec White,
  David Stuck, Shaama M.S., Shane Yost, Joonho Lee, David Small,
  Daniel Levine, Susi Lehtola, Hugh Burton, Evgeny Epifanovsky
 -----------------------------------------------------------------------
 Exchange:     0.2000 Hartree-Fock + 0.0800 Slater + 0.7200 B88
 Correlation:  0.1900 VWN1RPA + 0.8100 LYP
 Using SG-1 standard quadrature grid
 using 12 threads for integral computing
 -------------------------------------------------------
 OpenMP Integral computing Module                
 Release: version 1.0, May 2013, Q-Chem Inc. Pittsburgh 
 -------------------------------------------------------
 -------------------------------------------------------
 OpenMP BLAS3 based DFT computing Module                
 Release: version 1.0, May 2013, Q-Chem Inc. Pittsburgh 
 -------------------------------------------------------
 A unrestricted SCF calculation will be
 performed using DIIS
 SCF converges when DIIS error is below 1.0e-06
 Alpha HF Exchange    Energy =  -4.27408724353355
 Beta HF Exchange     Energy =  -4.27408724353355
 DFT Correlation      Energy =  -1.80386229404276
 DFT Exchange         Energy = -33.49586525880469
 One-Electron (alpha) Energy = -498.65098421941485
 One-Electron (beta)  Energy = -498.65098421941485
 Total Coulomb        Energy = 376.97734210193551
 ---------------------------------------
  Cycle       Energy         DIIS error
 ---------------------------------------
    1    -516.4663048245      3.13e-02  
 Alpha HF Exchange    Energy =  -4.28220269860407
 Beta HF Exchange     Energy =  -4.28220269860407
 DFT Correlation      Energy =  -1.82820667674180
 DFT Exchange         Energy = -33.99191978898866
 One-Electron (alpha) Energy = -501.79158722763015
 One-Electron (beta)  Energy = -501.79158722763015
 Total Coulomb        Energy = 384.23279186703758
    2    -516.0286908989      3.97e-03  
 Alpha HF Exchange    Energy =  -4.23582662713825
 Beta HF Exchange     Energy =  -4.23582662713825
 DFT Correlation      Energy =  -1.80875332814074
 DFT Exchange         Energy = -33.61715057337675
 One-Electron (alpha) Energy = -498.86884673436748
 One-Electron (beta)  Energy = -498.86884673436737
 Total Coulomb        Energy = 377.93479640204453
    3    -515.9942306702      4.83e-03  
 Alpha HF Exchange    Energy =  -4.25394633331917
 Beta HF Exchange     Energy =  -4.25394633331917
 DFT Correlation      Energy =  -1.81475370211766
 DFT Exchange         Energy = -33.75099403130877
 One-Electron (alpha) Energy = -500.02101866845504
 One-Electron (beta)  Energy = -500.02101866845493
 Total Coulomb        Energy = 380.32556351731432
    4    -516.0838906674      2.00e-03  
 Alpha HF Exchange    Energy =  -4.25614684432500
 Beta HF Exchange     Energy =  -4.25614684432500
 DFT Correlation      Energy =  -1.81750694799974
 DFT Exchange         Energy = -33.77951262694031
 One-Electron (alpha) Energy = -500.24601746515083
 One-Electron (beta)  Energy = -500.24601746515077
 Total Coulomb        Energy = 380.79026106117567
    5    -516.1048635804      3.02e-04  
 Alpha HF Exchange    Energy =  -4.25668881614215
 Beta HF Exchange     Energy =  -4.25668881614215
 DFT Correlation      Energy =  -1.81746415714219
 DFT Exchange         Energy = -33.78293476437359
 One-Electron (alpha) Energy = -500.29001068433291
 One-Electron (beta)  Energy = -500.29001068433303
 Total Coulomb        Energy = 380.88220685086094
    6    -516.1053675193      6.26e-05  
 Alpha HF Exchange    Energy =  -4.25639926995839
 Beta HF Exchange     Energy =  -4.25639926995839
 DFT Correlation      Energy =  -1.81736216258630
 DFT Exchange         Energy = -33.78054263459596
 One-Electron (alpha) Energy = -500.25843468190925
 One-Electron (beta)  Energy = -500.25843468190902
 Total Coulomb        Energy = 380.81595929798414
    7    -516.1053898507      1.17e-05  
 Alpha HF Exchange    Energy =  -4.25643717793386
 Beta HF Exchange     Energy =  -4.25643717793386
 DFT Correlation      Energy =  -1.81737686050114
 DFT Exchange         Energy = -33.78082919839966
 One-Electron (alpha) Energy = -500.26329493963192
 One-Electron (beta)  Energy = -500.26329493963163
 Total Coulomb        Energy = 380.82605613441717
    8    -516.1053906073      1.44e-06  
 Alpha HF Exchange    Energy =  -4.25643686278692
 Beta HF Exchange     Energy =  -4.25643686278692
 DFT Correlation      Energy =  -1.81737619074014
 DFT Exchange         Energy = -33.78082307224268
 One-Electron (alpha) Energy = -500.26317871961061
 One-Electron (beta)  Energy = -500.26317871961072
 Total Coulomb        Energy = 380.82581625654120
    9    -516.1053906190      2.85e-07  Convergence criterion met
 ---------------------------------------
 SCF time:   CPU 18.46s  wall 2.00s 
<S^2> =         -0.000000000
 Alpha HF Exchange    Energy =  -4.25643686278692
 Beta HF Exchange     Energy =  -4.25643686278692
 DFT Correlation      Energy =  -1.81737619074014
 DFT Exchange         Energy = -33.78082307224268
 One-Electron (alpha) Energy = -500.26317871961061
 One-Electron (beta)  Energy = -500.26317871961072
 Total Coulomb        Energy = 380.82581625654120
 Nuclear repulsion Energy = 147.70622355227036
 SCF   energy in the final basis set =     -516.1053906190
 Total energy in the final basis set =     -516.1053906190
 
 --------------------------------------------------------------
 
                    Orbital Energies (a.u.)
 --------------------------------------------------------------
 
 Alpha MOs
 -- Occupied --
-88.858 -10.282 -10.207 -10.207  -7.916  -5.880  -5.879  -5.871
 -0.825  -0.720  -0.680  -0.538  -0.458  -0.451  -0.445  -0.411
 -0.385  -0.341  -0.262  -0.215
 -- Virtual --
 -0.086   0.057   0.082   0.139   0.147   0.153   0.162   0.174
  0.220   0.243   0.319   0.382   0.397   0.429   0.486   0.496
  0.550   0.568   0.591   0.639   0.686   0.724   0.727   0.778
  0.812   0.818   0.846   0.866   0.885   0.894   0.895   0.926
  0.935   1.012   1.042   1.238   1.283   1.384   1.427   1.665
  1.701   1.820   1.857   1.864   1.881   1.978   2.011   2.017
  2.046   2.078   2.081   2.113   2.284   2.326   2.360   2.508
  2.564   2.573   2.678   2.685   2.802   2.840   2.892   2.917
  3.153   3.196   3.374   3.395   3.412   3.448   3.923   4.142
  4.461   4.514
 
 Beta MOs
 -- Occupied --
-88.858 -10.282 -10.207 -10.207  -7.916  -5.880  -5.879  -5.871
 -0.825  -0.720  -0.680  -0.538  -0.458  -0.451  -0.445  -0.411
 -0.385  -0.341  -0.262  -0.215
 -- Virtual --
 -0.086   0.057   0.082   0.139   0.147   0.153   0.162   0.174
  0.220   0.243   0.319   0.382   0.397   0.429   0.486   0.496
  0.550   0.568   0.591   0.639   0.686   0.724   0.727   0.778
  0.812   0.818   0.846   0.866   0.885   0.894   0.895   0.926
  0.935   1.012   1.042   1.238   1.283   1.384   1.427   1.665
  1.701   1.820   1.857   1.864   1.881   1.978   2.011   2.017
  2.046   2.078   2.081   2.113   2.284   2.326   2.360   2.508
  2.564   2.573   2.678   2.685   2.802   2.840   2.892   2.917
  3.153   3.196   3.374   3.395   3.412   3.448   3.923   4.142
  4.461   4.514
 --------------------------------------------------------------
 
          Ground-State Mulliken Net Atomic Charges

     Atom                 Charge (a.u.)    Spin (a.u.)
  --------------------------------------------------------
      1 S                    -0.160822       0.000000
      2 C                    -0.022770      -0.000000
      3 C                    -0.336678       0.000000
      4 C                    -0.336679       0.000000
      5 H                     0.136243       0.000000
      6 H                     0.136055       0.000000
      7 H                     0.156176      -0.000000
      8 H                     0.156176      -0.000000
      9 H                     0.136196      -0.000000
     10 H                     0.136102       0.000000
  --------------------------------------------------------
  Sum of atomic charges =    -0.000000
  Sum of spin   charges =     0.000000

 -----------------------------------------------------------------
                    Cartesian Multipole Moments
 -----------------------------------------------------------------
    Charge (ESU x 10^10)
                -0.0000
    Dipole Moment (Debye)
         X       3.6599      Y       0.0004      Z       0.0041
       Tot       3.6599
    Quadrupole Moments (Debye-Ang)
        XX     -33.3375     XY      -0.0003     YY     -31.7293
        XZ      -0.0011     YZ       0.0006     ZZ     -32.5330
    Octopole Moments (Debye-Ang^2)
       XXX       8.7011    XXY       0.0009    XYY       5.6388
       YYY       0.0051    XXZ       0.0193    XYZ       0.0014
       YYZ       0.0224    XZZ       3.7684    YZZ       0.0016
       ZZZ       0.0776
    Hexadecapole Moments (Debye-Ang^3)
      XXXX    -332.9112   XXXY      -0.0050   XXYY     -95.5781
      XYYY      -0.0094   YYYY    -200.9347   XXXZ      -0.1428
      XXYZ       0.0017   XYYZ      -0.0349   YYYZ      -0.0032
      XXZZ     -61.1847   XYZZ      -0.0019   YYZZ     -43.6808
      XZZZ      -0.0980   YZZZ       0.0052   ZZZZ     -50.3946
 -----------------------------------------------------------------
 Calculating analytic gradient of the SCF energy
 Gradient of SCF Energy
            1           2           3           4           5           6
    1  -0.0762898   0.0763142   0.0001765   0.0001765  -0.0001031  -0.0000969
    2  -0.0000081   0.0000083  -0.0000066   0.0000060  -0.0000231  -0.0000268
    3  -0.0000413   0.0000489  -0.0000046  -0.0000060   0.0000391  -0.0000356
            7           8           9          10
    1   0.0000110   0.0000113  -0.0001019  -0.0000977
    2  -0.0000029   0.0000030   0.0000239   0.0000263
    3  -0.0000029  -0.0000017   0.0000395  -0.0000354
 Max gradient component =       7.631E-02
 RMS gradient           =       1.970E-02
 Gradient time:  CPU 7.46 s  wall 0.64 s
 Geometry Optimization Parameters
   NAtoms,    NIC,     NZ,  NCons,   NDum,   NFix, NCnnct, MaxDiis
       10      56       0       1       0       0       0       0


** CONSTRAINED OPTIMIZATION IN DELOCALIZED INTERNAL COORDINATES **
   Searching for a Minimum

   Optimization Cycle:   1

                       Coordinates (Angstroms)
     ATOM                X               Y               Z
      1  S        -1.4867720000   -0.0001910000   -0.0017640000
      2  C         0.3132280000   -0.0000040000   -0.0005950000
      3  C         1.0810470000    1.2802820000    0.0002260000
      4  C         1.0813200000   -1.2801270000    0.0002580000
      5  H         1.7374670000    1.3220720000    0.8808800000
      6  H         1.7433690000    1.3202280000   -0.8760440000
      7  H         0.4241040000    2.1486580000   -0.0026800000
      8  H         0.4245610000   -2.1486460000   -0.0014030000
      9  H         1.7388240000   -1.3212340000    0.8801310000
     10  H         1.7425820000   -1.3204700000   -0.8767990000
   Point Group: c1    Number of degrees of freedom:    24


   Energy is   -516.105390619

              Constraints and their Current Values
                                        Value     Constraint
   Distance(Angs):        1   2             1.800000     1.900000

 Attempting to Generate Delocalized Internal Coordinates

   Using Lagrange Multiplier Algorithm


 25 Hessian modes will be used to form the next step
  Hessian Eigenvalues:
    -0.877907    0.045000    0.045000    0.045000    0.092833    0.092833
     0.095962    0.095962    0.160000    0.160000    0.160000    0.160000
     0.160000    0.160000    0.250000    0.250000    0.331363    0.331364
     0.337735    0.337739    0.337766    0.337771    0.349424    0.349424
     1.139073

 Minimum Search - Taking P-RFO Step
 Searching for Lamda that Maximizes Along the Constraint modes Only
 Value Taken    Lamda =   0.04029158
 Searching for Lamda that Minimizes Along All other modes
 Value Taken    Lamda =  -0.00396785
 Step Taken.  Stepsize is  0.182484

                             Maximum     Tolerance    Cnvgd?
         Gradient            0.188972       0.000300      NO
         Displacement        0.182475       0.001200      NO
         Energy change     *********       0.000001      NO


 New Cartesian Coordinates Obtained by Inverse Iteration

 Displacement from previous Coordinates is:  0.173145
 ----------------------------------------------------------------
             Standard Nuclear Orientation (Angstroms)
    I     Atom           X                Y                Z
 ----------------------------------------------------------------
    1      S      -1.5736826741    -0.0002003196    -0.0019038588
    2      C       0.3228788103    -0.0000032028    -0.0005960597
    3      C       1.0905459767     1.2804791982     0.0002425747
    4      C       1.0908191326    -1.2803218521     0.0002774878
    5      H       1.7474090703     1.3226205974     0.8806091385
    6      H       1.7532424412     1.3208284696    -0.8757862711
    7      H       0.4334193982     2.1487333233    -0.0026204576
    8      H       0.4338763395    -2.1487190255    -0.0013552749
    9      H       1.7487518390    -1.3217868541     0.8798719365
   10      H       1.7524696665    -1.3210623343    -0.8765292154
 ----------------------------------------------------------------
 Nuclear Repulsion Energy =   144.8718728521 hartrees
 There are       20 alpha and       20 beta electrons

                       Distance Matrix (Angstroms)
             S (  1)   C (  2)   C (  3)   C (  4)   H (  5)   H (  6)
   C (  2)  1.896562
   C (  3)  2.956055  1.492966
   C (  4)  2.956059  1.492966  2.560801
   H (  5)  3.682164  2.134278  1.099223  2.825138
   H (  6)  3.684728  2.134595  1.099191  2.823522  1.756406
   H (  7)  2.940472  2.151579  1.088893  3.491504  1.785812  1.785995
   H (  8)  2.940481  2.151581  3.491507  1.088894  3.814896  3.813544
   H (  9)  3.682756  2.134350  2.824672  1.099218  2.644408  3.172660
   H ( 10)  3.684146  2.134522  2.823985  1.099196  3.174369  2.641891
             H (  7)   H (  8)   H (  9)
   H (  8)  4.297453
   H (  9)  3.814892  1.785854
   H ( 10)  3.813541  1.785954  1.756405
 
 Applying Cartesian multipole field
    Component          Value
    ---------          -----
     (2,0,0)        1.00000E-11
     (0,2,0)        2.00000E-11
     (0,0,2)       -3.00000E-10
 Nucleus-field energy     =     0.0000000017 hartrees
 Requested basis set is 6-31G(d,p)
 There are 35 shells and 94 basis functions
 A cutoff of  1.0D-14 yielded    613 shell pairs
 There are      4510 function pairs
 Smallest overlap matrix eigenvalue = 6.75E-03
 Guess from superposition of atomic densities
 Warning:  Energy on first SCF cycle will be non-variational
 SAD guess density has 40.000000 electrons

 -----------------------------------------------------------------------
  General SCF calculation program by
  Eric Jon Sundstrom, Paul Horn, Yuezhi Mao, Dmitri Zuev, Alec White,
  David Stuck, Shaama M.S., Shane Yost, Joonho Lee, David Small,
  Daniel Levine, Susi Lehtola, Hugh Burton, Evgeny Epifanovsky
 -----------------------------------------------------------------------
 Exchange:     0.2000 Hartree-Fock + 0.0800 Slater + 0.7200 B88
 Correlation:  0.1900 VWN1RPA + 0.8100 LYP
 Using SG-1 standard quadrature grid
 using 12 threads for integral computing
 -------------------------------------------------------
 OpenMP Integral computing Module                
 Release: version 1.0, May 2013, Q-Chem Inc. Pittsburgh 
 -------------------------------------------------------
 -------------------------------------------------------
 OpenMP BLAS3 based DFT computing Module                
 Release: version 1.0, May 2013, Q-Chem Inc. Pittsburgh 
 -------------------------------------------------------
 A unrestricted SCF calculation will be
 performed using DIIS
 SCF converges when DIIS error is below 1.0e-06
 Alpha HF Exchange    Energy =  -4.26597073363332
 Beta HF Exchange     Energy =  -4.26597073363332
 DFT Correlation      Energy =  -1.80149552491915
 DFT Exchange         Energy = -33.47916701510305
 One-Electron (alpha) Energy = -495.84340931050536
 One-Electron (beta)  Energy = -495.84340931050536
 Total Coulomb        Energy = 374.24252081164809
 ---------------------------------------
  Cycle       Energy         DIIS error
 ---------------------------------------
    1    -516.3850289629      3.05e-02  
 Alpha HF Exchange    Energy =  -4.27815702839491
 Beta HF Exchange     Energy =  -4.27815702839491
 DFT Correlation      Energy =  -1.82515418741464
 DFT Exchange         Energy = -33.96296891216561
 One-Electron (alpha) Energy = -498.91257446489982
 One-Electron (beta)  Energy = -498.91257446489988
 Total Coulomb        Energy = 381.29351628511301
    2    -516.0041969473      4.12e-03  
 Alpha HF Exchange    Energy =  -4.23453362075358
 Beta HF Exchange     Energy =  -4.23453362075358
 DFT Correlation      Energy =  -1.80801325596158
 DFT Exchange         Energy = -33.61646214954999
 One-Electron (alpha) Energy = -496.03458378196478
 One-Electron (beta)  Energy = -496.03458378196490
 Total Coulomb        Energy = 375.22453577959413
    3    -515.8663015776      6.62e-03  
 Alpha HF Exchange    Energy =  -4.24734408893777
 Beta HF Exchange     Energy =  -4.24734408893778
 DFT Correlation      Energy =  -1.81011656447018
 DFT Exchange         Energy = -33.69928391545622
 One-Electron (alpha) Energy = -497.00112632127497
 One-Electron (beta)  Energy = -497.00112632127519
 Total Coulomb        Energy = 377.09607246789852
    4    -516.0383959787      3.02e-03  
 Alpha HF Exchange    Energy =  -4.25151356026660
 Beta HF Exchange     Energy =  -4.25151356026659
 DFT Correlation      Energy =  -1.81478892481011
 DFT Exchange         Energy = -33.75104549029546
 One-Electron (alpha) Energy = -497.37977513709586
 One-Electron (beta)  Energy = -497.37977513709563
 Total Coulomb        Energy = 377.86807330634679
    5    -516.0884656498      3.53e-04  
 Alpha HF Exchange    Energy =  -4.25244138473767
 Beta HF Exchange     Energy =  -4.25244138473767
 DFT Correlation      Energy =  -1.81484539173350
 DFT Exchange         Energy = -33.75743776434998
 One-Electron (alpha) Energy = -497.44687181226493
 One-Electron (beta)  Energy = -497.44687181226493
 Total Coulomb        Energy = 378.00986272962177
    6    -516.0891739667      7.33e-05  
 Alpha HF Exchange    Energy =  -4.25206487123901
 Beta HF Exchange     Energy =  -4.25206487123901
 DFT Correlation      Energy =  -1.81471398342625
 DFT Exchange         Energy = -33.75430272840350
 One-Electron (alpha) Energy = -497.40831939022974
 One-Electron (beta)  Energy = -497.40831939022956
 Total Coulomb        Energy = 377.92871002235654
    7    -516.0892023587      2.05e-05  
 Alpha HF Exchange    Energy =  -4.25211976563044
 Beta HF Exchange     Energy =  -4.25211976563045
 DFT Correlation      Energy =  -1.81473224515443
 DFT Exchange         Energy = -33.75469750353631
 One-Electron (alpha) Energy = -497.41540674787382
 One-Electron (beta)  Energy = -497.41540674787399
 Total Coulomb        Energy = 377.94340501518263
    8    -516.0892049068      3.69e-06  
 Alpha HF Exchange    Energy =  -4.25211958266220
 Beta HF Exchange     Energy =  -4.25211958266219
 DFT Correlation      Energy =  -1.81473014314984
 DFT Exchange         Energy = -33.75468072678571
 One-Electron (alpha) Energy = -497.41521888441974
 One-Electron (beta)  Energy = -497.41521888441952
 Total Coulomb        Energy = 377.94300996474334
    9    -516.0892049856      4.93e-07  Convergence criterion met
 ---------------------------------------
 SCF time:   CPU 18.55s  wall 1.00s 
<S^2> =         -0.000000000
 Alpha HF Exchange    Energy =  -4.25211958266220
 Beta HF Exchange     Energy =  -4.25211958266219
 DFT Correlation      Energy =  -1.81473014314984
 DFT Exchange         Energy = -33.75468072678571
 One-Electron (alpha) Energy = -497.41521888441974
 One-Electron (beta)  Energy = -497.41521888441952
 Total Coulomb        Energy = 377.94300996474334
 Nuclear repulsion Energy = 144.87187285372758
 SCF   energy in the final basis set =     -516.0892049856
 Total energy in the final basis set =     -516.0892049856
 
 --------------------------------------------------------------
 
                    Orbital Energies (a.u.)
 --------------------------------------------------------------
 
 Alpha MOs
 -- Occupied --
-88.860 -10.290 -10.211 -10.211  -7.916  -5.881  -5.879  -5.871
 -0.823  -0.723  -0.667  -0.543  -0.461  -0.455  -0.445  -0.414
 -0.387  -0.334  -0.252  -0.214
 -- Virtual --
 -0.095   0.032   0.080   0.136   0.145   0.150   0.160   0.173
  0.216   0.246   0.323   0.383   0.388   0.424   0.483   0.496
  0.549   0.561   0.591   0.632   0.676   0.724   0.731   0.782
  0.816   0.821   0.844   0.862   0.864   0.892   0.896   0.907
  0.932   1.004   1.020   1.237   1.279   1.379   1.402   1.646
  1.677   1.817   1.851   1.858   1.873   1.943   2.008   2.014
  2.043   2.075   2.078   2.100   2.281   2.315   2.358   2.505
  2.556   2.572   2.676   2.681   2.799   2.835   2.890   2.909
  3.149   3.193   3.370   3.392   3.408   3.443   3.914   4.118
  4.457   4.509
 
 Beta MOs
 -- Occupied --
-88.860 -10.290 -10.211 -10.211  -7.916  -5.881  -5.879  -5.871
 -0.823  -0.723  -0.667  -0.543  -0.461  -0.455  -0.445  -0.414
 -0.387  -0.334  -0.252  -0.214
 -- Virtual --
 -0.095   0.032   0.080   0.136   0.145   0.150   0.160   0.173
  0.216   0.246   0.323   0.383   0.388   0.424   0.483   0.496
  0.549   0.561   0.591   0.632   0.676   0.724   0.731   0.782
  0.816   0.821   0.844   0.862   0.864   0.892   0.896   0.907
  0.932   1.004   1.020   1.237   1.279   1.379   1.402   1.646
  1.677   1.817   1.851   1.858   1.873   1.943   2.008   2.014
  2.043   2.075   2.078   2.100   2.281   2.315   2.358   2.505
  2.556   2.572   2.676   2.681   2.799   2.835   2.890   2.909
  3.149   3.193   3.370   3.392   3.408   3.443   3.914   4.118
  4.457   4.509
 --------------------------------------------------------------
 
          Ground-State Mulliken Net Atomic Charges

     Atom                 Charge (a.u.)    Spin (a.u.)
  --------------------------------------------------------
      1 S                    -0.179878      -0.000000
      2 C                    -0.018017      -0.000000
      3 C                    -0.340285       0.000000
      4 C                    -0.340286       0.000000
      5 H                     0.139434      -0.000000
      6 H                     0.139247      -0.000000
      7 H                     0.160552      -0.000000
      8 H                     0.160552      -0.000000
      9 H                     0.139387      -0.000000
     10 H                     0.139295      -0.000000
  --------------------------------------------------------
  Sum of atomic charges =    -0.000000
  Sum of spin   charges =    -0.000000

 -----------------------------------------------------------------
                    Cartesian Multipole Moments
 -----------------------------------------------------------------
    Charge (ESU x 10^10)
                -0.0000
    Dipole Moment (Debye)
         X       3.9944      Y       0.0004      Z       0.0045
       Tot       3.9944
    Quadrupole Moments (Debye-Ang)
        XX     -33.4917     XY      -0.0004     YY     -31.6409
        XZ      -0.0014     YZ       0.0006     ZZ     -32.7322
    Octopole Moments (Debye-Ang^2)
       XXX      12.6467    XXY       0.0010    XYY       7.2341
       YYY       0.0056    XXZ       0.0213    XYZ       0.0015
       YYZ       0.0246    XZZ       5.2251    YZZ       0.0017
       ZZZ       0.0841
    Hexadecapole Moments (Debye-Ang^3)
      XXXX    -355.0083   XXXY      -0.0063   XXYY     -99.5561
      XYYY      -0.0110   YYYY    -199.9872   XXXZ      -0.1577
      XXYZ       0.0019   XYYZ      -0.0409   YYYZ      -0.0031
      XXZZ     -65.3973   XYZZ      -0.0024   YYZZ     -43.6562
      XZZZ      -0.1150   YZZZ       0.0053   ZZZZ     -50.9118
 -----------------------------------------------------------------
 Calculating analytic gradient of the SCF energy
 Gradient of SCF Energy
            1           2           3           4           5           6
    1  -0.0987652   0.0903652   0.0041925   0.0041928   0.0000266   0.0000307
    2  -0.0000106   0.0000096   0.0007434  -0.0007426   0.0003048   0.0003037
    3  -0.0000623   0.0000608   0.0000019   0.0000000  -0.0002168   0.0002196
            7           8           9          10
    1  -0.0000504  -0.0000502   0.0000273   0.0000306
    2  -0.0001675   0.0001675  -0.0003047  -0.0003035
    3  -0.0000040  -0.0000023  -0.0002166   0.0002198
 Max gradient component =       9.877E-02
 RMS gradient           =       2.447E-02
 Gradient time:  CPU 7.34 s  wall 0.62 s
 Geometry Optimization Parameters
   NAtoms,    NIC,     NZ,  NCons,   NDum,   NFix, NCnnct, MaxDiis
       10      56       0       1       0       0       0       0

 Cartesian Hessian Update
 Hessian Updated using BFGS Update


** CONSTRAINED OPTIMIZATION IN DELOCALIZED INTERNAL COORDINATES **
   Searching for a Minimum

   Optimization Cycle:   2

                       Coordinates (Angstroms)
     ATOM                X               Y               Z
      1  S        -1.5736826741   -0.0002003196   -0.0019038588
      2  C         0.3228788103   -0.0000032028   -0.0005960597
      3  C         1.0905459767    1.2804791982    0.0002425747
      4  C         1.0908191326   -1.2803218521    0.0002774878
      5  H         1.7474090703    1.3226205974    0.8806091385
      6  H         1.7532424412    1.3208284696   -0.8757862711
      7  H         0.4334193982    2.1487333233   -0.0026204576
      8  H         0.4338763395   -2.1487190255   -0.0013552749
      9  H         1.7487518390   -1.3217868541    0.8798719365
     10  H         1.7524696665   -1.3210623343   -0.8765292154
   Point Group: c1    Number of degrees of freedom:    24


   Energy is   -516.089204986

              Constraints and their Current Values
                                        Value     Constraint
   Distance(Angs):        1   2             1.896562     1.900000
 Hessian Updated using BFGS Update

   Using Lagrange Multiplier Algorithm


 21 Hessian modes will be used to form the next step
  Hessian Eigenvalues:
    -0.940980    0.045000    0.045000    0.045000    0.092833    0.092833
     0.095962    0.095970    0.160000    0.160451    0.250000    0.257839
     0.331363    0.336696    0.337737    0.337750    0.337769    0.337835
     0.349424    0.349430    1.064686

 Minimum Search - Taking P-RFO Step
 Searching for Lamda that Maximizes Along the Constraint modes Only
 Value Taken    Lamda =   0.00008617
 Searching for Lamda that Minimizes Along All other modes
 Value Taken    Lamda =  -0.00055948
 Step Taken.  Stepsize is  0.029188

                             Maximum     Tolerance    Cnvgd?
         Gradient            0.019788       0.000300      NO
         Displacement        0.021056       0.001200      NO
         Energy change      0.016186       0.000001      NO


 New Cartesian Coordinates Obtained by Inverse Iteration

 Displacement from previous Coordinates is:  0.045816
 ----------------------------------------------------------------
             Standard Nuclear Orientation (Angstroms)
    I     Atom           X                Y                Z
 ----------------------------------------------------------------
    1      S      -1.5633065935    -0.0001974054    -0.0019621647
    2      C       0.3366893182    -0.0000020135    -0.0005948550
    3      C       1.0893976545     1.2835681893     0.0002470362
    4      C       1.0896718115    -1.2834114173     0.0002861253
    5      H       1.7455727340     1.3285783737     0.8812678205
    6      H       1.7513569370     1.3268680009    -0.8764817625
    7      H       0.4261936130     2.1473836261    -0.0025677322
    8      H       0.4266515175    -2.1473718078    -0.0013161308
    9      H       1.7469084672    -1.3277565103     0.8805433789
   10      H       1.7505945406    -1.3270910358    -0.8772117157
 ----------------------------------------------------------------
 Nuclear Repulsion Energy =   145.0418820249 hartrees
 There are       20 alpha and       20 beta electrons

                       Distance Matrix (Angstroms)
             S (  1)   C (  2)   C (  3)   C (  4)   H (  5)   H (  6)
   C (  2)  1.899996
   C (  3)  2.947015  1.487993
   C (  4)  2.947022  1.487993  2.566980
   H (  5)  3.673476  2.127853  1.099450  2.833518
   H (  6)  3.675987  2.128156  1.099417  2.831979  1.757760
   H (  7)  2.927493  2.149251  1.089048  3.494362  1.786720  1.786905
   H (  8)  2.927506  2.149254  3.494365  1.089048  3.821091  3.819830
   H (  9)  3.674065  2.127923  2.833065  1.099445  2.656335  3.183424
   H ( 10)  3.675411  2.128086  2.832429  1.099422  3.185099  2.653959
             H (  7)   H (  8)   H (  9)
   H (  8)  4.294756
   H (  9)  3.821096  1.786764
   H ( 10)  3.819819  1.786863  1.757759
 
 Applying Cartesian multipole field
    Component          Value
    ---------          -----
     (2,0,0)        1.00000E-11
     (0,2,0)        2.00000E-11
     (0,0,2)       -3.00000E-10
 Nucleus-field energy     =     0.0000000016 hartrees
 Requested basis set is 6-31G(d,p)
 There are 35 shells and 94 basis functions
 A cutoff of  1.0D-14 yielded    613 shell pairs
 There are      4510 function pairs
 Smallest overlap matrix eigenvalue = 6.68E-03
 Guess from superposition of atomic densities
 Warning:  Energy on first SCF cycle will be non-variational
 SAD guess density has 40.000000 electrons

 -----------------------------------------------------------------------
  General SCF calculation program by
  Eric Jon Sundstrom, Paul Horn, Yuezhi Mao, Dmitri Zuev, Alec White,
  David Stuck, Shaama M.S., Shane Yost, Joonho Lee, David Small,
  Daniel Levine, Susi Lehtola, Hugh Burton, Evgeny Epifanovsky
 -----------------------------------------------------------------------
 Exchange:     0.2000 Hartree-Fock + 0.0800 Slater + 0.7200 B88
 Correlation:  0.1900 VWN1RPA + 0.8100 LYP
 Using SG-1 standard quadrature grid
 using 12 threads for integral computing
 -------------------------------------------------------
 OpenMP Integral computing Module                
 Release: version 1.0, May 2013, Q-Chem Inc. Pittsburgh 
 -------------------------------------------------------
 -------------------------------------------------------
 OpenMP BLAS3 based DFT computing Module                
 Release: version 1.0, May 2013, Q-Chem Inc. Pittsburgh 
 -------------------------------------------------------
 A unrestricted SCF calculation will be
 performed using DIIS
 SCF converges when DIIS error is below 1.0e-06
 Alpha HF Exchange    Energy =  -4.26677642885899
 Beta HF Exchange     Energy =  -4.26677642885899
 DFT Correlation      Energy =  -1.80167307127152
 DFT Exchange         Energy = -33.48074838567457
 One-Electron (alpha) Energy = -496.01017610539088
 One-Electron (beta)  Energy = -496.01017610539088
 Total Coulomb        Energy = 374.40171398918358
 ---------------------------------------
  Cycle       Energy         DIIS error
 ---------------------------------------
    1    -516.3927305097      3.06e-02  
 Alpha HF Exchange    Energy =  -4.27852770247526
 Beta HF Exchange     Energy =  -4.27852770247526
 DFT Correlation      Energy =  -1.82538876669757
 DFT Exchange         Energy = -33.96578979622062
 One-Electron (alpha) Energy = -499.09812008009186
 One-Electron (beta)  Energy = -499.09812008009203
 Total Coulomb        Energy = 381.49930891791655
    2    -516.0032831836      4.13e-03  
 Alpha HF Exchange    Energy =  -4.23481973738189
 Beta HF Exchange     Energy =  -4.23481973738190
 DFT Correlation      Energy =  -1.80823307773845
 DFT Exchange         Energy = -33.61855728816926
 One-Electron (alpha) Energy = -496.18558808207797
 One-Electron (beta)  Energy = -496.18558808207803
 Total Coulomb        Energy = 375.36496184692498
    3    -515.8607621314      6.67e-03  
 Alpha HF Exchange    Energy =  -4.24749243094729
 Beta HF Exchange     Energy =  -4.24749243094729
 DFT Correlation      Energy =  -1.81024296285603
 DFT Exchange         Energy = -33.70027925813680
 One-Electron (alpha) Energy = -497.16577538971046
 One-Electron (beta)  Energy = -497.16577538971035
 Total Coulomb        Energy = 377.25832231528312
    4    -516.0368535205      3.05e-03  
 Alpha HF Exchange    Energy =  -4.25176877547055
 Beta HF Exchange     Energy =  -4.25176877547055
 DFT Correlation      Energy =  -1.81498839999467
 DFT Exchange         Energy = -33.75310607694442
 One-Electron (alpha) Energy = -497.55152708875414
 One-Electron (beta)  Energy = -497.55152708875454
 Total Coulomb        Energy = 378.04483444064482
    5    -516.0879697382      3.52e-04  
 Alpha HF Exchange    Energy =  -4.25268358773893
 Beta HF Exchange     Energy =  -4.25268358773893
 DFT Correlation      Energy =  -1.81504029811964
 DFT Exchange         Energy = -33.75939717437261
 One-Electron (alpha) Energy = -497.61697794141958
 One-Electron (beta)  Energy = -497.61697794141975
 Total Coulomb        Energy = 378.18320494526085
    6    -516.0886735590      7.15e-05  
 Alpha HF Exchange    Energy =  -4.25231466062362
 Beta HF Exchange     Energy =  -4.25231466062362
 DFT Correlation      Energy =  -1.81491210316026
 DFT Exchange         Energy = -33.75632226955231
 One-Electron (alpha) Energy = -497.57935259997828
 One-Electron (beta)  Energy = -497.57935259997794
 Total Coulomb        Energy = 378.10398663356807
    7    -516.0887002338      2.08e-05  
 Alpha HF Exchange    Energy =  -4.25237038170499
 Beta HF Exchange     Energy =  -4.25237038170499
 DFT Correlation      Energy =  -1.81493043228471
 DFT Exchange         Energy = -33.75672298848460
 One-Electron (alpha) Energy = -497.58654097806425
 One-Electron (beta)  Energy = -497.58654097806442
 Total Coulomb        Energy = 378.11889123316001
    8    -516.0887028806      3.83e-06  
 Alpha HF Exchange    Energy =  -4.25236993060585
 Beta HF Exchange     Energy =  -4.25236993060585
 DFT Correlation      Energy =  -1.81492814625052
 DFT Exchange         Energy = -33.75670332770802
 One-Electron (alpha) Energy = -497.58631797111991
 One-Electron (beta)  Energy = -497.58631797111985
 Total Coulomb        Energy = 378.11842228540922
    9    -516.0887029655      5.07e-07  Convergence criterion met
 ---------------------------------------
 SCF time:   CPU 18.55s  wall 1.00s 
<S^2> =         -0.000000000
 Alpha HF Exchange    Energy =  -4.25236993060585
 Beta HF Exchange     Energy =  -4.25236993060585
 DFT Correlation      Energy =  -1.81492814625052
 DFT Exchange         Energy = -33.75670332770802
 One-Electron (alpha) Energy = -497.58631797111991
 One-Electron (beta)  Energy = -497.58631797111985
 Total Coulomb        Energy = 378.11842228540922
 Nuclear repulsion Energy = 145.04188202651909
 SCF   energy in the final basis set =     -516.0887029655
 Total energy in the final basis set =     -516.0887029655
 
 --------------------------------------------------------------
 
                    Orbital Energies (a.u.)
 --------------------------------------------------------------
 
 Alpha MOs
 -- Occupied --
-88.859 -10.290 -10.211 -10.211  -7.915  -5.880  -5.878  -5.870
 -0.824  -0.724  -0.666  -0.544  -0.461  -0.455  -0.446  -0.415
 -0.389  -0.332  -0.251  -0.213
 -- Virtual --
 -0.095   0.032   0.080   0.135   0.145   0.150   0.159   0.173
  0.217   0.248   0.325   0.384   0.388   0.426   0.481   0.496
  0.549   0.562   0.589   0.633   0.679   0.722   0.733   0.781
  0.816   0.821   0.844   0.862   0.863   0.890   0.896   0.906
  0.931   1.007   1.022   1.240   1.277   1.375   1.405   1.648
  1.682   1.820   1.852   1.866   1.874   1.942   2.008   2.013
  2.043   2.074   2.076   2.099   2.275   2.316   2.355   2.510
  2.559   2.574   2.673   2.681   2.801   2.836   2.893   2.911
  3.150   3.192   3.370   3.391   3.407   3.443   3.916   4.119
  4.457   4.510
 
 Beta MOs
 -- Occupied --
-88.859 -10.290 -10.211 -10.211  -7.915  -5.880  -5.878  -5.870
 -0.824  -0.724  -0.666  -0.544  -0.461  -0.455  -0.446  -0.415
 -0.389  -0.332  -0.251  -0.213
 -- Virtual --
 -0.095   0.032   0.080   0.135   0.145   0.150   0.159   0.173
  0.217   0.248   0.325   0.384   0.388   0.426   0.481   0.496
  0.549   0.562   0.589   0.633   0.679   0.722   0.733   0.781
  0.816   0.821   0.844   0.862   0.863   0.890   0.896   0.906
  0.931   1.007   1.022   1.240   1.277   1.375   1.405   1.648
  1.682   1.820   1.852   1.866   1.874   1.942   2.008   2.013
  2.043   2.074   2.076   2.099   2.275   2.316   2.355   2.510
  2.559   2.574   2.673   2.681   2.801   2.836   2.893   2.911
  3.150   3.192   3.370   3.391   3.407   3.443   3.916   4.119
  4.457   4.510
 --------------------------------------------------------------
 
          Ground-State Mulliken Net Atomic Charges

     Atom                 Charge (a.u.)    Spin (a.u.)
  --------------------------------------------------------
      1 S                    -0.183643       0.000000
      2 C                    -0.017602       0.000000
      3 C                    -0.339712      -0.000000
      4 C                    -0.339713      -0.000000
      5 H                     0.139383      -0.000000
      6 H                     0.139199       0.000000
      7 H                     0.161752      -0.000000
      8 H                     0.161752       0.000000
      9 H                     0.139337       0.000000
     10 H                     0.139247       0.000000
  --------------------------------------------------------
  Sum of atomic charges =    -0.000000
  Sum of spin   charges =    -0.000000

 -----------------------------------------------------------------
                    Cartesian Multipole Moments
 -----------------------------------------------------------------
    Charge (ESU x 10^10)
                -0.0000
    Dipole Moment (Debye)
         X       4.0198      Y       0.0004      Z       0.0046
       Tot       4.0198
    Quadrupole Moments (Debye-Ang)
        XX     -33.5145     XY      -0.0004     YY     -31.5811
        XZ      -0.0016     YZ       0.0006     ZZ     -32.7278
    Octopole Moments (Debye-Ang^2)
       XXX      12.1436    XXY       0.0010    XYY       7.0567
       YYY       0.0055    XXZ       0.0219    XYZ       0.0014
       YYZ       0.0254    XZZ       5.0887    YZZ       0.0017
       ZZZ       0.0862
    Hexadecapole Moments (Debye-Ang^3)
      XXXX    -352.8820   XXXY      -0.0060   XXYY     -99.2363
      XYYY      -0.0107   YYYY    -200.3977   XXXZ      -0.1608
      XXYZ       0.0019   XYYZ      -0.0425   YYYZ      -0.0030
      XXZZ     -64.9993   XYZZ      -0.0023   YYZZ     -43.7333
      XZZZ      -0.1184   YZZZ       0.0054   ZZZZ     -50.9428
 -----------------------------------------------------------------
 Calculating analytic gradient of the SCF energy
 Gradient of SCF Energy
            1           2           3           4           5           6
    1  -0.0982553   0.0960937   0.0016697   0.0016700  -0.0002673  -0.0002628
    2  -0.0000103   0.0000100   0.0002054  -0.0002052  -0.0000735  -0.0000770
    3  -0.0000650   0.0000695  -0.0000015  -0.0000029  -0.0000218   0.0000243
            7           8           9          10
    1  -0.0000594  -0.0000590  -0.0002666  -0.0002630
    2   0.0002046  -0.0002046   0.0000742   0.0000764
    3  -0.0000034  -0.0000019  -0.0000217   0.0000244
 Max gradient component =       9.826E-02
 RMS gradient           =       2.510E-02
 Gradient time:  CPU 7.33 s  wall 0.62 s
 Geometry Optimization Parameters
   NAtoms,    NIC,     NZ,  NCons,   NDum,   NFix, NCnnct, MaxDiis
       10      56       0       1       0       0       0       0

 Cartesian Hessian Update
 Hessian Updated using BFGS Update


** CONSTRAINED OPTIMIZATION IN DELOCALIZED INTERNAL COORDINATES **
   Searching for a Minimum

   Optimization Cycle:   3

                       Coordinates (Angstroms)
     ATOM                X               Y               Z
      1  S        -1.5633065935   -0.0001974054   -0.0019621647
      2  C         0.3366893182   -0.0000020135   -0.0005948550
      3  C         1.0893976545    1.2835681893    0.0002470362
      4  C         1.0896718115   -1.2834114173    0.0002861253
      5  H         1.7455727340    1.3285783737    0.8812678205
      6  H         1.7513569370    1.3268680009   -0.8764817625
      7  H         0.4261936130    2.1473836261   -0.0025677322
      8  H         0.4266515175   -2.1473718078   -0.0013161308
      9  H         1.7469084672   -1.3277565103    0.8805433789
     10  H         1.7505945406   -1.3270910358   -0.8772117157
   Point Group: c1    Number of degrees of freedom:    24


   Energy is   -516.088702965

              Constraints and their Current Values
                                        Value     Constraint
   Distance(Angs):        1   2             1.899996     1.900000
 Hessian Updated using BFGS Update

   Using Lagrange Multiplier Algorithm


 22 Hessian modes will be used to form the next step
  Hessian Eigenvalues:
    -0.940704    0.044999    0.045000    0.045000    0.092833    0.092833
     0.095355    0.095962    0.159808    0.160000    0.160684    0.194941
     0.250000    0.323861    0.331363    0.337737    0.337753    0.337769
     0.339665    0.349424    0.352504    1.065440

 Minimum Search - Taking P-RFO Step
 Searching for Lamda that Maximizes Along the Constraint modes Only
 Value Taken    Lamda =   0.00000003
 Searching for Lamda that Minimizes Along All other modes
 Value Taken    Lamda =  -0.00003477
 Step Taken.  Stepsize is  0.014315

                             Maximum     Tolerance    Cnvgd?
         Gradient            0.001524       0.000300      NO
         Displacement        0.009711       0.001200      NO
         Energy change      0.000502       0.000001      NO


 New Cartesian Coordinates Obtained by Inverse Iteration

 Displacement from previous Coordinates is:  0.035507
 ----------------------------------------------------------------
             Standard Nuclear Orientation (Angstroms)
    I     Atom           X                Y                Z
 ----------------------------------------------------------------
    1      S      -1.5568102179    -0.0001959750    -0.0020505452
    2      C       0.3431892096    -0.0000015188    -0.0006018648
    3      C       1.0885251231     1.2857206749     0.0002554394
    4      C       1.0887997798    -1.2855642258     0.0002995377
    5      H       1.7457344891     1.3351995992     0.8807612258
    6      H       1.7514335092     1.3335922446    -0.8760187034
    7      H       0.4203279590     2.1451612040    -0.0024959782
    8      H       0.4207860363    -2.1451511887    -0.0012628751
    9      H       1.7470551872    -1.3343929457     0.8800544677
   10      H       1.7506889246    -1.3337998687    -0.8767307041
 ----------------------------------------------------------------
 Nuclear Repulsion Energy =   145.1419790859 hartrees
 There are       20 alpha and       20 beta electrons

                       Distance Matrix (Angstroms)
             S (  1)   C (  2)   C (  3)   C (  4)   H (  5)   H (  6)
   C (  2)  1.900000
   C (  3)  2.941324  1.486139
   C (  4)  2.941331  1.486138  2.571285
   H (  5)  3.670074  2.127603  1.099847  2.841686
   H (  6)  3.672504  2.127905  1.099816  2.840246  1.756790
   H (  7)  2.917470  2.146550  1.088638  3.495245  1.786864  1.787045
   H (  8)  2.917485  2.146553  3.495248  1.088639  3.827048  3.825895
   H (  9)  3.670656  2.127674  2.841250  1.099842  2.669593  3.194050
   H ( 10)  3.671936  2.127833  2.840678  1.099821  3.195678  2.667392
             H (  7)   H (  8)   H (  9)
   H (  8)  4.290313
   H (  9)  3.827061  1.786908
   H ( 10)  3.825875  1.787002  1.756789
 
 Applying Cartesian multipole field
    Component          Value
    ---------          -----
     (2,0,0)        1.00000E-11
     (0,2,0)        2.00000E-11
     (0,0,2)       -3.00000E-10
 Nucleus-field energy     =     0.0000000016 hartrees
 Requested basis set is 6-31G(d,p)
 There are 35 shells and 94 basis functions
 A cutoff of  1.0D-14 yielded    613 shell pairs
 There are      4510 function pairs
 Smallest overlap matrix eigenvalue = 6.65E-03
 Guess from superposition of atomic densities
 Warning:  Energy on first SCF cycle will be non-variational
 SAD guess density has 40.000000 electrons

 -----------------------------------------------------------------------
  General SCF calculation program by
  Eric Jon Sundstrom, Paul Horn, Yuezhi Mao, Dmitri Zuev, Alec White,
  David Stuck, Shaama M.S., Shane Yost, Joonho Lee, David Small,
  Daniel Levine, Susi Lehtola, Hugh Burton, Evgeny Epifanovsky
 -----------------------------------------------------------------------
 Exchange:     0.2000 Hartree-Fock + 0.0800 Slater + 0.7200 B88
 Correlation:  0.1900 VWN1RPA + 0.8100 LYP
 Using SG-1 standard quadrature grid
 using 12 threads for integral computing
 -------------------------------------------------------
 OpenMP Integral computing Module                
 Release: version 1.0, May 2013, Q-Chem Inc. Pittsburgh 
 -------------------------------------------------------
 -------------------------------------------------------
 OpenMP BLAS3 based DFT computing Module                
 Release: version 1.0, May 2013, Q-Chem Inc. Pittsburgh 
 -------------------------------------------------------
 A unrestricted SCF calculation will be
 performed using DIIS
 SCF converges when DIIS error is below 1.0e-06
 Alpha HF Exchange    Energy =  -4.26713407459716
 Beta HF Exchange     Energy =  -4.26713407459716
 DFT Correlation      Energy =  -1.80175427900196
 DFT Exchange         Energy = -33.48147641362584
 One-Electron (alpha) Energy = -496.10889169011494
 One-Electron (beta)  Energy = -496.10889169011494
 Total Coulomb        Energy = 374.49700975576002
 ---------------------------------------
  Cycle       Energy         DIIS error
 ---------------------------------------
    1    -516.3962933787      3.06e-02  
 Alpha HF Exchange    Energy =  -4.27868760959409
 Beta HF Exchange     Energy =  -4.27868760959409
 DFT Correlation      Energy =  -1.82550579610931
 DFT Exchange         Energy = -33.96703578412660
 One-Electron (alpha) Energy = -499.20500688572162
 One-Electron (beta)  Energy = -499.20500688572156
 Total Coulomb        Energy = 381.61466251489219
    2    -516.0032889684      4.13e-03  
 Alpha HF Exchange    Energy =  -4.23489992037545
 Beta HF Exchange     Energy =  -4.23489992037545
 DFT Correlation      Energy =  -1.80830728981626
 DFT Exchange         Energy = -33.61909181208692
 One-Electron (alpha) Energy = -496.27745271339421
 One-Electron (beta)  Energy = -496.27745271339433
 Total Coulomb        Energy = 375.44900667067691
    3    -515.8611186112      6.66e-03  
 Alpha HF Exchange    Energy =  -4.24761947031590
 Beta HF Exchange     Energy =  -4.24761947031589
 DFT Correlation      Energy =  -1.81034098137803
 DFT Exchange         Energy = -33.70124585196720
 One-Electron (alpha) Energy = -497.26754959688282
 One-Electron (beta)  Energy = -497.26754959688270
 Total Coulomb        Energy = 377.36316183566953
    4    -516.0367840445      3.05e-03  
 Alpha HF Exchange    Energy =  -4.25190014260815
 Beta HF Exchange     Energy =  -4.25190014260816
 DFT Correlation      Energy =  -1.81508846438717
 DFT Exchange         Energy = -33.75410437993747
 One-Electron (alpha) Energy = -497.65314588828602
 One-Electron (beta)  Energy = -497.65314588828642
 Total Coulomb        Energy = 378.14930901275079
    5    -516.0879968058      3.50e-04  
 Alpha HF Exchange    Energy =  -4.25280213657707
 Beta HF Exchange     Energy =  -4.25280213657707
 DFT Correlation      Energy =  -1.81513673191350
 DFT Exchange         Energy = -33.76029913447459
 One-Electron (alpha) Energy = -497.71741436617219
 One-Electron (beta)  Energy = -497.71741436617225
 Total Coulomb        Energy = 378.28519752940235
    6    -516.0886922549      7.04e-05  
 Alpha HF Exchange    Energy =  -4.25243855829633
 Beta HF Exchange     Energy =  -4.25243855829633
 DFT Correlation      Energy =  -1.81501053029580
 DFT Exchange         Energy = -33.75726719170373
 One-Electron (alpha) Energy = -497.68034061204253
 One-Electron (beta)  Energy = -497.68034061204241
 Total Coulomb        Energy = 378.20713898528243
    7    -516.0887179898      2.08e-05  
 Alpha HF Exchange    Energy =  -4.25249450228436
 Beta HF Exchange     Energy =  -4.25249450228436
 DFT Correlation      Energy =  -1.81502893287792
 DFT Exchange         Energy = -33.75767015108626
 One-Electron (alpha) Energy = -497.68756393208832
 One-Electron (beta)  Energy = -497.68756393208832
 Total Coulomb        Energy = 378.22211622269583
    8    -516.0887206424      3.83e-06  
 Alpha HF Exchange    Energy =  -4.25249392432423
 Beta HF Exchange     Energy =  -4.25249392432424
 DFT Correlation      Energy =  -1.81502660770175
 DFT Exchange         Energy = -33.75764948770247
 One-Electron (alpha) Energy = -497.68732809176760
 One-Electron (beta)  Energy = -497.68732809176771
 Total Coulomb        Energy = 378.22162031293033
    9    -516.0887207271      5.08e-07  Convergence criterion met
 ---------------------------------------
 SCF time:   CPU 18.28s  wall 2.00s 
<S^2> =         -0.000000000
 Alpha HF Exchange    Energy =  -4.25249392432423
 Beta HF Exchange     Energy =  -4.25249392432424
 DFT Correlation      Energy =  -1.81502660770175
 DFT Exchange         Energy = -33.75764948770247
 One-Electron (alpha) Energy = -497.68732809176760
 One-Electron (beta)  Energy = -497.68732809176771
 Total Coulomb        Energy = 378.22162031293033
 Nuclear repulsion Energy = 145.14197908758766
 SCF   energy in the final basis set =     -516.0887207271
 Total energy in the final basis set =     -516.0887207271
 
 --------------------------------------------------------------
 
                    Orbital Energies (a.u.)
 --------------------------------------------------------------
 
 Alpha MOs
 -- Occupied --
-88.858 -10.289 -10.211 -10.211  -7.915  -5.880  -5.877  -5.870
 -0.824  -0.725  -0.666  -0.544  -0.461  -0.455  -0.447  -0.415
 -0.390  -0.331  -0.251  -0.213
 -- Virtual --
 -0.095   0.032   0.080   0.135   0.146   0.150   0.158   0.173
  0.217   0.249   0.326   0.384   0.388   0.427   0.479   0.496
  0.549   0.562   0.589   0.633   0.680   0.721   0.733   0.781
  0.816   0.821   0.844   0.861   0.865   0.890   0.896   0.907
  0.931   1.008   1.023   1.242   1.276   1.370   1.406   1.651
  1.684   1.819   1.854   1.869   1.873   1.942   2.008   2.013
  2.044   2.075   2.077   2.098   2.273   2.317   2.354   2.511
  2.560   2.574   2.672   2.683   2.801   2.835   2.895   2.914
  3.150   3.192   3.370   3.392   3.407   3.442   3.916   4.119
  4.457   4.511
 
 Beta MOs
 -- Occupied --
-88.858 -10.289 -10.211 -10.211  -7.915  -5.880  -5.877  -5.870
 -0.824  -0.725  -0.666  -0.544  -0.461  -0.455  -0.447  -0.415
 -0.390  -0.331  -0.251  -0.213
 -- Virtual --
 -0.095   0.032   0.080   0.135   0.146   0.150   0.158   0.173
  0.217   0.249   0.326   0.384   0.388   0.427   0.479   0.496
  0.549   0.562   0.589   0.633   0.680   0.721   0.733   0.781
  0.816   0.821   0.844   0.861   0.865   0.890   0.896   0.907
  0.931   1.008   1.023   1.242   1.276   1.370   1.406   1.651
  1.684   1.819   1.854   1.869   1.873   1.942   2.008   2.013
  2.044   2.075   2.077   2.098   2.273   2.317   2.354   2.511
  2.560   2.574   2.672   2.683   2.801   2.835   2.895   2.914
  3.150   3.192   3.370   3.392   3.407   3.442   3.916   4.119
  4.457   4.511
 --------------------------------------------------------------
 
          Ground-State Mulliken Net Atomic Charges

     Atom                 Charge (a.u.)    Spin (a.u.)
  --------------------------------------------------------
      1 S                    -0.184685      -0.000000
      2 C                    -0.017417       0.000000
      3 C                    -0.339642       0.000000
      4 C                    -0.339643       0.000000
      5 H                     0.139307       0.000000
      6 H                     0.139130      -0.000000
      7 H                     0.162256      -0.000000
      8 H                     0.162256      -0.000000
      9 H                     0.139261      -0.000000
     10 H                     0.139177      -0.000000
  --------------------------------------------------------
  Sum of atomic charges =    -0.000000
  Sum of spin   charges =    -0.000000

 -----------------------------------------------------------------
                    Cartesian Multipole Moments
 -----------------------------------------------------------------
    Charge (ESU x 10^10)
                -0.0000
    Dipole Moment (Debye)
         X       4.0227      Y       0.0004      Z       0.0048
       Tot       4.0227
    Quadrupole Moments (Debye-Ang)
        XX     -33.4982     XY      -0.0004     YY     -31.5529
        XZ      -0.0018     YZ       0.0006     ZZ     -32.7334
    Octopole Moments (Debye-Ang^2)
       XXX      11.8710    XXY       0.0009    XYY       6.9700
       YYY       0.0054    XXZ       0.0231    XYZ       0.0014
       YYZ       0.0267    XZZ       4.9816    YZZ       0.0017
       ZZZ       0.0892
    Hexadecapole Moments (Debye-Ang^3)
      XXXX    -351.3268   XXXY      -0.0059   XXYY     -98.9442
      XYYY      -0.0104   YYYY    -200.9476   XXXZ      -0.1657
      XXYZ       0.0019   XYYZ      -0.0449   YYYZ      -0.0027
      XXZZ     -64.7448   XYZZ      -0.0023   YYZZ     -43.8011
      XZZZ      -0.1244   YZZZ       0.0055   ZZZZ     -50.9524
 -----------------------------------------------------------------
 Calculating analytic gradient of the SCF energy
 Gradient of SCF Energy
            1           2           3           4           5           6
    1  -0.0977911   0.0978172   0.0001422   0.0001424  -0.0000889  -0.0000835
    2  -0.0000102   0.0000100  -0.0000213   0.0000213  -0.0000209  -0.0000239
    3  -0.0000689   0.0000752  -0.0000043  -0.0000048   0.0000393  -0.0000358
            7           8           9          10
    1   0.0000167   0.0000171  -0.0000880  -0.0000841
    2   0.0000072  -0.0000072   0.0000216   0.0000234
    3  -0.0000025  -0.0000013   0.0000392  -0.0000359
 Max gradient component =       9.782E-02
 RMS gradient           =       2.525E-02
 Gradient time:  CPU 6.97 s  wall 0.58 s
 Geometry Optimization Parameters
   NAtoms,    NIC,     NZ,  NCons,   NDum,   NFix, NCnnct, MaxDiis
       10      56       0       1       0       0       0       0

 Cartesian Hessian Update
 Hessian Updated using BFGS Update


** CONSTRAINED OPTIMIZATION IN DELOCALIZED INTERNAL COORDINATES **
   Searching for a Minimum

   Optimization Cycle:   4

                       Coordinates (Angstroms)
     ATOM                X               Y               Z
      1  S        -1.5568102179   -0.0001959750   -0.0020505452
      2  C         0.3431892096   -0.0000015188   -0.0006018648
      3  C         1.0885251231    1.2857206749    0.0002554394
      4  C         1.0887997798   -1.2855642258    0.0002995377
      5  H         1.7457344891    1.3351995992    0.8807612258
      6  H         1.7514335092    1.3335922446   -0.8760187034
      7  H         0.4203279590    2.1451612040   -0.0024959782
      8  H         0.4207860363   -2.1451511887   -0.0012628751
      9  H         1.7470551872   -1.3343929457    0.8800544677
     10  H         1.7506889246   -1.3337998687   -0.8767307041
   Point Group: c1    Number of degrees of freedom:    24


   Energy is   -516.088720727

              Constraints and their Current Values
                                        Value     Constraint
   Distance(Angs):        1   2             1.900000     1.900000
 Hessian Updated using BFGS Update

 18 Hessian modes will be used to form the next step
  Hessian Eigenvalues:
     0.044989    0.045000    0.045000    0.092830    0.092833    0.093006
     0.145849    0.160000    0.160047    0.203700    0.250000    0.328687
     0.331363    0.337737    0.337753    0.337769    0.340407    0.352469

 Minimum Search - Taking Simple RFO Step
 Searching for Lamda that Minimizes Along All modes
 Value Taken    Lamda =   0.00000000
 Step Taken.  Stepsize is  0.001964

                             Maximum     Tolerance    Cnvgd?
         Gradient           0.000175      0.000300     YES
         Displacement       0.000988      0.001200     YES
         Energy change     -0.000018      0.000001      NO


                       Distance Matrix (Angstroms)
             S (  1)   C (  2)   C (  3)   C (  4)   H (  5)   H (  6)
   C (  2)  1.900000
   C (  3)  2.941324  1.486139
   C (  4)  2.941331  1.486138  2.571285
   H (  5)  3.670074  2.127603  1.099847  2.841686
   H (  6)  3.672504  2.127905  1.099816  2.840246  1.756790
   H (  7)  2.917470  2.146550  1.088638  3.495245  1.786864  1.787045
   H (  8)  2.917485  2.146553  3.495248  1.088639  3.827048  3.825895
   H (  9)  3.670656  2.127674  2.841250  1.099842  2.669593  3.194050
   H ( 10)  3.671936  2.127833  2.840678  1.099821  3.195678  2.667392
             H (  7)   H (  8)   H (  9)
   H (  8)  4.290313
   H (  9)  3.827061  1.786908
   H ( 10)  3.825875  1.787002  1.756789
 
 Final energy is   -516.088720727070     


 ******************************
 **  OPTIMIZATION CONVERGED  **
 ******************************

                       Coordinates (Angstroms)
     ATOM                X               Y               Z
      1  S        -1.5568102179   -0.0001959750   -0.0020505452
      2  C         0.3431892096   -0.0000015188   -0.0006018648
      3  C         1.0885251231    1.2857206749    0.0002554394
      4  C         1.0887997798   -1.2855642258    0.0002995377
      5  H         1.7457344891    1.3351995992    0.8807612258
      6  H         1.7514335092    1.3335922446   -0.8760187034
      7  H         0.4203279590    2.1451612040   -0.0024959782
      8  H         0.4207860363   -2.1451511887   -0.0012628751
      9  H         1.7470551872   -1.3343929457    0.8800544677
     10  H         1.7506889246   -1.3337998687   -0.8767307041

Z-matrix Print:
$molecule
0 1
S 
C  1 1.900000
C  2 1.486138 1 120.107357
H  3 1.088639 2 112.034739 1 0.072428 0
H  3 1.099821 2 109.839815 1 121.978417 0
H  3 1.099842 2 109.825872 1 -121.810847 0
C  2 1.486139 1 120.106839 3 -179.972284 0
H  7 1.088638 2 112.034546 1 -0.138263 0
H  7 1.099816 2 109.845745 1 -122.053691 0
H  7 1.099847 2 109.820018 1 121.735408 0
$end

PES scan, value:    1.9000 energy: -516.0887207271
------- Summary of potential scan: ------ 
    1.9000      -516.0887207271
----------------------------------------- 
Archival summary:
1\1\hpc0249\JobtypUnspecified\ProcedureUnspecified\6-31G**\136\knomura\WedMar1313:48:412019WedMar1313:48:412019\0\\#,JobtypUnspecified,ProcedureUnspecified,6-31G**,\\0,1\S\C,1,1.9\C,2,1.48614,1,120.107\H,3,1.08864,2,112.035,1,0.0724281,0\H,3,1.09982,2,109.84,1,121.978,0\H,3,1.09984,2,109.826,1,-121.811,0\C,2,1.48614,1,120.107,3,-179.972,0\H,7,1.08864,2,112.035,1,-0.138263,0\H,7,1.09982,2,109.846,1,-122.054,0\H,7,1.09985,2,109.82,1,121.735,0\\\@

 Total job time:  11.98s(wall), 124.45s(cpu) 
 Wed Mar 13 13:48:41 2019

        *************************************************************
        *                                                           *
        *  Thank you very much for using Q-Chem.  Have a nice day.  *
        *                                                           *
        *************************************************************


