
Running Job 1 of 1 thiol/02/C-S.xyz.data/inputs/bond_triplet_1.9.in
qchem thiol/02/C-S.xyz.data/inputs/bond_triplet_1.9.in_22571.0 /staging/scratch/2868767/qchem22571/ 1
/usr/usc/qchem/5.1.1/exe/qcprog.exe_s thiol/02/C-S.xyz.data/inputs/bond_triplet_1.9.in_22571.0 /staging/scratch/2868767/qchem22571/
Check license passed

                  Welcome to Q-Chem
     A Quantum Leap Into The Future Of Chemistry


 Q-Chem 5.1, Q-Chem, Inc., Pleasanton, CA (2018)

 Yihan Shao,  Zhengting Gan,  E. Epifanovsky,  A. T. B. Gilbert,  M. Wormit,  
 J. Kussmann,  A. W. Lange,  A. Behn,  Jia Deng,  Xintian Feng,  D. Ghosh,  
 M. Goldey,  P. R. Horn,  L. D. Jacobson,  I. Kaliman,  T. Kus,  A. Landau,  
 Jie Liu,  E. I. Proynov,  R. M. Richard,  R. P. Steele,  E. J. Sundstrom,  
 H. L. Woodcock III,  P. M. Zimmerman,  D. Zuev,  B. Albrecht,  E. Alguire,  
 S. A. Baeppler,  D. Barton,  Z. Benda,  Y. A. Bernard,  E. J. Berquist,  
 K. B. Bravaya,  H. Burton,  D. Casanova,  Chun-Min Chang,  Yunqing Chen,  
 A. Chien,  K. D. Closser,  M. P. Coons,  S. Coriani,  S. Dasgupta,  
 A. L. Dempwolff,  M. Diedenhofen,  Hainam Do,  R. G. Edgar,  Po-Tung Fang,  
 S. Faraji,  S. Fatehi,  Qingguo Feng,  K. D. Fenk,  J. Fosso-Tande,  
 Qinghui Ge,  A. Ghysels,  G. Gidofalvi,  J. Gomes,  J. Gonthier,  A. Gunina,  
 D. Hait,  M. W. D. Hanson-Heine,  P. H. P. Harbach,  A. W. Hauser,  
 J. E. Herr,  E. G. Hohenstein,  Z. C. Holden,  Kerwin Hui,  B. C. Huynh,  
 T.-C. Jagau,  Hyunjun Ji,  B. Kaduk,  K. Khistyaev,  Jaehoon Kim,  
 P. Klunzinger,  K. Koh,  D. Kosenkov,  L. Koulias,  T. Kowalczyk,  
 C. M. Krauter,  A. Kunitsa,  Ka Un Lao,  A. Laurent,  K. V. Lawler,  
 Joonho Lee,  D. Lefrancois,  S. Lehtola,  D. S. Levine,  Yi-Pei Li,  
 You-Sheng Lin,  Fenglai Liu,  E. Livshits,  A. Luenser,  P. Manohar,  
 E. Mansoor,  S. F. Manzer,  Shan-Ping Mao,  Yuezhi Mao,  N. Mardirossian,  
 A. V. Marenich,  T. Markovich,  L. A. Martinez-Martinez,  S. A. Maurer,  
 N. J. Mayhall,  S. C. McKenzie,  J.-M. Mewes,  A. F. Morrison,  
 J. W. Mullinax,  K. Nanda,  T. S. Nguyen-Beck,  R. Olivares-Amaya,  
 J. A. Parkhill,  T. M. Perrine,  F. Plasser,  P. Pokhilko,  S. Prager,  
 A. Prociuk,  E. Ramos,  D. R. Rehn,  F. Rob,  M. Schneider,  N. Sergueev,  
 S. M. Sharada,  S. Sharma,  D. W. Small,  T. Stauch,  T. Stein,  
 Yu-Chuan Su,  A. J. W. Thom,  A. Tkatchenko,  T. Tsuchimochi,  N. M. Tubman,  
 L. Vogt,  M. L. Vidal,  O. Vydrov,  M. A. Watson,  J. Wenzel,  
 M. de Wergifosse,  T. A. Wesolowski,  A. White,  J. Witte,  A. Yamada,  
 Jun Yang,  K. Yao,  S. Yeganeh,  S. R. Yost,  Zhi-Qiang You,  A. Zech,  
 Igor Ying Zhang,  Xing Zhang,  Yan Zhao,  Ying Zhu,  B. R. Brooks,  
 G. K. L. Chan,  C. J. Cramer,  M. S. Gordon,  W. J. Hehre,  A. Klamt,  
 M. W. Schmidt,  C. D. Sherrill,  D. G. Truhlar,  A. Aspuru-Guzik,  R. Baer,  
 A. T. Bell,  N. A. Besley,  Jeng-Da Chai,  A. E. DePrince, III,  
 R. A. DiStasio Jr.,  A. Dreuw,  B. D. Dunietz,  T. R. Furlani,  
 Chao-Ping Hsu,  Yousung Jung,  Jing Kong,  D. S. Lambrecht,  WanZhen Liang,  
 C. Ochsenfeld,  V. A. Rassolov,  L. V. Slipchenko,  J. E. Subotnik,  
 T. Van Voorhis,  J. M. Herbert,  A. I. Krylov,  P. M. W. Gill,  M. Head-Gordon

 Contributors to earlier versions of Q-Chem not listed above: 
 R. D. Adamson,  B. Austin,  J. Baker,  G. J. O. Beran,  K. Brandhorst,  
 S. T. Brown,  E. F. C. Byrd,  A. K. Chakraborty,  C.-L. Cheng,  
 Siu Hung Chien,  D. M. Chipman,  D. L. Crittenden,  H. Dachsel,  
 R. J. Doerksen,  A. D. Dutoi,  L. Fusti-Molnar,  W. A. Goddard III,  
 A. Golubeva-Zadorozhnaya,  S. R. Gwaltney,  G. Hawkins,  A. Heyden,  
 S. Hirata,  G. Kedziora,  F. J. Keil,  C. Kelley,  Jihan Kim,  R. A. King,  
 R. Z. Khaliullin,  P. P. Korambath,  W. Kurlancheek,  A. M. Lee,  M. S. Lee,  
 S. V. Levchenko,  Ching Yeh Lin,  D. Liotard,  R. C. Lochan,  I. Lotan,  
 P. E. Maslen,  N. Nair,  D. P. O'Neill,  D. Neuhauser,  E. Neuscamman,  
 C. M. Oana,  R. Olson,  B. Peters,  R. Peverati,  P. A. Pieniazek,  
 Y. M. Rhee,  J. Ritchie,  M. A. Rohrdanz,  E. Rosta,  N. J. Russ,  
 H. F. Schaefer III,  N. E. Schultz,  N. Shenvi,  A. C. Simmonett,  A. Sodt,  
 D. Stuck,  K. S. Thanthiriwatte,  V. Vanovschi,  Tao Wang,  A. Warshel,  
 C. F. Williams,  Q. Wu,  X. Xu,  W. Zhang

 Please cite Q-Chem as follows:
 Y. Shao et al., Mol. Phys. 113, 184-215 (2015)
 DOI: 10.1080/00268976.2014.952696

 Q-Chem 5.1.1 for Intel X86 EM64T Linux

 Parts of Q-Chem use Armadillo 8.300.2 (Tropical Shenanigans).
 http://arma.sourceforge.net/

 Q-Chem begins on Wed Mar 13 21:36:52 2019  

Host: 
0

     Scratch files written to /staging/scratch/2868767/qchem22571//
 Aug318 |scratch|qcdevops|jenkins|workspace|build_RNUM 6013   
Processing $rem in /usr/usc/qchem/5.1.1/config/preferences.
 MEM_TOTAL  2000 
Input Ideriv = 2
Curr. Ideriv = -1
Max.  Ideriv = 2

Checking the input file for inconsistencies... 	...done.

--------------------------------------------------------------
User input:
--------------------------------------------------------------

$comment
potential surface scanner
$end

$rem
JOBTYPE  PES_SCAN
UNRESTRICTED TRUE
SYM_IGNORE  TRUE
GEOM_OPT_MAX_CYCLES 400
SCF_MAX_CYCLES 400
METHOD   B3LYP
BASIS   6-31G**
PDB_PRINT 2
SCF_CONVERGENCE 6
THRESH 14
SCF_PRINT 1
$end
$molecule
0 3
S 3.592568 -1.033398 -0.826616
C -1.586630 0.919710 0.298137
C 1.766625 -0.319045 -0.432116
C -2.509119 -0.222614 0.051084
H -1.231285 1.138631 1.299814
H -1.422881 1.674402 -0.464166
H 1.388060 -0.951000 0.372940
H 1.160504 -0.422632 -1.329081
H -2.286649 -1.076155 0.701186
H -3.561591 0.048856 0.244526
H -2.466136 -0.565807 -0.988746
H 1.869141 0.712849 -0.103955
$end
$scan
stre 1 3 1.900000 1.901000 0.100000
$end
--------------------------------------------------------------
 ----------------------------------------------------------------
             Standard Nuclear Orientation (Angstroms)
    I     Atom           X                Y                Z
 ----------------------------------------------------------------
    1      S       3.5925680000    -1.0333980000    -0.8266160000
    2      C      -1.5866300000     0.9197100000     0.2981370000
    3      C       1.7666250000    -0.3190450000    -0.4321160000
    4      C      -2.5091190000    -0.2226140000     0.0510840000
    5      H      -1.2312850000     1.1386310000     1.2998140000
    6      H      -1.4228810000     1.6744020000    -0.4641660000
    7      H       1.3880600000    -0.9510000000     0.3729400000
    8      H       1.1605040000    -0.4226320000    -1.3290810000
    9      H      -2.2866490000    -1.0761550000     0.7011860000
   10      H      -3.5615910000     0.0488560000     0.2445260000
   11      H      -2.4661360000    -0.5658070000    -0.9887460000
   12      H       1.8691410000     0.7128490000    -0.1039550000
 ----------------------------------------------------------------
 Nuclear Repulsion Energy =   126.4162736276 hartrees
 There are       22 alpha and       20 beta electrons
 Requested basis set is 6-31G(d,p)
 There are 41 shells and 104 basis functions

 Total QAlloc Memory Limit   2000 MB
 Mega-Array Size       188 MB
 MEM_STATIC part       192 MB
A total of 1 constraints
  
            1
    1   1.0100000
    2   1.0100000
    3   3.0100000
    4   1.9000000
    5   1.9010000
    6   0.1000000
    7   0.0000000
    8   0.0000000
    9   0.0000000
   10   0.0000000

                       Distance Matrix (Angstroms)
             S (  1)   C (  2)   C (  3)   C (  4)   H (  5)   H (  6)
   C (  2)  5.648344
   C (  3)  2.000000  3.648575
   C (  4)  6.217581  1.488934  4.304041
   H (  5)  5.701664  1.085151  3.756576  2.246147
   H (  6)  5.711242  1.085117  3.761357  2.245900  1.853479
   H (  7)  2.511091  3.514816  1.091235  3.977706  3.476582  3.936353
   H (  8)  2.557429  3.463591  1.087501  3.925684  3.881918  3.437951
   H (  9)  6.074636  2.153126  4.276286  1.095745  2.525357  3.109615
   H ( 10)  7.314411  2.159104  5.383594  1.103999  2.780570  2.778259
   H ( 11)  6.078883  2.153221  4.276330  1.095845  3.109256  2.526282
   H ( 12)  2.557698  3.485229  1.087660  4.479764  3.429942  3.448441
             H (  7)   H (  8)   H (  9)   H ( 10)   H ( 11)
   H (  8)  1.796616
   H (  9)  3.691463  4.053633
   H ( 10)  5.051262  4.999672  1.760587
   H ( 11)  4.105775  3.645387  1.774413  1.760339
   H ( 12)  1.796458  1.814502  4.595582  5.482260  4.605697
 
 A cutoff of  1.0D-14 yielded    770 shell pairs
 There are      4894 function pairs
 
 -------------------------------------------------------
 OpenMP Integral Computing Module                       
 Release: version 1.0, May 2013, Q-Chem Inc. Pittsburgh 
 -------------------------------------------------------
 Integral Job Info:
 Integral job number is                      11
 Integral operator is                         1
 short-range coefficients                     0
 long-range coefficients              100000000
 Omega coefficients                           0
 if combine SR and LR in K                    0
 Integral screening is                        0
 Integral computing path is                   2
 max size of driver memory is            800000
 size of driver memory is                593474
 size of scratch memory is             15267112
 max col of scratch BK array               1296
 max len of scratch array in speh3          155
 max len of scratch index in speh4           18
 max int batch size is                      520
 min int batch size is                       52
 fixed nKL is                                52
 max L of basis functions is                  2
 order of int derivative is                   0
 number of shells is                         41
 number of basis is                         104
 number of cartesian basis is               104
 number of contracted shell pairs           770
 number of primitive shell pairs           2576
 maxK2 (contraction) of shell pair           36
 max number of K2 of shell pair               1
 max number of CS2 of shell pair             88
 max number of PS2 of shell pair            234
 mem total for path MDJ                  511662
 -------------------------------------------------------
 Smallest overlap matrix eigenvalue = 9.00E-03

 Scale SEOQF with 1.000000e-01/1.000000e-01/1.000000e+00

 Standard Electronic Orientation quadrupole field applied
 Nucleus-field energy     =    -0.0000000059 hartrees
 Guess from superposition of atomic densities
 Warning:  Energy on first SCF cycle will be non-variational
 SAD guess density has 42.000000 electrons

 -----------------------------------------------------------------------
  General SCF calculation program by
  Eric Jon Sundstrom, Paul Horn, Yuezhi Mao, Dmitri Zuev, Alec White,
  David Stuck, Shaama M.S., Shane Yost, Joonho Lee, David Small,
  Daniel Levine, Susi Lehtola, Hugh Burton, Evgeny Epifanovsky
 -----------------------------------------------------------------------
 Exchange:     0.2000 Hartree-Fock + 0.0800 Slater + 0.7200 B88
 Correlation:  0.1900 VWN1RPA + 0.8100 LYP
 Using SG-1 standard quadrature grid
 using 12 threads for integral computing
 -------------------------------------------------------
 OpenMP Integral computing Module                
 Release: version 1.0, May 2013, Q-Chem Inc. Pittsburgh 
 -------------------------------------------------------
 -------------------------------------------------------
 OpenMP BLAS3 based DFT computing Module                
 Release: version 1.0, May 2013, Q-Chem Inc. Pittsburgh 
 -------------------------------------------------------
 A unrestricted SCF calculation will be
 performed using DIIS
 SCF converges when DIIS error is below 1.0e-06
 Alpha HF Exchange    Energy =  -4.30193768078832
 Beta HF Exchange     Energy =  -4.30193768078832
 DFT Correlation      Energy =  -1.84920209345760
 DFT Exchange         Energy = -33.91088736269418
 One-Electron (alpha) Energy = -477.75568931669551
 One-Electron (beta)  Energy = -477.75568931669551
 Total Coulomb        Energy = 356.20804736115872
 ---------------------------------------
  Cycle       Energy         DIIS error
 ---------------------------------------
    1    -517.2510224683      2.66e-02  
 Alpha HF Exchange    Energy =  -4.44813593351661
 Beta HF Exchange     Energy =  -4.26422716568096
 DFT Correlation      Energy =  -1.87043080513600
 DFT Exchange         Energy = -34.55505130944679
 One-Electron (alpha) Energy = -491.78113495739893
 One-Electron (beta)  Energy = -470.02596023359092
 Total Coulomb        Energy = 363.39202425468341
    2    -517.1366425284      3.74e-03  
 Alpha HF Exchange    Energy =  -4.39462995610092
 Beta HF Exchange     Energy =  -4.21481434364741
 DFT Correlation      Energy =  -1.84260761193619
 DFT Exchange         Energy = -34.11486576352760
 One-Electron (alpha) Energy = -489.06120024474399
 One-Electron (beta)  Energy = -467.29480261615282
 Total Coulomb        Energy = 357.38816960219123
    3    -517.1184773122      4.14e-03  
 Alpha HF Exchange    Energy =  -4.41938188817298
 Beta HF Exchange     Energy =  -4.23764451860579
 DFT Correlation      Energy =  -1.85538945808230
 DFT Exchange         Energy = -34.31678249391645
 One-Electron (alpha) Energy = -490.38878427778002
 One-Electron (beta)  Energy = -468.47541258758031
 Total Coulomb        Energy = 360.05761219289110
    4    -517.2195094095      5.05e-04  
 Alpha HF Exchange    Energy =  -4.42218038754065
 Beta HF Exchange     Energy =  -4.23888062876468
 DFT Correlation      Energy =  -1.85565539401690
 DFT Exchange         Energy = -34.33167714057003
 One-Electron (alpha) Energy = -490.56445679760526
 One-Electron (beta)  Energy = -468.57339597220272
 Total Coulomb        Energy = 360.34896967399277
    5    -517.2210030250      2.35e-04  
 Alpha HF Exchange    Energy =  -4.42173879115404
 Beta HF Exchange     Energy =  -4.23859464034492
 DFT Correlation      Energy =  -1.85535395104841
 DFT Exchange         Energy = -34.32856791330711
 One-Electron (alpha) Energy = -490.53165544403055
 One-Electron (beta)  Energy = -468.52199069714516
 Total Coulomb        Energy = 360.26027237211974
    6    -517.2213554432      5.16e-05  
 Alpha HF Exchange    Energy =  -4.42165627044645
 Beta HF Exchange     Energy =  -4.23844323080622
 DFT Correlation      Energy =  -1.85525958878420
 DFT Exchange         Energy = -34.32747586451415
 One-Electron (alpha) Energy = -490.52793079098279
 One-Electron (beta)  Energy = -468.50817237322281
 Total Coulomb        Energy = 360.24129074555788
    7    -517.2213737515      1.25e-05  
 Alpha HF Exchange    Energy =  -4.42177467303712
 Beta HF Exchange     Energy =  -4.23847997459679
 DFT Correlation      Energy =  -1.85526283445285
 DFT Exchange         Energy = -34.32806773241486
 One-Electron (alpha) Energy = -490.53596388157877
 One-Electron (beta)  Energy = -468.50977492809875
 Total Coulomb        Energy = 360.25167501738201
    8    -517.2213753851      5.95e-06  
 Alpha HF Exchange    Energy =  -4.42175549223943
 Beta HF Exchange     Energy =  -4.23846702086875
 DFT Correlation      Energy =  -1.85524687218187
 DFT Exchange         Energy = -34.32792544859933
 One-Electron (alpha) Energy = -490.53463759162673
 One-Electron (beta)  Energy = -468.50752424822383
 Total Coulomb        Energy = 360.24790735433123
    9    -517.2213756977      1.96e-06  
 Alpha HF Exchange    Energy =  -4.42175840128961
 Beta HF Exchange     Energy =  -4.23846393023519
 DFT Correlation      Energy =  -1.85524593071525
 DFT Exchange         Energy = -34.32792591155012
 One-Electron (alpha) Energy = -490.53464652752933
 One-Electron (beta)  Energy = -468.50737312315283
 Total Coulomb        Energy = 360.24776446921010
   10    -517.2213757336      7.50e-07  Convergence criterion met
 ---------------------------------------
 SCF time:   CPU 22.52s  wall 2.00s 
<S^2> =          2.006700418
 Alpha HF Exchange    Energy =  -4.42175840128961
 Beta HF Exchange     Energy =  -4.23846393023519
 DFT Correlation      Energy =  -1.85524593071525
 DFT Exchange         Energy = -34.32792591155012
 One-Electron (alpha) Energy = -490.53464652752933
 One-Electron (beta)  Energy = -468.50737312315283
 Total Coulomb        Energy = 360.24776446921010
 Nuclear repulsion Energy = 126.41627362170567
 SCF   energy in the final basis set =     -517.2213757336
 Total energy in the final basis set =     -517.2213757336
 
 --------------------------------------------------------------
 
                    Orbital Energies (a.u.)
 --------------------------------------------------------------
 
 Alpha MOs
 -- Occupied --
-88.893 -10.228 -10.196 -10.188  -7.951  -5.923  -5.914  -5.904
 -0.760  -0.748  -0.639  -0.613  -0.454  -0.434  -0.432  -0.417
 -0.395  -0.362  -0.344  -0.288  -0.244  -0.206
 -- Virtual --
  0.005   0.095   0.122   0.131   0.135   0.156   0.162   0.170
  0.212   0.253   0.322   0.358   0.372   0.384   0.473   0.492
  0.503   0.517   0.530   0.583   0.604   0.704   0.707   0.750
  0.756   0.801   0.815   0.816   0.844   0.845   0.855   0.864
  0.874   0.908   0.915   0.933   0.967   1.217   1.270   1.314
  1.428   1.433   1.435   1.563   1.791   1.846   1.935   1.942
  1.988   2.005   2.025   2.027   2.040   2.079   2.085   2.221
  2.316   2.330   2.349   2.364   2.473   2.515   2.578   2.611
  2.681   2.797   2.809   2.830   2.838   2.884   3.154   3.169
  3.281   3.396   3.397   3.417   3.456   3.505   3.885   4.218
  4.361   4.517
 
 Beta MOs
 -- Occupied --
-88.887 -10.228 -10.189 -10.183  -7.946  -5.910  -5.905  -5.900
 -0.743  -0.735  -0.607  -0.589  -0.448  -0.431  -0.428  -0.402
 -0.387  -0.357  -0.334  -0.230
 -- Virtual --
 -0.150  -0.049   0.017   0.098   0.124   0.136   0.144   0.159
  0.163   0.177   0.216   0.261   0.334   0.383   0.390   0.396
  0.495   0.506   0.513   0.521   0.532   0.593   0.627   0.711
  0.731   0.805   0.806   0.814   0.830   0.849   0.851   0.857
  0.862   0.869   0.877   0.911   0.923   0.947   0.980   1.221
  1.280   1.332   1.428   1.436   1.475   1.567   1.815   1.866
  1.946   1.956   2.006   2.019   2.027   2.030   2.046   2.086
  2.087   2.222   2.324   2.331   2.349   2.381   2.487   2.536
  2.581   2.628   2.685   2.797   2.810   2.836   2.843   2.889
  3.157   3.173   3.288   3.396   3.399   3.419   3.462   3.512
  3.903   4.243   4.360   4.526
 --------------------------------------------------------------
 
          Ground-State Mulliken Net Atomic Charges

     Atom                 Charge (a.u.)    Spin (a.u.)
  --------------------------------------------------------
      1 S                    -0.038127       1.017855
      2 C                    -0.227012       1.071800
      3 C                    -0.447528      -0.039764
      4 C                    -0.331889      -0.079518
      5 H                     0.105870      -0.046910
      6 H                     0.105964      -0.046880
      7 H                     0.159803       0.019262
      8 H                     0.160057       0.004872
      9 H                     0.115482       0.014440
     10 H                     0.121444       0.064621
     11 H                     0.116143       0.014719
     12 H                     0.159791       0.005503
  --------------------------------------------------------
  Sum of atomic charges =    -0.000000
  Sum of spin   charges =     2.000000

 -----------------------------------------------------------------
                    Cartesian Multipole Moments
 -----------------------------------------------------------------
    Charge (ESU x 10^10)
                -0.0000
    Dipole Moment (Debye)
         X      -2.2131      Y       0.6100      Z       0.4432
       Tot       2.3380
    Quadrupole Moments (Debye-Ang)
        XX     -43.0996     XY       3.1271     YY     -35.0791
        XZ       1.8408     YZ      -2.1042     ZZ     -34.3008
    Octopole Moments (Debye-Ang^2)
       XXX    -131.3428    XXY      18.6493    XYY     -31.9778
       YYY      35.4027    XXZ      15.4733    XYZ      -5.3300
       YYZ      14.8997    XZZ     -32.9943    YZZ      13.9448
       ZZZ      35.2455
    Hexadecapole Moments (Debye-Ang^3)
      XXXX   -1711.2450   XXXY     196.1129   XXYY    -304.8295
      XYYY     177.1582   YYYY    -189.7589   XXXZ     149.8140
      XXYZ     -32.5011   XYYZ      59.8606   YYYZ     -50.9066
      XXZZ    -290.7310   XYZZ      66.1976   YYZZ     -56.2437
      XZZZ     147.1270   YZZZ     -45.5983   ZZZZ    -124.3572
 -----------------------------------------------------------------
 Calculating analytic gradient of the SCF energy
 Gradient of SCF Energy
            1           2           3           4           5           6
    1   0.0371995   0.0000760  -0.0371640  -0.0000459  -0.0000144  -0.0000236
    2  -0.0145921   0.0000536   0.0146888   0.0000228  -0.0000402  -0.0000064
    3  -0.0080235   0.0000144   0.0080605   0.0000084   0.0000153  -0.0000057
            7           8           9          10          11          12
    1   0.0000111  -0.0000084  -0.0000001   0.0000013   0.0000125  -0.0000439
    2  -0.0000569  -0.0000454  -0.0000071  -0.0000016  -0.0000090  -0.0000065
    3  -0.0000335  -0.0000072  -0.0000116  -0.0000144  -0.0000060   0.0000033
 Max gradient component =       3.720E-02
 RMS gradient           =       9.608E-03
 Gradient time:  CPU 7.42 s  wall 0.64 s
 Geometry Optimization Parameters
   NAtoms,    NIC,     NZ,  NCons,   NDum,   NFix, NCnnct, MaxDiis
       12     369       0       1       0       0       0       0


** CONSTRAINED OPTIMIZATION IN DELOCALIZED INTERNAL COORDINATES **
   Searching for a Minimum

   Optimization Cycle:   1

                       Coordinates (Angstroms)
     ATOM                X               Y               Z
      1  S         3.5925680000   -1.0333980000   -0.8266160000
      2  C        -1.5866300000    0.9197100000    0.2981370000
      3  C         1.7666250000   -0.3190450000   -0.4321160000
      4  C        -2.5091190000   -0.2226140000    0.0510840000
      5  H        -1.2312850000    1.1386310000    1.2998140000
      6  H        -1.4228810000    1.6744020000   -0.4641660000
      7  H         1.3880600000   -0.9510000000    0.3729400000
      8  H         1.1605040000   -0.4226320000   -1.3290810000
      9  H        -2.2866490000   -1.0761550000    0.7011860000
     10  H        -3.5615910000    0.0488560000    0.2445260000
     11  H        -2.4661360000   -0.5658070000   -0.9887460000
     12  H         1.8691410000    0.7128490000   -0.1039550000
   Point Group: c1    Number of degrees of freedom:    30


   Energy is   -517.221375734

              Constraints and their Current Values
                                        Value     Constraint
   Distance(Angs):        1   3             2.000000     1.900000

 Attempting to Generate Delocalized Internal Coordinates

   Using Lagrange Multiplier Algorithm


 31 Hessian modes will be used to form the next step
  Hessian Eigenvalues:
    -0.927472    0.008259    0.033149    0.039238    0.046418    0.048755
     0.050204    0.051888    0.052050    0.053958    0.060963    0.063054
     0.064673    0.065963    0.068589    0.068726    0.080168    0.086682
     0.091278    0.091657    0.104162    0.203723    0.205796    0.218911
     0.231672    0.245147    0.266520    0.293176    0.295250    0.332438
     1.078200

 Minimum Search - Taking P-RFO Step
 Searching for Lamda that Maximizes Along the Constraint modes Only
 Value Taken    Lamda =   0.01306182


 ********************************************
 ** ERROR IN DETERMINING Lamda IN CONFormD **
 ********************************************


 ** Scaling Hessian by  3.163049 **


 31 Hessian modes will be used to form the next step
  Hessian Eigenvalues:
    -0.789640    0.026124    0.104851    0.124113    0.146823    0.154215
     0.158797    0.164124    0.164636    0.170673    0.192828    0.199443
     0.204565    0.208644    0.216951    0.217382    0.253575    0.274180
     0.288716    0.289915    0.329469    0.644387    0.650942    0.692426
     0.732789    0.775412    0.843016    0.927330    0.933889    1.051516
     1.266400

 Minimum Search - Taking P-RFO Step
 Searching for Lamda that Maximizes Along the Constraint modes Only
 Value Taken    Lamda =   0.01873091
 Searching for Lamda that Minimizes Along All other modes
 Value Taken    Lamda =  -0.01731685
 Step Taken.  Stepsize is  0.185488

                             Maximum     Tolerance    Cnvgd?
         Gradient            0.188972       0.000300      NO
         Displacement        0.185488       0.001200      NO
         Energy change     *********       0.000001      NO


 New Cartesian Coordinates Obtained by Inverse Iteration

 Displacement from previous Coordinates is:  0.177194
 ----------------------------------------------------------------
             Standard Nuclear Orientation (Angstroms)
    I     Atom           X                Y                Z
 ----------------------------------------------------------------
    1      S       3.5095520068    -1.0042428971    -0.8095300537
    2      C      -1.5784132260     0.9176611952     0.2966404608
    3      C       1.7737921679    -0.3236443711    -0.4341196423
    4      C      -2.5017761347    -0.2240057878     0.0498855633
    5      H      -1.2227118894     1.1364363298     1.2982251602
    6      H      -1.4142439815     1.6721545226    -0.4657727506
    7      H       1.3949076047    -0.9552164616     0.3710865871
    8      H       1.1674254644    -0.4268654136    -1.3309534592
    9      H      -2.2798108863    -1.0776348579     0.7000411752
   10      H      -3.5540085410     0.0482689581     0.2435122532
   11      H      -2.4592539174    -0.5673245850    -0.9899188277
   12      H       1.8771483325     0.7082103684    -0.1060894663
 ----------------------------------------------------------------
 Nuclear Repulsion Energy =   128.4858489349 hartrees
 There are       22 alpha and       20 beta electrons

                       Distance Matrix (Angstroms)
             S (  1)   C (  2)   C (  3)   C (  4)   H (  5)   H (  6)
   C (  2)  5.550200
   C (  3)  1.901844  3.648579
   C (  4)  6.122371  1.488923  4.304030
   H (  5)  5.605307  1.085153  3.756580  2.246143
   H (  6)  5.614716  1.085120  3.761355  2.245897  1.853474
   H (  7)  2.422391  3.514804  1.091235  3.977686  3.476569  3.936336
   H (  8)  2.467955  3.463588  1.087495  3.925673  3.881913  3.437941
   H (  9)  5.983387  2.153113  4.276274  1.095743  2.525350  3.109609
   H ( 10)  7.218765  2.159084  5.383583  1.104001  2.780552  2.778252
   H ( 11)  5.987494  2.153206  4.276327  1.095842  3.109251  2.526270
   H ( 12)  2.468211  3.485250  1.087663  4.479769  3.429958  3.448452
             H (  7)   H (  8)   H (  9)   H ( 10)   H ( 11)
   H (  8)  1.796620
   H (  9)  3.691443  4.053625
   H ( 10)  5.051240  4.999663  1.760584
   H ( 11)  4.105771  3.645386  1.774424  1.760340
   H ( 12)  1.796453  1.814496  4.595585  5.482263  4.605706
 
 Applying Cartesian multipole field
    Component          Value
    ---------          -----
     (2,0,0)        1.00000E-11
     (0,2,0)        2.00000E-11
     (0,0,2)       -3.00000E-10
 Nucleus-field energy     =    -0.0000000059 hartrees
 Requested basis set is 6-31G(d,p)
 There are 41 shells and 104 basis functions
 A cutoff of  1.0D-14 yielded    770 shell pairs
 There are      4894 function pairs
 Smallest overlap matrix eigenvalue = 9.00E-03
 Guess from superposition of atomic densities
 Warning:  Energy on first SCF cycle will be non-variational
 SAD guess density has 42.000000 electrons

 -----------------------------------------------------------------------
  General SCF calculation program by
  Eric Jon Sundstrom, Paul Horn, Yuezhi Mao, Dmitri Zuev, Alec White,
  David Stuck, Shaama M.S., Shane Yost, Joonho Lee, David Small,
  Daniel Levine, Susi Lehtola, Hugh Burton, Evgeny Epifanovsky
 -----------------------------------------------------------------------
 Exchange:     0.2000 Hartree-Fock + 0.0800 Slater + 0.7200 B88
 Correlation:  0.1900 VWN1RPA + 0.8100 LYP
 Using SG-1 standard quadrature grid
 using 12 threads for integral computing
 -------------------------------------------------------
 OpenMP Integral computing Module                
 Release: version 1.0, May 2013, Q-Chem Inc. Pittsburgh 
 -------------------------------------------------------
 -------------------------------------------------------
 OpenMP BLAS3 based DFT computing Module                
 Release: version 1.0, May 2013, Q-Chem Inc. Pittsburgh 
 -------------------------------------------------------
 A unrestricted SCF calculation will be
 performed using DIIS
 SCF converges when DIIS error is below 1.0e-06
 Alpha HF Exchange    Energy =  -4.30893128935058
 Beta HF Exchange     Energy =  -4.30893128935058
 DFT Correlation      Energy =  -1.85131996628524
 DFT Exchange         Energy = -33.92496029420939
 One-Electron (alpha) Energy = -479.80730134144403
 One-Electron (beta)  Energy = -479.80730134144403
 Total Coulomb        Energy = 358.20475761016860
 ---------------------------------------
  Cycle       Energy         DIIS error
 ---------------------------------------
    1    -517.3181389828      2.72e-02  
 Alpha HF Exchange    Energy =  -4.45206977165820
 Beta HF Exchange     Energy =  -4.26725146820950
 DFT Correlation      Energy =  -1.87300518238239
 DFT Exchange         Energy = -34.57870766600334
 One-Electron (alpha) Energy = -493.96916370130032
 One-Electron (beta)  Energy = -472.09969873319898
 Total Coulomb        Energy = 365.61257333443189
    2    -517.1414742592      3.77e-03  
 Alpha HF Exchange    Energy =  -4.39664773183115
 Beta HF Exchange     Energy =  -4.21634406802801
 DFT Correlation      Energy =  -1.84468211731593
 DFT Exchange         Energy = -34.12633966830784
 One-Electron (alpha) Energy = -491.08668347989885
 One-Electron (beta)  Energy = -469.23999001109831
 Total Coulomb        Energy = 359.29745439643466
    3    -517.1273837510      4.11e-03  
 Alpha HF Exchange    Energy =  -4.42291460159332
 Beta HF Exchange     Energy =  -4.24035411667495
 DFT Correlation      Energy =  -1.85776071898126
 DFT Exchange         Energy = -34.33762362064410
 One-Electron (alpha) Energy = -492.53792384482017
 One-Electron (beta)  Energy = -470.51467436215290
 Total Coulomb        Energy = 362.19939055172432
    4    -517.2260117841      4.23e-04  
 Alpha HF Exchange    Energy =  -4.42531093313437
 Beta HF Exchange     Energy =  -4.24135826458856
 DFT Correlation      Energy =  -1.85794885470204
 DFT Exchange         Energy = -34.35027621623131
 One-Electron (alpha) Energy = -492.68241094891624
 One-Electron (beta)  Energy = -470.58800254592171
 Total Coulomb        Energy = 362.43244603116989
    5    -517.2270128032      2.12e-04  
 Alpha HF Exchange    Energy =  -4.42484009651447
 Beta HF Exchange     Energy =  -4.24108020387300
 DFT Correlation      Energy =  -1.85765120868825
 DFT Exchange         Energy = -34.34700623418117
 One-Electron (alpha) Energy = -492.65014966537029
 One-Electron (beta)  Energy = -470.53942419539646
 Total Coulomb        Energy = 362.34700742673721
    6    -517.2272952482      5.11e-05  
 Alpha HF Exchange    Energy =  -4.42480594109494
 Beta HF Exchange     Energy =  -4.24096685354145
 DFT Correlation      Energy =  -1.85757536218733
 DFT Exchange         Energy = -34.34627264138587
 One-Electron (alpha) Energy = -492.64928974829581
 One-Electron (beta)  Energy = -470.52859449454309
 Total Coulomb        Energy = 362.33434372967110
    7    -517.2273123823      1.18e-05  
 Alpha HF Exchange    Energy =  -4.42491434012405
 Beta HF Exchange     Energy =  -4.24100252023682
 DFT Correlation      Energy =  -1.85757856873941
 DFT Exchange         Energy = -34.34682017370961
 One-Electron (alpha) Energy = -492.65665297964171
 One-Electron (beta)  Energy = -470.53024365445549
 Total Coulomb        Energy = 362.34404961521017
    8    -517.2273136926      5.60e-06  
 Alpha HF Exchange    Energy =  -4.42489388753357
 Beta HF Exchange     Energy =  -4.24098968546650
 DFT Correlation      Energy =  -1.85756382460967
 DFT Exchange         Energy = -34.34667433242496
 One-Electron (alpha) Energy = -492.65517184120421
 One-Electron (beta)  Energy = -470.52815048890079
 Total Coulomb        Energy = 362.34028119818964
    9    -517.2273139329      1.68e-06  
 Alpha HF Exchange    Energy =  -4.42489650344705
 Beta HF Exchange     Energy =  -4.24098703103864
 DFT Correlation      Energy =  -1.85756327552911
 DFT Exchange         Energy = -34.34667560127352
 One-Electron (alpha) Energy = -492.65515825422960
 One-Electron (beta)  Energy = -470.52806796303304
 Total Coulomb        Energy = 362.34018574502164
   10    -517.2273139544      6.27e-07  Convergence criterion met
 ---------------------------------------
 SCF time:   CPU 22.39s  wall 2.00s 
<S^2> =          2.006391192
 Alpha HF Exchange    Energy =  -4.42489650344705
 Beta HF Exchange     Energy =  -4.24098703103864
 DFT Correlation      Energy =  -1.85756327552911
 DFT Exchange         Energy = -34.34667560127352
 One-Electron (alpha) Energy = -492.65515825422960
 One-Electron (beta)  Energy = -470.52806796303304
 Total Coulomb        Energy = 362.34018574502164
 Nuclear repulsion Energy = 128.48584892908312
 SCF   energy in the final basis set =     -517.2273139544
 Total energy in the final basis set =     -517.2273139544
 
 --------------------------------------------------------------
 
                    Orbital Energies (a.u.)
 --------------------------------------------------------------
 
 Alpha MOs
 -- Occupied --
-88.889 -10.223 -10.196 -10.188  -7.949  -5.920  -5.911  -5.901
 -0.764  -0.759  -0.632  -0.613  -0.454  -0.440  -0.435  -0.417
 -0.395  -0.361  -0.353  -0.284  -0.241  -0.206
 -- Virtual --
  0.029   0.097   0.122   0.131   0.134   0.154   0.160   0.170
  0.212   0.253   0.324   0.359   0.364   0.386   0.477   0.492
  0.504   0.519   0.530   0.583   0.605   0.703   0.705   0.750
  0.755   0.811   0.815   0.831   0.844   0.846   0.851   0.868
  0.877   0.909   0.917   0.943   0.980   1.211   1.271   1.315
  1.435   1.443   1.449   1.563   1.791   1.847   1.943   1.949
  2.005   2.024   2.026   2.039   2.040   2.080   2.085   2.221
  2.317   2.336   2.357   2.365   2.473   2.516   2.578   2.611
  2.682   2.796   2.808   2.831   2.838   2.884   3.157   3.171
  3.281   3.395   3.396   3.417   3.456   3.505   3.896   4.219
  4.367   4.518
 
 Beta MOs
 -- Occupied --
-88.884 -10.223 -10.189 -10.182  -7.944  -5.908  -5.903  -5.898
 -0.749  -0.743  -0.602  -0.588  -0.447  -0.433  -0.430  -0.402
 -0.386  -0.357  -0.342  -0.227
 -- Virtual --
 -0.149  -0.047   0.042   0.101   0.124   0.136   0.143   0.158
  0.161   0.177   0.217   0.261   0.337   0.374   0.391   0.398
  0.495   0.509   0.514   0.522   0.533   0.594   0.627   0.711
  0.729   0.802   0.803   0.829   0.838   0.850   0.853   0.854
  0.859   0.875   0.882   0.912   0.924   0.961   0.990   1.215
  1.280   1.332   1.444   1.453   1.476   1.567   1.816   1.866
  1.946   1.991   2.007   2.027   2.029   2.046   2.049   2.087
  2.087   2.222   2.325   2.339   2.358   2.381   2.488   2.537
  2.582   2.628   2.686   2.798   2.810   2.836   2.843   2.890
  3.161   3.175   3.288   3.396   3.399   3.420   3.463   3.512
  3.913   4.244   4.366   4.527
 --------------------------------------------------------------
 
          Ground-State Mulliken Net Atomic Charges

     Atom                 Charge (a.u.)    Spin (a.u.)
  --------------------------------------------------------
      1 S                    -0.023050       0.999600
      2 C                    -0.226356       1.072763
      3 C                    -0.461123      -0.032767
      4 C                    -0.331795      -0.079591
      5 H                     0.105482      -0.046967
      6 H                     0.105652      -0.046938
      7 H                     0.160843       0.026749
      8 H                     0.159165       0.006479
      9 H                     0.115180       0.014455
     10 H                     0.121140       0.064642
     11 H                     0.115992       0.014738
     12 H                     0.158871       0.006836
  --------------------------------------------------------
  Sum of atomic charges =     0.000000
  Sum of spin   charges =     2.000000

 -----------------------------------------------------------------
                    Cartesian Multipole Moments
 -----------------------------------------------------------------
    Charge (ESU x 10^10)
                 0.0000
    Dipole Moment (Debye)
         X      -2.1532      Y       0.5851      Z       0.4369
       Tot       2.2737
    Quadrupole Moments (Debye-Ang)
        XX     -42.9444     XY       3.1069     YY     -35.0338
        XZ       1.8304     YZ      -2.0904     ZZ     -34.1820
    Octopole Moments (Debye-Ang^2)
       XXX    -127.6452    XXY      18.3251    XYY     -30.9486
       YYY      34.3523    XXZ      15.3434    XYZ      -5.2120
       YYZ      14.5913    XZZ     -31.7314    YZZ      13.4526
       ZZZ      34.4181
    Hexadecapole Moments (Debye-Ang^3)
      XXXX   -1660.2007   XXXY     188.7693   XXYY    -296.0555
      XYYY     169.7606   YYYY    -185.1123   XXXZ     145.6248
      XXYZ     -31.3750   XYYZ      57.6689   YYYZ     -49.0535
      XXZZ    -281.7234   XYZZ      63.1284   YYZZ     -54.7380
      XZZZ     141.4047   YZZZ     -43.6483   ZZZZ    -121.6208
 -----------------------------------------------------------------
 Calculating analytic gradient of the SCF energy
 Gradient of SCF Energy
            1           2           3           4           5           6
    1   0.0196351   0.0002069  -0.0292465  -0.0000294  -0.0000273  -0.0000386
    2  -0.0074353  -0.0000296   0.0099384  -0.0000075  -0.0000311   0.0000113
    3  -0.0044857  -0.0000233   0.0076820   0.0000020   0.0000239  -0.0000074
            7           8           9          10          11          12
    1   0.0028334   0.0033092  -0.0000032   0.0000182   0.0000037   0.0033385
    2  -0.0008276  -0.0008825   0.0000076   0.0000181   0.0000008  -0.0007627
    3  -0.0008971  -0.0011926  -0.0000107  -0.0000122  -0.0000018  -0.0010771
 Max gradient component =       2.925E-02
 RMS gradient           =       6.476E-03
 Gradient time:  CPU 7.64 s  wall 0.70 s
 Geometry Optimization Parameters
   NAtoms,    NIC,     NZ,  NCons,   NDum,   NFix, NCnnct, MaxDiis
       12     369       0       1       0       0       0       0

 Cartesian Hessian Update
 Hessian Updated using BFGS Update


** CONSTRAINED OPTIMIZATION IN DELOCALIZED INTERNAL COORDINATES **
   Searching for a Minimum

   Optimization Cycle:   2

                       Coordinates (Angstroms)
     ATOM                X               Y               Z
      1  S         3.5095520068   -1.0042428971   -0.8095300537
      2  C        -1.5784132260    0.9176611952    0.2966404608
      3  C         1.7737921679   -0.3236443711   -0.4341196423
      4  C        -2.5017761347   -0.2240057878    0.0498855633
      5  H        -1.2227118894    1.1364363298    1.2982251602
      6  H        -1.4142439815    1.6721545226   -0.4657727506
      7  H         1.3949076047   -0.9552164616    0.3710865871
      8  H         1.1674254644   -0.4268654136   -1.3309534592
      9  H        -2.2798108863   -1.0776348579    0.7000411752
     10  H        -3.5540085410    0.0482689581    0.2435122532
     11  H        -2.4592539174   -0.5673245850   -0.9899188277
     12  H         1.8771483325    0.7082103684   -0.1060894663
   Point Group: c1    Number of degrees of freedom:    30


   Energy is   -517.227313954

              Constraints and their Current Values
                                        Value     Constraint
   Distance(Angs):        1   3             1.901844     1.900000
 Hessian Updated using BFGS Update

   Using Lagrange Multiplier Algorithm


 31 Hessian modes will be used to form the next step
  Hessian Eigenvalues:
    -0.949441    0.026124    0.104853    0.124114    0.146824    0.154221
     0.158806    0.164129    0.164636    0.170673    0.192828    0.199443
     0.204571    0.208682    0.216958    0.217383    0.255140    0.274188
     0.288733    0.289992    0.329470    0.644388    0.650942    0.692436
     0.732862    0.775521    0.843287    0.927332    0.933889    1.051515
     1.053610

 Minimum Search - Taking P-RFO Step
 Searching for Lamda that Maximizes Along the Constraint modes Only
 Value Taken    Lamda =   0.00212552
 Searching for Lamda that Minimizes Along All other modes
 Value Taken    Lamda =  -0.00263160
 Step Taken.  Stepsize is  0.010859

                             Maximum     Tolerance    Cnvgd?
         Gradient            0.068954       0.000300      NO
         Displacement        0.068581       0.001200      NO
         Energy change     -0.005938       0.000001      NO


 New Cartesian Coordinates Obtained by Inverse Iteration

 Displacement from previous Coordinates is:  0.002749
 ----------------------------------------------------------------
             Standard Nuclear Orientation (Angstroms)
    I     Atom           X                Y                Z
 ----------------------------------------------------------------
    1      S       3.5090181622    -1.0040155235    -0.8093426061
    2      C      -1.5784138565     0.9176185837     0.2966109298
    3      C       1.7749251672    -0.3239954316    -0.4344703370
    4      C      -2.5017892179    -0.2239894820     0.0498889987
    5      H      -1.2227097242     1.1363921766     1.2981512960
    6      H      -1.4142563097     1.6720742628    -0.4657523581
    7      H       1.3948630072    -0.9553246691     0.3712406164
    8      H       1.1671824948    -0.4267879388    -1.3310069273
    9      H      -2.2798333945    -1.0775681320     0.7000600053
   10      H      -3.5540305085     0.0482790743     0.2435234755
   11      H      -2.4592746977    -0.5672388383    -0.9898870930
   12      H       1.8769258777     0.7083529178    -0.1060090003
 ----------------------------------------------------------------
 Nuclear Repulsion Energy =   128.5086139219 hartrees
 There are       22 alpha and       20 beta electrons

                       Distance Matrix (Angstroms)
             S (  1)   C (  2)   C (  3)   C (  4)   H (  5)   H (  6)
   C (  2)  5.549574
   C (  3)  1.900009  3.649790
   C (  4)  6.121807  1.488880  4.305217
   H (  5)  5.604652  1.085113  3.757729  2.246072
   H (  6)  5.614102  1.085057  3.762466  2.245812  1.853376
   H (  7)  2.421941  3.514806  1.091876  3.977690  3.476511  3.936360
   H (  8)  2.467695  3.463361  1.087978  3.925475  3.881699  3.437690
   H (  9)  5.982851  2.153028  4.277394  1.095711  2.525241  3.109482
   H ( 10)  7.218207  2.159081  5.384796  1.104009  2.780519  2.778204
   H ( 11)  5.986977  2.153090  4.277394  1.095793  3.109111  2.526124
   H ( 12)  2.467916  3.485006  1.088133  4.479588  3.429668  3.448196
             H (  7)   H (  8)   H (  9)   H ( 10)   H ( 11)
   H (  8)  1.796896
   H (  9)  3.691403  4.053476
   H ( 10)  5.051245  4.999469  1.760550
   H ( 11)  4.105808  3.645172  1.774417  1.760299
   H ( 12)  1.796657  1.814635  4.595423  5.482076  4.605541
 
 Applying Cartesian multipole field
    Component          Value
    ---------          -----
     (2,0,0)        1.00000E-11
     (0,2,0)        2.00000E-11
     (0,0,2)       -3.00000E-10
 Nucleus-field energy     =    -0.0000000059 hartrees
 Requested basis set is 6-31G(d,p)
 There are 41 shells and 104 basis functions
 A cutoff of  1.0D-14 yielded    770 shell pairs
 There are      4894 function pairs
 Smallest overlap matrix eigenvalue = 9.00E-03
 Guess from superposition of atomic densities
 Warning:  Energy on first SCF cycle will be non-variational
 SAD guess density has 42.000000 electrons

 -----------------------------------------------------------------------
  General SCF calculation program by
  Eric Jon Sundstrom, Paul Horn, Yuezhi Mao, Dmitri Zuev, Alec White,
  David Stuck, Shaama M.S., Shane Yost, Joonho Lee, David Small,
  Daniel Levine, Susi Lehtola, Hugh Burton, Evgeny Epifanovsky
 -----------------------------------------------------------------------
 Exchange:     0.2000 Hartree-Fock + 0.0800 Slater + 0.7200 B88
 Correlation:  0.1900 VWN1RPA + 0.8100 LYP
 Using SG-1 standard quadrature grid
 using 12 threads for integral computing
 -------------------------------------------------------
 OpenMP Integral computing Module                
 Release: version 1.0, May 2013, Q-Chem Inc. Pittsburgh 
 -------------------------------------------------------
 -------------------------------------------------------
 OpenMP BLAS3 based DFT computing Module                
 Release: version 1.0, May 2013, Q-Chem Inc. Pittsburgh 
 -------------------------------------------------------
 A unrestricted SCF calculation will be
 performed using DIIS
 SCF converges when DIIS error is below 1.0e-06
 Alpha HF Exchange    Energy =  -4.30898749004469
 Beta HF Exchange     Energy =  -4.30898749004469
 DFT Correlation      Energy =  -1.85134009830702
 DFT Exchange         Energy = -33.92506398589715
 One-Electron (alpha) Energy = -479.83037739209396
 One-Electron (beta)  Energy = -479.83037739209396
 Total Coulomb        Energy = 358.22754766639110
 ---------------------------------------
  Cycle       Energy         DIIS error
 ---------------------------------------
    1    -517.3189722661      2.72e-02  
 Alpha HF Exchange    Energy =  -4.45207893112341
 Beta HF Exchange     Energy =  -4.26724155692530
 DFT Correlation      Energy =  -1.87302749696912
 DFT Exchange         Energy = -34.57868081366777
 One-Electron (alpha) Energy = -493.99309558675299
 One-Electron (beta)  Energy = -472.12308934411516
 Total Coulomb        Energy = 365.63698768308961
    2    -517.1416121305      3.77e-03  
 Alpha HF Exchange    Energy =  -4.39663241567532
 Beta HF Exchange     Energy =  -4.21632490876155
 DFT Correlation      Energy =  -1.84469874637069
 DFT Exchange         Energy = -34.12620411151026
 One-Electron (alpha) Energy = -491.10761196136036
 One-Electron (beta)  Energy = -469.26110130274179
 Total Coulomb        Energy = 359.31634461297944
    3    -517.1276149174      4.10e-03  
 Alpha HF Exchange    Energy =  -4.42292988679910
 Beta HF Exchange     Energy =  -4.24035463984349
 DFT Correlation      Energy =  -1.85778331466893
 DFT Exchange         Energy = -34.33766452230326
 One-Electron (alpha) Energy = -492.56162433154151
 One-Electron (beta)  Energy = -470.53782992170619
 Total Coulomb        Energy = 362.22345095963919
    4    -517.2261217412      4.22e-04  
 Alpha HF Exchange    Energy =  -4.42531427331054
 Beta HF Exchange     Energy =  -4.24135043645154
 DFT Correlation      Energy =  -1.85796824466399
 DFT Exchange         Energy = -34.35023931210334
 One-Electron (alpha) Energy = -492.70522061370258
 One-Electron (beta)  Energy = -470.61045263510891
 Total Coulomb        Energy = 362.45481644875804
    5    -517.2271151506      2.12e-04  
 Alpha HF Exchange    Energy =  -4.42484486030324
 Beta HF Exchange     Energy =  -4.24107425094061
 DFT Correlation      Energy =  -1.85767139432837
 DFT Exchange         Energy = -34.34698137111424
 One-Electron (alpha) Energy = -492.67310464028333
 One-Electron (beta)  Energy = -470.56202276593910
 Total Coulomb        Energy = 362.36968881346587
    6    -517.2273965535      5.10e-05  
 Alpha HF Exchange    Energy =  -4.42481124317874
 Beta HF Exchange     Energy =  -4.24096141709788
 DFT Correlation      Energy =  -1.85759570435016
 DFT Exchange         Energy = -34.34625204766503
 One-Electron (alpha) Energy = -492.67227630926504
 One-Electron (beta)  Energy = -470.55122815809568
 Total Coulomb        Energy = 362.35709731232464
    7    -517.2274136513      1.18e-05  
 Alpha HF Exchange    Energy =  -4.42491949528809
 Beta HF Exchange     Energy =  -4.24099710614333
 DFT Correlation      Energy =  -1.85759893238104
 DFT Exchange         Energy = -34.34679909413323
 One-Electron (alpha) Energy = -492.67963112181900
 One-Electron (beta)  Energy = -470.55288239670006
 Total Coulomb        Energy = 362.36679927268642
    8    -517.2274149578      5.59e-06  
 Alpha HF Exchange    Energy =  -4.42489901775029
 Beta HF Exchange     Energy =  -4.24098428567150
 DFT Correlation      Energy =  -1.85758420089274
 DFT Exchange         Energy = -34.34665320697908
 One-Electron (alpha) Energy = -492.67814692348026
 One-Electron (beta)  Energy = -470.55079091585310
 Total Coulomb        Energy = 362.36302943734910
    9    -517.2274151973      1.67e-06  
 Alpha HF Exchange    Energy =  -4.42490162932608
 Beta HF Exchange     Energy =  -4.24098164343560
 DFT Correlation      Energy =  -1.85758365736577
 DFT Exchange         Energy = -34.34665450951694
 One-Electron (alpha) Energy = -492.67813322819751
 One-Electron (beta)  Energy = -470.55070960823826
 Total Coulomb        Energy = 362.36293514137969
   10    -517.2274152187      6.26e-07  Convergence criterion met
 ---------------------------------------
 SCF time:   CPU 22.68s  wall 2.00s 
<S^2> =          2.006386738
 Alpha HF Exchange    Energy =  -4.42490162932608
 Beta HF Exchange     Energy =  -4.24098164343560
 DFT Correlation      Energy =  -1.85758365736577
 DFT Exchange         Energy = -34.34665450951694
 One-Electron (alpha) Energy = -492.67813322819751
 One-Electron (beta)  Energy = -470.55070960823826
 Total Coulomb        Energy = 362.36293514137969
 Nuclear repulsion Energy = 128.50861391599241
 SCF   energy in the final basis set =     -517.2274152187
 Total energy in the final basis set =     -517.2274152187
 
 --------------------------------------------------------------
 
                    Orbital Energies (a.u.)
 --------------------------------------------------------------
 
 Alpha MOs
 -- Occupied --
-88.889 -10.223 -10.196 -10.188  -7.949  -5.920  -5.911  -5.901
 -0.764  -0.759  -0.632  -0.613  -0.454  -0.439  -0.435  -0.417
 -0.395  -0.361  -0.353  -0.284  -0.241  -0.206
 -- Virtual --
  0.030   0.097   0.122   0.131   0.134   0.154   0.159   0.170
  0.212   0.253   0.324   0.359   0.364   0.386   0.478   0.492
  0.504   0.519   0.530   0.583   0.605   0.703   0.705   0.750
  0.755   0.811   0.815   0.832   0.844   0.846   0.851   0.868
  0.877   0.909   0.917   0.943   0.980   1.211   1.271   1.315
  1.435   1.443   1.449   1.563   1.791   1.847   1.943   1.949
  2.005   2.024   2.026   2.040   2.040   2.080   2.085   2.221
  2.317   2.334   2.356   2.365   2.473   2.516   2.578   2.611
  2.682   2.795   2.807   2.831   2.838   2.885   3.156   3.170
  3.281   3.394   3.395   3.417   3.456   3.505   3.896   4.219
  4.367   4.518
 
 Beta MOs
 -- Occupied --
-88.884 -10.223 -10.189 -10.182  -7.944  -5.908  -5.903  -5.898
 -0.749  -0.743  -0.602  -0.588  -0.447  -0.433  -0.430  -0.401
 -0.386  -0.357  -0.343  -0.227
 -- Virtual --
 -0.149  -0.047   0.042   0.101   0.124   0.136   0.143   0.157
  0.161   0.177   0.217   0.261   0.337   0.374   0.391   0.398
  0.496   0.509   0.514   0.522   0.533   0.594   0.627   0.711
  0.729   0.802   0.803   0.828   0.839   0.850   0.853   0.854
  0.859   0.875   0.881   0.912   0.924   0.961   0.990   1.215
  1.280   1.332   1.444   1.453   1.476   1.567   1.816   1.866
  1.946   1.991   2.007   2.027   2.029   2.046   2.050   2.087
  2.087   2.223   2.325   2.337   2.357   2.381   2.488   2.537
  2.582   2.628   2.686   2.797   2.809   2.836   2.843   2.890
  3.160   3.174   3.288   3.395   3.398   3.420   3.463   3.512
  3.913   4.244   4.366   4.527
 --------------------------------------------------------------
 
          Ground-State Mulliken Net Atomic Charges

     Atom                 Charge (a.u.)    Spin (a.u.)
  --------------------------------------------------------
      1 S                    -0.022469       0.999156
      2 C                    -0.226365       1.072771
      3 C                    -0.461343      -0.032709
      4 C                    -0.331795      -0.079594
      5 H                     0.105476      -0.046966
      6 H                     0.105652      -0.046936
      7 H                     0.160779       0.027013
      8 H                     0.159022       0.006521
      9 H                     0.115180       0.014456
     10 H                     0.121131       0.064658
     11 H                     0.115999       0.014738
     12 H                     0.158732       0.006892
  --------------------------------------------------------
  Sum of atomic charges =     0.000000
  Sum of spin   charges =     2.000000

 -----------------------------------------------------------------
                    Cartesian Multipole Moments
 -----------------------------------------------------------------
    Charge (ESU x 10^10)
                 0.0000
    Dipole Moment (Debye)
         X      -2.1516      Y       0.5842      Z       0.4368
       Tot       2.2719
    Quadrupole Moments (Debye-Ang)
        XX     -42.9349     XY       3.1033     YY     -35.0333
        XZ       1.8282     YZ      -2.0893     ZZ     -34.1828
    Octopole Moments (Debye-Ang^2)
       XXX    -127.5867    XXY      18.3104    XYY     -30.9416
       YYY      34.3447    XXZ      15.3311    XYZ      -5.2063
       YYZ      14.5876    XZZ     -31.7285    YZZ      13.4492
       ZZZ      34.4167
    Hexadecapole Moments (Debye-Ang^3)
      XXXX   -1659.7579   XXXY     188.6764   XXYY    -295.9986
      XYYY     169.7049   YYYY    -185.0725   XXXZ     145.5481
      XXYZ     -31.3500   XYYZ      57.6463   YYYZ     -49.0322
      XXZZ    -281.6788   XYZZ      63.1066   YYZZ     -54.7258
      XZZZ     141.3732   YZZZ     -43.6324   ZZZZ    -121.6105
 -----------------------------------------------------------------
 Calculating analytic gradient of the SCF energy
 Gradient of SCF Energy
            1           2           3           4           5           6
    1   0.0193533   0.0002104  -0.0285293  -0.0000101  -0.0000374  -0.0000456
    2  -0.0073269  -0.0000197   0.0097348  -0.0000200  -0.0000360  -0.0000182
    3  -0.0044214  -0.0000365   0.0074580  -0.0000109  -0.0000028   0.0000246
            7           8           9          10          11          12
    1   0.0026526   0.0030989  -0.0000064   0.0000150   0.0000045   0.0032938
    2  -0.0010099  -0.0008722   0.0000283   0.0000159   0.0000192  -0.0004953
    3  -0.0006173  -0.0013979  -0.0000169  -0.0000122   0.0000251  -0.0009917
 Max gradient component =       2.853E-02
 RMS gradient           =       6.335E-03
 Gradient time:  CPU 7.58 s  wall 0.70 s
 Geometry Optimization Parameters
   NAtoms,    NIC,     NZ,  NCons,   NDum,   NFix, NCnnct, MaxDiis
       12     369       0       1       0       0       0       0

 Cartesian Hessian Update
 Hessian Updated using BFGS Update


** CONSTRAINED OPTIMIZATION IN DELOCALIZED INTERNAL COORDINATES **
   Searching for a Minimum

   Optimization Cycle:   3

                       Coordinates (Angstroms)
     ATOM                X               Y               Z
      1  S         3.5090181622   -1.0040155235   -0.8093426061
      2  C        -1.5784138565    0.9176185837    0.2966109298
      3  C         1.7749251672   -0.3239954316   -0.4344703370
      4  C        -2.5017892179   -0.2239894820    0.0498889987
      5  H        -1.2227097242    1.1363921766    1.2981512960
      6  H        -1.4142563097    1.6720742628   -0.4657523581
      7  H         1.3948630072   -0.9553246691    0.3712406164
      8  H         1.1671824948   -0.4267879388   -1.3310069273
      9  H        -2.2798333945   -1.0775681320    0.7000600053
     10  H        -3.5540305085    0.0482790743    0.2435234755
     11  H        -2.4592746977   -0.5672388383   -0.9898870930
     12  H         1.8769258777    0.7083529178   -0.1060090003
   Point Group: c1    Number of degrees of freedom:    30


   Energy is   -517.227415219

              Constraints and their Current Values
                                        Value     Constraint
   Distance(Angs):        1   3             1.900009     1.900000
 Hessian Updated using BFGS Update

   Using Lagrange Multiplier Algorithm


 31 Hessian modes will be used to form the next step
  Hessian Eigenvalues:
    -0.932816    0.018315    0.026508    0.105219    0.124289    0.146842
     0.154691    0.159417    0.164479    0.164731    0.170675    0.192835
     0.199447    0.204745    0.209817    0.217152    0.217400    0.274100
     0.287800    0.289153    0.329467    0.644278    0.650945    0.692154
     0.731574    0.783496    0.854288    0.927498    0.933925    1.051512
     1.076248

 Minimum Search - Taking P-RFO Step
 Searching for Lamda that Maximizes Along the Constraint modes Only
 Value Taken    Lamda =   0.00000000
 Searching for Lamda that Minimizes Along All other modes
 Value Taken    Lamda =  -0.00035109
 Step Taken.  Stepsize is  0.136294

                             Maximum     Tolerance    Cnvgd?
         Gradient            0.001392       0.000300      NO
         Displacement        0.067459       0.001200      NO
         Energy change     -0.000101       0.000001      NO


 New Cartesian Coordinates Obtained by Inverse Iteration

 Displacement from previous Coordinates is:  0.042483
 ----------------------------------------------------------------
             Standard Nuclear Orientation (Angstroms)
    I     Atom           X                Y                Z
 ----------------------------------------------------------------
    1      S       3.5223430060    -1.0082608442    -0.8110147321
    2      C      -1.5803984298     0.9175584578     0.2965966001
    3      C       1.7880336084    -0.3274785309    -0.4385793111
    4      C      -2.5037670155    -0.2234407761     0.0502308760
    5      H      -1.2246873761     1.1363265067     1.2975639616
    6      H      -1.4164526821     1.6715756202    -0.4651172909
    7      H       1.3926608475    -0.9549092843     0.3729234756
    8      H       1.1624258245    -0.4245549412    -1.3303066581
    9      H      -2.2817394240    -1.0763733809     0.7005634246
   10      H      -3.5561674818     0.0485735111     0.2439413782
   11      H      -2.4611989657    -0.5657909338    -0.9892228305
   12      H       1.8715550887     0.7105715955    -0.1045718934
 ----------------------------------------------------------------
 Nuclear Repulsion Energy =   128.2883391563 hartrees
 There are       22 alpha and       20 beta electrons

                       Distance Matrix (Angstroms)
             S (  1)   C (  2)   C (  3)   C (  4)   H (  5)   H (  6)
   C (  2)  5.565389
   C (  3)  1.900000  3.665643
   C (  4)  6.137727  1.488350  4.320800
   H (  5)  5.619578  1.084585  3.772719  2.245184
   H (  6)  5.629642  1.084264  3.776990  2.244755  1.852110
   H (  7)  2.437232  3.514405  1.099330  3.977603  3.475448  3.935969
   H (  8)  2.485877  3.459937  1.093612  3.922665  3.878191  3.434084
   H (  9)  5.998073  2.151937  4.292032  1.095319  2.523848  3.107854
   H ( 10)  7.234303  2.159067  5.400716  1.104112  2.780131  2.777639
   H ( 11)  6.002525  2.151620  4.291384  1.095208  3.107339  2.524280
   H ( 12)  2.485668  3.481345  1.093657  4.476582  3.425488  3.444491
             H (  7)   H (  8)   H (  9)   H ( 10)   H ( 11)
   H (  8)  1.798688
   H (  9)  3.690978  4.051120
   H ( 10)  5.051190  4.996722  1.760164
   H ( 11)  4.105982  3.642381  1.774339  1.759856
   H ( 12)  1.797545  1.814884  4.592523  5.479040  4.602659
 
 Applying Cartesian multipole field
    Component          Value
    ---------          -----
     (2,0,0)        1.00000E-11
     (0,2,0)        2.00000E-11
     (0,0,2)       -3.00000E-10
 Nucleus-field energy     =    -0.0000000058 hartrees
 Requested basis set is 6-31G(d,p)
 There are 41 shells and 104 basis functions
 A cutoff of  1.0D-14 yielded    770 shell pairs
 There are      4894 function pairs
 Smallest overlap matrix eigenvalue = 8.98E-03
 Guess from superposition of atomic densities
 Warning:  Energy on first SCF cycle will be non-variational
 SAD guess density has 42.000000 electrons

 -----------------------------------------------------------------------
  General SCF calculation program by
  Eric Jon Sundstrom, Paul Horn, Yuezhi Mao, Dmitri Zuev, Alec White,
  David Stuck, Shaama M.S., Shane Yost, Joonho Lee, David Small,
  Daniel Levine, Susi Lehtola, Hugh Burton, Evgeny Epifanovsky
 -----------------------------------------------------------------------
 Exchange:     0.2000 Hartree-Fock + 0.0800 Slater + 0.7200 B88
 Correlation:  0.1900 VWN1RPA + 0.8100 LYP
 Using SG-1 standard quadrature grid
 using 12 threads for integral computing
 -------------------------------------------------------
 OpenMP Integral computing Module                
 Release: version 1.0, May 2013, Q-Chem Inc. Pittsburgh 
 -------------------------------------------------------
 -------------------------------------------------------
 OpenMP BLAS3 based DFT computing Module                
 Release: version 1.0, May 2013, Q-Chem Inc. Pittsburgh 
 -------------------------------------------------------
 A unrestricted SCF calculation will be
 performed using DIIS
 SCF converges when DIIS error is below 1.0e-06
 Alpha HF Exchange    Energy =  -4.30797291050665
 Beta HF Exchange     Energy =  -4.30797291050665
 DFT Correlation      Energy =  -1.85108771360822
 DFT Exchange         Energy = -33.92290084791951
 One-Electron (alpha) Energy = -479.61830093345674
 One-Electron (beta)  Energy = -479.61830093345674
 Total Coulomb        Energy = 358.02587393185399
 ---------------------------------------
  Cycle       Energy         DIIS error
 ---------------------------------------
    1    -517.3123231672      2.71e-02  
 Alpha HF Exchange    Energy =  -4.45125624346213
 Beta HF Exchange     Energy =  -4.26641316636193
 DFT Correlation      Energy =  -1.87268458703166
 DFT Exchange         Energy = -34.57267425466510
 One-Electron (alpha) Energy = -493.75695595259640
 One-Electron (beta)  Energy = -471.90743451899908
 Total Coulomb        Energy = 365.39661189551134
    2    -517.1424676772      3.75e-03  
 Alpha HF Exchange    Energy =  -4.39598884491976
 Beta HF Exchange     Energy =  -4.21573013659239
 DFT Correlation      Energy =  -1.84442048695515
 DFT Exchange         Energy = -34.12189974779771
 One-Electron (alpha) Energy = -490.87704015218691
 One-Electron (beta)  Energy = -469.05117422112983
 Total Coulomb        Energy = 359.08918603284030
    3    -517.1287284063      4.09e-03  
 Alpha HF Exchange    Energy =  -4.42229751943942
 Beta HF Exchange     Energy =  -4.23973446845637
 DFT Correlation      Energy =  -1.85749923344956
 DFT Exchange         Energy = -34.33326764787507
 One-Electron (alpha) Energy = -492.33483526002777
 One-Electron (beta)  Energy = -470.32978789262432
 Total Coulomb        Energy = 362.00276330131601
    4    -517.2263195702      4.22e-04  
 Alpha HF Exchange    Energy =  -4.42462401109214
 Beta HF Exchange     Energy =  -4.24067879032485
 DFT Correlation      Energy =  -1.85766325451700
 DFT Exchange         Energy = -34.34539117842336
 One-Electron (alpha) Energy = -492.47420120372288
 One-Electron (beta)  Energy = -470.39902165150517
 Total Coulomb        Energy = 362.22593488270223
    5    -517.2273060565      2.13e-04  
 Alpha HF Exchange    Energy =  -4.42417528499533
 Beta HF Exchange     Energy =  -4.24042286447830
 DFT Correlation      Energy =  -1.85737453419345
 DFT Exchange         Energy = -34.34229774025478
 One-Electron (alpha) Energy = -492.44353960120145
 One-Electron (beta)  Energy = -470.35169808621981
 Total Coulomb        Energy = 362.14357762003334
    6    -517.2275913409      5.05e-05  
 Alpha HF Exchange    Energy =  -4.42413732184808
 Beta HF Exchange     Energy =  -4.24030836816519
 DFT Correlation      Energy =  -1.85729665617107
 DFT Exchange         Energy = -34.34154165049126
 One-Electron (alpha) Energy = -492.44248516604353
 One-Electron (beta)  Energy = -470.34069202942203
 Total Coulomb        Energy = 362.13051387711124
    7    -517.2276081646      1.18e-05  
 Alpha HF Exchange    Energy =  -4.42424579217807
 Beta HF Exchange     Energy =  -4.24034455663133
 DFT Correlation      Energy =  -1.85730027397612
 DFT Exchange         Energy = -34.34209192983833
 One-Electron (alpha) Energy = -492.44986220517075
 One-Electron (beta)  Energy = -470.34240821316848
 Total Coulomb        Energy = 362.14030435028911
    8    -517.2276094703      5.60e-06  
 Alpha HF Exchange    Energy =  -4.42422523300524
 Beta HF Exchange     Energy =  -4.24033199436191
 DFT Correlation      Energy =  -1.85728551021045
 DFT Exchange         Energy = -34.34194651891374
 One-Electron (alpha) Energy = -492.44837173284770
 One-Electron (beta)  Energy = -470.34031907106271
 Total Coulomb        Energy = 362.13653119970331
    9    -517.2276097103      1.67e-06  
 Alpha HF Exchange    Energy =  -4.42422777400078
 Beta HF Exchange     Energy =  -4.24032940022609
 DFT Correlation      Energy =  -1.85728495981100
 DFT Exchange         Energy = -34.34194771784374
 One-Electron (alpha) Energy = -492.44835469398714
 One-Electron (beta)  Energy = -470.34023913528523
 Total Coulomb        Energy = 362.13643479925156
   10    -517.2276097315      6.22e-07  Convergence criterion met
 ---------------------------------------
 SCF time:   CPU 22.47s  wall 2.00s 
<S^2> =          2.006380305
 Alpha HF Exchange    Energy =  -4.42422777400078
 Beta HF Exchange     Energy =  -4.24032940022609
 DFT Correlation      Energy =  -1.85728495981100
 DFT Exchange         Energy = -34.34194771784374
 One-Electron (alpha) Energy = -492.44835469398714
 One-Electron (beta)  Energy = -470.34023913528523
 Total Coulomb        Energy = 362.13643479925156
 Nuclear repulsion Energy = 128.28833915040363
 SCF   energy in the final basis set =     -517.2276097315
 Total energy in the final basis set =     -517.2276097315
 
 --------------------------------------------------------------
 
                    Orbital Energies (a.u.)
 --------------------------------------------------------------
 
 Alpha MOs
 -- Occupied --
-88.890 -10.224 -10.196 -10.188  -7.950  -5.921  -5.912  -5.902
 -0.763  -0.760  -0.632  -0.613  -0.454  -0.436  -0.432  -0.417
 -0.395  -0.361  -0.355  -0.285  -0.242  -0.206
 -- Virtual --
  0.029   0.097   0.122   0.131   0.134   0.153   0.159   0.170
  0.212   0.253   0.323   0.359   0.363   0.385   0.479   0.493
  0.505   0.520   0.530   0.583   0.605   0.703   0.705   0.750
  0.754   0.812   0.814   0.831   0.844   0.845   0.852   0.865
  0.875   0.909   0.917   0.943   0.975   1.207   1.271   1.315
  1.435   1.441   1.447   1.564   1.791   1.847   1.944   1.948
  2.007   2.023   2.028   2.035   2.040   2.080   2.086   2.222
  2.315   2.317   2.337   2.365   2.474   2.517   2.589   2.612
  2.682   2.786   2.795   2.831   2.839   2.886   3.139   3.166
  3.282   3.384   3.387   3.418   3.457   3.507   3.895   4.219
  4.364   4.518
 
 Beta MOs
 -- Occupied --
-88.885 -10.224 -10.188 -10.182  -7.945  -5.909  -5.904  -5.899
 -0.748  -0.743  -0.603  -0.589  -0.447  -0.430  -0.427  -0.401
 -0.387  -0.357  -0.344  -0.228
 -- Virtual --
 -0.149  -0.047   0.041   0.101   0.124   0.135   0.143   0.157
  0.160   0.177   0.217   0.262   0.336   0.373   0.391   0.397
  0.496   0.511   0.516   0.523   0.533   0.593   0.627   0.710
  0.729   0.802   0.802   0.827   0.840   0.850   0.852   0.855
  0.860   0.873   0.879   0.912   0.924   0.961   0.986   1.211
  1.280   1.332   1.441   1.451   1.476   1.567   1.816   1.867
  1.947   1.989   2.009   2.029   2.031   2.045   2.046   2.087
  2.088   2.223   2.319   2.325   2.339   2.382   2.488   2.539
  2.593   2.629   2.686   2.787   2.797   2.837   2.844   2.891
  3.143   3.171   3.289   3.387   3.387   3.421   3.464   3.514
  3.912   4.244   4.364   4.527
 --------------------------------------------------------------
 
          Ground-State Mulliken Net Atomic Charges

     Atom                 Charge (a.u.)    Spin (a.u.)
  --------------------------------------------------------
      1 S                    -0.017830       0.997977
      2 C                    -0.226639       1.072663
      3 C                    -0.461724      -0.033340
      4 C                    -0.331812      -0.079625
      5 H                     0.105497      -0.046932
      6 H                     0.105734      -0.046894
      7 H                     0.159667       0.028286
      8 H                     0.157434       0.006609
      9 H                     0.115257       0.014463
     10 H                     0.121089       0.064852
     11 H                     0.116118       0.014734
     12 H                     0.157208       0.007208
  --------------------------------------------------------
  Sum of atomic charges =     0.000000
  Sum of spin   charges =     2.000000

 -----------------------------------------------------------------
                    Cartesian Multipole Moments
 -----------------------------------------------------------------
    Charge (ESU x 10^10)
                 0.0000
    Dipole Moment (Debye)
         X      -2.1395      Y       0.5768      Z       0.4355
       Tot       2.2583
    Quadrupole Moments (Debye-Ang)
        XX     -42.8205     XY       3.0500     YY     -35.0397
        XZ       1.7957     YZ      -2.0765     ZZ     -34.2197
    Octopole Moments (Debye-Ang^2)
       XXX    -127.5953    XXY      18.1498    XYY     -31.0991
       YYY      34.5074    XXZ      15.1761    XYZ      -5.1521
       YYZ      14.6123    XZZ     -31.9818    YZZ      13.5243
       ZZZ      34.5921
    Hexadecapole Moments (Debye-Ang^3)
      XXXX   -1665.7694   XXXY     189.0361   XXYY    -297.3449
      XYYY     170.7747   YYYY    -185.6873   XXXZ     145.4545
      XXYZ     -31.2620   XYYZ      57.8725   YYYZ     -49.2043
      XXZZ    -283.1985   XYZZ      63.5488   YYZZ     -54.9226
      XZZZ     142.3027   YZZZ     -43.8891   ZZZZ    -122.1022
 -----------------------------------------------------------------
 Calculating analytic gradient of the SCF energy
 Gradient of SCF Energy
            1           2           3           4           5           6
    1   0.0212747   0.0002285  -0.0224508   0.0002121  -0.0001643  -0.0001281
    2  -0.0082020   0.0001250   0.0086327  -0.0001629  -0.0001006  -0.0003949
    3  -0.0047013  -0.0001807   0.0049851  -0.0001594  -0.0003545   0.0004296
            7           8           9          10          11          12
    1  -0.0002659  -0.0003163  -0.0000382  -0.0000301   0.0000237   0.0016547
    2  -0.0027077  -0.0004240   0.0002819  -0.0000120   0.0002424   0.0027222
    3   0.0027140  -0.0032554  -0.0000938  -0.0000111   0.0003467   0.0002806
 Max gradient component =       2.245E-02
 RMS gradient           =       5.731E-03
 Gradient time:  CPU 7.61 s  wall 0.68 s
 Geometry Optimization Parameters
   NAtoms,    NIC,     NZ,  NCons,   NDum,   NFix, NCnnct, MaxDiis
       12     369       0       1       0       0       0       0

 Cartesian Hessian Update
 Hessian Updated using BFGS Update


** CONSTRAINED OPTIMIZATION IN DELOCALIZED INTERNAL COORDINATES **
   Searching for a Minimum

   Optimization Cycle:   4

                       Coordinates (Angstroms)
     ATOM                X               Y               Z
      1  S         3.5223430060   -1.0082608442   -0.8110147321
      2  C        -1.5803984298    0.9175584578    0.2965966001
      3  C         1.7880336084   -0.3274785309   -0.4385793111
      4  C        -2.5037670155   -0.2234407761    0.0502308760
      5  H        -1.2246873761    1.1363265067    1.2975639616
      6  H        -1.4164526821    1.6715756202   -0.4651172909
      7  H         1.3926608475   -0.9549092843    0.3729234756
      8  H         1.1624258245   -0.4245549412   -1.3303066581
      9  H        -2.2817394240   -1.0763733809    0.7005634246
     10  H        -3.5561674818    0.0485735111    0.2439413782
     11  H        -2.4611989657   -0.5657909338   -0.9892228305
     12  H         1.8715550887    0.7105715955   -0.1045718934
   Point Group: c1    Number of degrees of freedom:    30


   Energy is   -517.227609731

              Constraints and their Current Values
                                        Value     Constraint
   Distance(Angs):        1   3             1.900000     1.900000
 Hessian Updated using BFGS Update

 29 Hessian modes will be used to form the next step
  Hessian Eigenvalues:
     0.015415    0.026322    0.105179    0.124294    0.146842    0.154713
     0.159449    0.164500    0.164748    0.170677    0.192841    0.199448
     0.204743    0.209846    0.217152    0.217403    0.274101    0.287827
     0.289151    0.329469    0.644284    0.650969    0.692648    0.735076
     0.792251    0.918208    0.931355    0.935981    1.051516

 Minimum Search - Taking Simple RFO Step
 Searching for Lamda that Minimizes Along All modes
 Value Taken    Lamda =  -0.00003385
 Step Taken.  Stepsize is  0.028874

                             Maximum     Tolerance    Cnvgd?
         Gradient           0.002201      0.000300      NO
         Displacement       0.014951      0.001200      NO
         Energy change     -0.000195      0.000001      NO


 New Cartesian Coordinates Obtained by Inverse Iteration

 Displacement from previous Coordinates is:  0.008881
 ----------------------------------------------------------------
             Standard Nuclear Orientation (Angstroms)
    I     Atom           X                Y                Z
 ----------------------------------------------------------------
    1      S       3.5247326016    -1.0091715227    -0.8112101760
    2      C      -1.5807055015     0.9175898552     0.2966191517
    3      C       1.7904110907    -0.3281139818    -0.4393347804
    4      C      -2.5041705630    -0.2233693548     0.0502951849
    5      H      -1.2248676750     1.1363368182     1.2975522527
    6      H      -1.4167119283     1.6716163930    -0.4651021805
    7      H       1.3924027091    -0.9537325463     0.3721028901
    8      H       1.1617283007    -0.4239091730    -1.3288938643
    9      H      -2.2820185318    -1.0762909198     0.7006197444
   10      H      -3.5565759721     0.0486247883     0.2440487200
   11      H      -2.4615525007    -0.5656833116    -0.9892015493
   12      H       1.8699349703     0.7098999552    -0.1044883931
 ----------------------------------------------------------------
 Nuclear Repulsion Energy =   128.2593323265 hartrees
 There are       22 alpha and       20 beta electrons

                       Distance Matrix (Angstroms)
             S (  1)   C (  2)   C (  3)   C (  4)   H (  5)   H (  6)
   C (  2)  5.568231
   C (  3)  1.900000  3.668492
   C (  4)  6.140631  1.488372  4.323672
   H (  5)  5.622169  1.084591  3.775354  2.245232
   H (  6)  5.632432  1.084283  3.779580  2.244810  1.852101
   H (  7)  2.439290  3.513818  1.099200  3.977471  3.474903  3.935034
   H (  8)  2.488839  3.458736  1.093496  3.921886  3.876652  3.433033
   H (  9)  6.000708  2.151887  4.294642  1.095330  2.523810  3.107838
   H ( 10)  7.237226  2.159150  5.403630  1.104119  2.780261  2.777772
   H ( 11)  6.005329  2.151587  4.293948  1.095239  3.107331  2.524259
   H ( 12)  2.488577  3.480078  1.093581  4.475237  3.424233  3.443398
             H (  7)   H (  8)   H (  9)   H ( 10)   H ( 11)
   H (  8)  1.796473
   H (  9)  3.691113  4.050175
   H ( 10)  5.051090  4.995982  1.760224
   H ( 11)  4.105692  3.641930  1.774387  1.759931
   H ( 12)  1.795230  1.812801  4.591012  5.477754  4.601262
 
 Applying Cartesian multipole field
    Component          Value
    ---------          -----
     (2,0,0)        1.00000E-11
     (0,2,0)        2.00000E-11
     (0,0,2)       -3.00000E-10
 Nucleus-field energy     =    -0.0000000058 hartrees
 Requested basis set is 6-31G(d,p)
 There are 41 shells and 104 basis functions
 A cutoff of  1.0D-14 yielded    769 shell pairs
 There are      4890 function pairs
 Smallest overlap matrix eigenvalue = 8.98E-03
 Guess from superposition of atomic densities
 Warning:  Energy on first SCF cycle will be non-variational
 SAD guess density has 42.000000 electrons

 -----------------------------------------------------------------------
  General SCF calculation program by
  Eric Jon Sundstrom, Paul Horn, Yuezhi Mao, Dmitri Zuev, Alec White,
  David Stuck, Shaama M.S., Shane Yost, Joonho Lee, David Small,
  Daniel Levine, Susi Lehtola, Hugh Burton, Evgeny Epifanovsky
 -----------------------------------------------------------------------
 Exchange:     0.2000 Hartree-Fock + 0.0800 Slater + 0.7200 B88
 Correlation:  0.1900 VWN1RPA + 0.8100 LYP
 Using SG-1 standard quadrature grid
 using 12 threads for integral computing
 -------------------------------------------------------
 OpenMP Integral computing Module                
 Release: version 1.0, May 2013, Q-Chem Inc. Pittsburgh 
 -------------------------------------------------------
 -------------------------------------------------------
 OpenMP BLAS3 based DFT computing Module                
 Release: version 1.0, May 2013, Q-Chem Inc. Pittsburgh 
 -------------------------------------------------------
 A unrestricted SCF calculation will be
 performed using DIIS
 SCF converges when DIIS error is below 1.0e-06
 Alpha HF Exchange    Energy =  -4.30796926845510
 Beta HF Exchange     Energy =  -4.30796926845510
 DFT Correlation      Energy =  -1.85107890236982
 DFT Exchange         Energy = -33.92290112996361
 One-Electron (alpha) Energy = -479.58917916192667
 One-Electron (beta)  Energy = -479.58917916192667
 Total Coulomb        Energy = 357.99668005363606
 ---------------------------------------
  Cycle       Energy         DIIS error
 ---------------------------------------
    1    -517.3122645188      2.71e-02  
 Alpha HF Exchange    Energy =  -4.45124413023137
 Beta HF Exchange     Energy =  -4.26641456094139
 DFT Correlation      Energy =  -1.87267478359790
 DFT Exchange         Energy = -34.57262795165525
 One-Electron (alpha) Energy = -493.72452769986285
 One-Electron (beta)  Energy = -471.87809208837069
 Total Coulomb        Energy = 365.36381047147984
    2    -517.1424384225      3.75e-03  
 Alpha HF Exchange    Energy =  -4.39598805565604
 Beta HF Exchange     Energy =  -4.21572009340985
 DFT Correlation      Energy =  -1.84441301112026
 DFT Exchange         Energy = -34.12187690408012
 One-Electron (alpha) Energy = -490.84636001374349
 One-Electron (beta)  Energy = -469.02340141026377
 Total Coulomb        Energy = 359.05978710335495
    3    -517.1286400642      4.09e-03  
 Alpha HF Exchange    Energy =  -4.42229162904526
 Beta HF Exchange     Energy =  -4.23973184886541
 DFT Correlation      Energy =  -1.85749125949353
 DFT Exchange         Energy = -34.33324278296124
 One-Electron (alpha) Energy = -492.30360943245211
 One-Electron (beta)  Energy = -470.30146395522030
 Total Coulomb        Energy = 361.97215073705928
    4    -517.2263478503      4.23e-04  
 Alpha HF Exchange    Energy =  -4.42461768252648
 Beta HF Exchange     Energy =  -4.24067541595852
 DFT Correlation      Energy =  -1.85765551661821
 DFT Exchange         Energy = -34.34536266269477
 One-Electron (alpha) Energy = -492.44281825259492
 One-Electron (beta)  Energy = -470.37057289806830
 Total Coulomb        Energy = 362.19503479104901
    5    -517.2273353167      2.13e-04  
 Alpha HF Exchange    Energy =  -4.42416868970480
 Beta HF Exchange     Energy =  -4.24041955657885
 DFT Correlation      Energy =  -1.85736629316954
 DFT Exchange         Energy = -34.34226658494644
 One-Electron (alpha) Energy = -492.41216699065490
 One-Electron (beta)  Energy = -470.32324494016706
 Total Coulomb        Energy = 362.11268007979118
    6    -517.2276206548      5.05e-05  
 Alpha HF Exchange    Energy =  -4.42413102424936
 Beta HF Exchange     Energy =  -4.24030535309249
 DFT Correlation      Energy =  -1.85728851847575
 DFT Exchange         Energy = -34.34151286231054
[...]

                             Maximum     Tolerance    Cnvgd?
         Gradient           0.000138      0.000300     YES
         Displacement       0.002116      0.001200      NO
         Energy change     -0.000004      0.000001      NO


 New Cartesian Coordinates Obtained by Inverse Iteration

 Displacement from previous Coordinates is:  0.001438
 ----------------------------------------------------------------
             Standard Nuclear Orientation (Angstroms)
    I     Atom           X                Y                Z
 ----------------------------------------------------------------
    1      S       3.5293999964    -1.0113362884    -0.8112329685
    2      C      -1.5813193548     0.9179454468     0.2968160010
    3      C       1.7951559720    -0.3292568507    -0.4408722096
    4      C      -2.5052407144    -0.2233145905     0.0504243656
    5      H      -1.2247437309     1.1365827937     1.2980803788
    6      H      -1.4169025372     1.6724020728    -0.4654797438
    7      H       1.3927213547    -0.9479580345     0.3667593954
    8      H       1.1611482261    -0.4221560894    -1.3221320460
    9      H      -2.2826886109    -1.0767905159     0.7005231625
   10      H      -3.5574713572     0.0488520175     0.2443901320
   11      H      -2.4626453578    -0.5662742776    -0.9894701118
   12      H       1.8651931141     0.7051013162    -0.1047993558
 ----------------------------------------------------------------
 Nuclear Repulsion Energy =   128.2328275107 hartrees
 There are       22 alpha and       20 beta electrons

                       Distance Matrix (Angstroms)
             S (  1)   C (  2)   C (  3)   C (  4)   H (  5)   H (  6)
   C (  2)  5.573989
   C (  3)  1.900000  3.674273
   C (  4)  6.146570  1.488897  4.329666
   H (  5)  5.627134  1.085117  3.780534  2.246250
   H (  6)  5.638076  1.085050  3.784781  2.245969  1.853152
   H (  7)  2.440713  3.511610  1.094081  3.977346  3.473297  3.931017
   H (  8)  2.493345  3.455140  1.089594  3.919931  3.871390  3.430360
   H (  9)  6.005836  2.152643  4.300047  1.095709  2.524944  3.109213
   H ( 10)  7.243072  2.159456  5.409544  1.104032  2.781194  2.778824
   H ( 11)  6.011194  2.152714  4.299536  1.095818  3.108860  2.525830
   H ( 12)  2.492948  3.476355  1.089838  4.470653  3.420812  3.440627
             H (  7)   H (  8)   H (  9)   H ( 10)   H ( 11)
   H (  8)  1.783942
   H (  9)  3.692781  4.047183
   H ( 10)  5.051041  4.994118  1.760738
   H ( 11)  4.104740  3.641883  1.774567  1.760521
   H ( 12)  1.782751  1.802301  4.585696  5.473380  4.596654
 
 Applying Cartesian multipole field
    Component          Value
    ---------          -----
     (2,0,0)        1.00000E-11
     (0,2,0)        2.00000E-11
     (0,0,2)       -3.00000E-10
 Nucleus-field energy     =    -0.0000000058 hartrees
 Requested basis set is 6-31G(d,p)
 There are 41 shells and 104 basis functions
 A cutoff of  1.0D-14 yielded    767 shell pairs
 There are      4882 function pairs
 Smallest overlap matrix eigenvalue = 9.00E-03
 Guess from superposition of atomic densities
 Warning:  Energy on first SCF cycle will be non-variational
 SAD guess density has 42.000000 electrons

 -----------------------------------------------------------------------
  General SCF calculation program by
  Eric Jon Sundstrom, Paul Horn, Yuezhi Mao, Dmitri Zuev, Alec White,
  David Stuck, Shaama M.S., Shane Yost, Joonho Lee, David Small,
  Daniel Levine, Susi Lehtola, Hugh Burton, Evgeny Epifanovsky
 -----------------------------------------------------------------------
 Exchange:     0.2000 Hartree-Fock + 0.0800 Slater + 0.7200 B88
 Correlation:  0.1900 VWN1RPA + 0.8100 LYP
 Using SG-1 standard quadrature grid
 using 12 threads for integral computing
 -------------------------------------------------------
 OpenMP Integral computing Module                
 Release: version 1.0, May 2013, Q-Chem Inc. Pittsburgh 
 -------------------------------------------------------
 -------------------------------------------------------
 OpenMP BLAS3 based DFT computing Module                
 Release: version 1.0, May 2013, Q-Chem Inc. Pittsburgh 
 -------------------------------------------------------
 A unrestricted SCF calculation will be
 performed using DIIS
 SCF converges when DIIS error is below 1.0e-06
 Alpha HF Exchange    Energy =  -4.30851458640605
 Beta HF Exchange     Energy =  -4.30851458640605
 DFT Correlation      Energy =  -1.85117277647888
 DFT Exchange         Energy = -33.92410733870929
 One-Electron (alpha) Energy = -479.55748863094306
 One-Electron (beta)  Energy = -479.55748863094306
 Total Coulomb        Energy = 357.95883058232846
 ---------------------------------------
  Cycle       Energy         DIIS error
 ---------------------------------------
    1    -517.3156284627      2.72e-02  
 Alpha HF Exchange    Energy =  -4.45164554093653
 Beta HF Exchange     Energy =  -4.26689260915748
 DFT Correlation      Energy =  -1.87281524350318
 DFT Exchange         Energy = -34.57578018487347
 One-Electron (alpha) Energy = -493.68957669312744
 One-Electron (beta)  Energy = -471.84760271084059
 Total Coulomb        Energy = 365.32966190531988
    2    -517.1418235723      3.77e-03  
 Alpha HF Exchange    Energy =  -4.39634807065922
 Beta HF Exchange     Energy =  -4.21600188313514
 DFT Correlation      Energy =  -1.84452867662837
 DFT Exchange         Energy = -34.12417655160169
 One-Electron (alpha) Energy = -490.81727342052193
 One-Electron (beta)  Energy = -468.99771427980488
 Total Coulomb        Energy = 359.03564970787255
    3    -517.1275656696      4.11e-03  
 Alpha HF Exchange    Energy =  -4.42261721783325
 Beta HF Exchange     Energy =  -4.24006689811679
 DFT Correlation      Energy =  -1.85760714189500
 DFT Exchange         Energy = -34.33557790752964
 One-Electron (alpha) Energy = -492.26945829548555
 One-Electron (beta)  Energy = -470.27176984251349
 Total Coulomb        Energy = 361.93786343240288
    4    -517.2264063661      4.23e-04  
 Alpha HF Exchange    Energy =  -4.42497523055343
 Beta HF Exchange     Energy =  -4.24103707719940
 DFT Correlation      Energy =  -1.85778502569689
 DFT Exchange         Energy = -34.34794664183546
 One-Electron (alpha) Energy = -492.41037148676054
 One-Electron (beta)  Energy = -470.34223419472454
 Total Coulomb        Energy = 362.16412010796262
    5    -517.2274020439      2.13e-04  
 Alpha HF Exchange    Energy =  -4.42451238069099
 Beta HF Exchange     Energy =  -4.24076924092746
 DFT Correlation      Energy =  -1.85748830552811
 DFT Exchange         Energy = -34.34473731073626
 One-Electron (alpha) Energy = -492.37889607236798
 One-Electron (beta)  Energy = -470.29421302006347
 Total Coulomb        Energy = 362.08010354030989
    6    -517.2276852851      5.07e-05  
 Alpha HF Exchange    Energy =  -4.42447889175711
 Beta HF Exchange     Energy =  -4.24065747227736
 DFT Correlation      Energy =  -1.85741237161776
 DFT Exchange         Energy = -34.34401174829254
 One-Electron (alpha) Energy = -492.37817522581543
 One-Electron (beta)  Energy = -470.28344861148020
 Total Coulomb        Energy = 362.06765462712224
    7    -517.2277021893      1.18e-05  
 Alpha HF Exchange    Energy =  -4.42458679214309
 Beta HF Exchange     Energy =  -4.24069301899609
 DFT Correlation      Energy =  -1.85741569353804
 DFT Exchange         Energy = -34.34455706438156
 One-Electron (alpha) Energy = -492.38551038095284
 One-Electron (beta)  Energy = -470.28510670120437
 Total Coulomb        Energy = 362.07733865743444
    8    -517.2277034889      5.61e-06  
 Alpha HF Exchange    Energy =  -4.42456622369262
 Beta HF Exchange     Energy =  -4.24068047665328
 DFT Correlation      Energy =  -1.85740092557616
 DFT Exchange         Energy = -34.34441161646811
 One-Electron (alpha) Energy = -492.38402187053788
 One-Electron (beta)  Energy = -470.28301561764812
 Total Coulomb        Energy = 362.07356549705730
    9    -517.2277037287      1.67e-06  
 Alpha HF Exchange    Energy =  -4.42456884154043
 Beta HF Exchange     Energy =  -4.24067790938476
 DFT Correlation      Energy =  -1.85740039323712
 DFT Exchange         Energy = -34.34441322912841
 One-Electron (alpha) Energy = -492.38401015855516
 One-Electron (beta)  Energy = -470.28293648861268
 Total Coulomb        Energy = 362.07347576573193
   10    -517.2277037499      6.20e-07  Convergence criterion met
 ---------------------------------------
 SCF time:   CPU 22.49s  wall 2.00s 
<S^2> =          2.006382656
 Alpha HF Exchange    Energy =  -4.42456884154043
 Beta HF Exchange     Energy =  -4.24067790938476
 DFT Correlation      Energy =  -1.85740039323712
 DFT Exchange         Energy = -34.34441322912841
 One-Electron (alpha) Energy = -492.38401015855516
 One-Electron (beta)  Energy = -470.28293648861268
 Total Coulomb        Energy = 362.07347576573193
 Nuclear repulsion Energy = 128.23282750486237
 SCF   energy in the final basis set =     -517.2277037499
 Total energy in the final basis set =     -517.2277037499
 
 --------------------------------------------------------------
 
                    Orbital Energies (a.u.)
 --------------------------------------------------------------
 
 Alpha MOs
 -- Occupied --
-88.891 -10.222 -10.196 -10.188  -7.951  -5.922  -5.912  -5.903
 -0.763  -0.759  -0.634  -0.613  -0.454  -0.436  -0.431  -0.417
 -0.395  -0.361  -0.356  -0.285  -0.242  -0.206
 -- Virtual --
  0.028   0.098   0.123   0.131   0.134   0.154   0.160   0.170
  0.212   0.253   0.322   0.358   0.363   0.384   0.481   0.493
  0.504   0.519   0.530   0.583   0.604   0.703   0.705   0.750
  0.754   0.811   0.815   0.834   0.844   0.845   0.855   0.866
  0.875   0.909   0.916   0.943   0.976   1.207   1.270   1.314
  1.435   1.438   1.445   1.563   1.791   1.847   1.943   1.947
  2.012   2.026   2.039   2.040   2.043   2.080   2.085   2.221
  2.311   2.317   2.332   2.365   2.473   2.517   2.608   2.611
  2.682   2.794   2.804   2.831   2.838   2.885   3.148   3.166
  3.281   3.394   3.396   3.417   3.456   3.505   3.894   4.219
  4.364   4.517
 
 Beta MOs
 -- Occupied --
-88.886 -10.223 -10.189 -10.182  -7.945  -5.909  -5.904  -5.899
 -0.748  -0.743  -0.605  -0.589  -0.447  -0.430  -0.426  -0.402
 -0.387  -0.357  -0.346  -0.228
 -- Virtual --
 -0.150  -0.048   0.041   0.101   0.126   0.135   0.143   0.158
  0.161   0.177   0.216   0.261   0.335   0.372   0.390   0.397
  0.496   0.513   0.516   0.523   0.533   0.593   0.627   0.711
  0.729   0.802   0.803   0.825   0.844   0.850   0.852   0.856
  0.862   0.873   0.879   0.911   0.924   0.961   0.986   1.211
  1.280   1.332   1.438   1.449   1.476   1.567   1.816   1.866
  1.947   1.987   2.014   2.038   2.042   2.045   2.047   2.087
  2.087   2.222   2.314   2.325   2.334   2.381   2.487   2.539
  2.611   2.628   2.685   2.795   2.806   2.836   2.843   2.890
  3.151   3.171   3.288   3.397   3.398   3.420   3.463   3.512
  3.912   4.244   4.363   4.527
 --------------------------------------------------------------
 
          Ground-State Mulliken Net Atomic Charges

     Atom                 Charge (a.u.)    Spin (a.u.)
  --------------------------------------------------------
      1 S                    -0.015512       0.997883
      2 C                    -0.226957       1.072941
      3 C                    -0.463442      -0.033395
      4 C                    -0.331797      -0.079602
      5 H                     0.105595      -0.046964
      6 H                     0.105812      -0.046934
      7 H                     0.159790       0.028324
      8 H                     0.157051       0.006580
      9 H                     0.115287       0.014450
     10 H                     0.121245       0.064680
     11 H                     0.116111       0.014738
     12 H                     0.156817       0.007298
  --------------------------------------------------------
  Sum of atomic charges =    -0.000000
  Sum of spin   charges =     2.000000

 -----------------------------------------------------------------
                    Cartesian Multipole Moments
 -----------------------------------------------------------------
    Charge (ESU x 10^10)
                 0.0000
    Dipole Moment (Debye)
         X      -2.1369      Y       0.5735      Z       0.4359
       Tot       2.2551
    Quadrupole Moments (Debye-Ang)
        XX     -42.7337     XY       3.0161     YY     -35.0375
        XZ       1.7740     YZ      -2.0642     ZZ     -34.2396
    Octopole Moments (Debye-Ang^2)
       XXX    -127.4516    XXY      18.0245    XYY     -31.1712
       YYY      34.5939    XXZ      15.0522    XYZ      -5.1161
       YYZ      14.5964    XZZ     -32.0863    YZZ      13.5820
       ZZZ      34.6703
    Hexadecapole Moments (Debye-Ang^3)
      XXXX   -1668.2482   XXXY     189.1866   XXYY    -298.0408
      XYYY     171.4220   YYYY    -186.0674   XXXZ     145.1618
      XXYZ     -31.1821   XYYZ      57.9447   YYYZ     -49.3022
      XXZZ    -283.9128   XYZZ      63.8233   YYZZ     -54.9977
      XZZZ     142.7048   YZZZ     -44.0433   ZZZZ    -122.1884
 -----------------------------------------------------------------
 Calculating analytic gradient of the SCF energy
 Gradient of SCF Energy
            1           2           3           4           5           6
    1   0.0223458   0.0001571  -0.0224220  -0.0001004  -0.0000221  -0.0000238
    2  -0.0087643  -0.0000531   0.0083095  -0.0000249  -0.0000150  -0.0000199
    3  -0.0047861  -0.0000445   0.0051018   0.0000079  -0.0000268   0.0000555
            7           8           9          10          11          12
    1  -0.0000233   0.0001186   0.0000383  -0.0000234   0.0000506  -0.0000953
    2   0.0000631   0.0003339   0.0000522   0.0000048   0.0000455   0.0000683
    3   0.0000019  -0.0000323  -0.0000001  -0.0000099   0.0000004  -0.0002678
 Max gradient component =       2.242E-02
 RMS gradient           =       5.767E-03
 Gradient time:  CPU 7.60 s  wall 0.68 s
 Geometry Optimization Parameters
   NAtoms,    NIC,     NZ,  NCons,   NDum,   NFix, NCnnct, MaxDiis
       12     369       0       1       0       0       0       0

 Cartesian Hessian Update
 Hessian Updated using BFGS Update


** CONSTRAINED OPTIMIZATION IN DELOCALIZED INTERNAL COORDINATES **
   Searching for a Minimum

   Optimization Cycle:   8

                       Coordinates (Angstroms)
     ATOM                X               Y               Z
      1  S         3.5293999964   -1.0113362884   -0.8112329685
      2  C        -1.5813193548    0.9179454468    0.2968160010
      3  C         1.7951559720   -0.3292568507   -0.4408722096
      4  C        -2.5052407144   -0.2233145905    0.0504243656
      5  H        -1.2247437309    1.1365827937    1.2980803788
      6  H        -1.4169025372    1.6724020728   -0.4654797438
      7  H         1.3927213547   -0.9479580345    0.3667593954
      8  H         1.1611482261   -0.4221560894   -1.3221320460
      9  H        -2.2826886109   -1.0767905159    0.7005231625
     10  H        -3.5574713572    0.0488520175    0.2443901320
     11  H        -2.4626453578   -0.5662742776   -0.9894701118
     12  H         1.8651931141    0.7051013162   -0.1047993558
   Point Group: c1    Number of degrees of freedom:    30


   Energy is   -517.227703750

              Constraints and their Current Values
                                        Value     Constraint
   Distance(Angs):        1   3             1.900000     1.900000
 Hessian Updated using BFGS Update

 29 Hessian modes will be used to form the next step
  Hessian Eigenvalues:
     0.011758    0.023193    0.086987    0.108366    0.125525    0.146863
     0.156265    0.161879    0.164620    0.170147    0.189748    0.198771
     0.204341    0.209686    0.210410    0.217229    0.263955    0.276100
     0.289104    0.329288    0.372320    0.643770    0.651059    0.693186
     0.736970    0.800586    0.922142    0.933560    1.050399

 Minimum Search - Taking Simple RFO Step
 Searching for Lamda that Minimizes Along All modes
 Value Taken    Lamda =   0.00000000
 Step Taken.  Stepsize is  0.002941

                             Maximum     Tolerance    Cnvgd?
         Gradient           0.000092      0.000300     YES
         Displacement       0.001790      0.001200      NO
         Energy change     -0.000000      0.000001     YES


                       Distance Matrix (Angstroms)
             S (  1)   C (  2)   C (  3)   C (  4)   H (  5)   H (  6)
   C (  2)  5.573989
   C (  3)  1.900000  3.674273
   C (  4)  6.146570  1.488897  4.329666
   H (  5)  5.627134  1.085117  3.780534  2.246250
   H (  6)  5.638076  1.085050  3.784781  2.245969  1.853152
   H (  7)  2.440713  3.511610  1.094081  3.977346  3.473297  3.931017
   H (  8)  2.493345  3.455140  1.089594  3.919931  3.871390  3.430360
   H (  9)  6.005836  2.152643  4.300047  1.095709  2.524944  3.109213
   H ( 10)  7.243072  2.159456  5.409544  1.104032  2.781194  2.778824
   H ( 11)  6.011194  2.152714  4.299536  1.095818  3.108860  2.525830
   H ( 12)  2.492948  3.476355  1.089838  4.470653  3.420812  3.440627
             H (  7)   H (  8)   H (  9)   H ( 10)   H ( 11)
   H (  8)  1.783942
   H (  9)  3.692781  4.047183
   H ( 10)  5.051041  4.994118  1.760738
   H ( 11)  4.104740  3.641883  1.774567  1.760521
   H ( 12)  1.782751  1.802301  4.585696  5.473380  4.596654
 
 Final energy is   -517.227703749864     


 ******************************
 **  OPTIMIZATION CONVERGED  **
 ******************************

                       Coordinates (Angstroms)
     ATOM                X               Y               Z
      1  S         3.5293999964   -1.0113362884   -0.8112329685
      2  C        -1.5813193548    0.9179454468    0.2968160010
      3  C         1.7951559720   -0.3292568507   -0.4408722096
      4  C        -2.5052407144   -0.2233145905    0.0504243656
      5  H        -1.2247437309    1.1365827937    1.2980803788
      6  H        -1.4169025372    1.6724020728   -0.4654797438
      7  H         1.3927213547   -0.9479580345    0.3667593954
      8  H         1.1611482261   -0.4221560894   -1.3221320460
      9  H        -2.2826886109   -1.0767905159    0.7005231625
     10  H        -3.5574713572    0.0488520175    0.2443901320
     11  H        -2.4626453578   -0.5662742776   -0.9894701118
     12  H         1.8651931141    0.7051013162   -0.1047993558

Z-matrix Print:
$molecule
0 3
S 
C  1 1.900000
H  2 1.089594 1 110.050530
H  2 1.089838 1 110.008907 3 -123.332390 0
H  2 1.094081 1 106.058762 3 118.419627 0
H  4 3.420812 2 100.843555 1 -163.601994 0
C  6 1.085117 4 83.857386 2 -60.775805 0
H  7 1.085050 6 117.281578 4 -70.962632 0
C  7 1.488897 6 120.734073 4 121.824530 0
H  9 1.095709 7 111.890416 6 -35.686940 0
H  9 1.095818 7 111.889440 6 -157.224714 0
H  9 1.104032 7 111.924812 6 83.561349 0
$end

PES scan, value:    1.9000 energy: -517.2277037499
------- Summary of potential scan: ------ 
    1.9000      -517.2277037499
----------------------------------------- 
Archival summary:
1\1\hpc0250\JobtypUnspecified\ProcedureUnspecified\6-31G**\138(3)\knomura\WedMar1321:37:172019WedMar1321:37:172019\0\\#,JobtypUnspecified,ProcedureUnspecified,6-31G**,\\0,3\S\C,1,1.9\H,2,1.08959,1,110.051\H,2,1.08984,1,110.009,3,-123.332,0\H,2,1.09408,1,106.059,3,118.42,0\H,4,3.42081,2,100.844,1,-163.602,0\C,6,1.08512,4,83.8574,2,-60.7758,0\H,7,1.08505,6,117.282,4,-70.9626,0\C,7,1.4889,6,120.734,4,121.825,0\H,9,1.09571,7,111.89,6,-35.6869,0\H,9,1.09582,7,111.889,6,-157.225,0\H,9,1.10403,7,111.925,6,83.5613,0\\\@

 Total job time:  24.63s(wall), 279.89s(cpu) 
 Wed Mar 13 21:37:17 2019

        *************************************************************
        *                                                           *
        *  Thank you very much for using Q-Chem.  Have a nice day.  *
        *                                                           *
        *************************************************************


