
Running Job 1 of 1 thiol/02/C-S.xyz.data/inputs/bond_triplet_5.1.in
qchem thiol/02/C-S.xyz.data/inputs/bond_triplet_5.1.in_21152.0 /staging/scratch/2868767/qchem21152/ 1
/usr/usc/qchem/5.1.1/exe/qcprog.exe_s thiol/02/C-S.xyz.data/inputs/bond_triplet_5.1.in_21152.0 /staging/scratch/2868767/qchem21152/
Check license passed

                  Welcome to Q-Chem
     A Quantum Leap Into The Future Of Chemistry


 Q-Chem 5.1, Q-Chem, Inc., Pleasanton, CA (2018)

 Yihan Shao,  Zhengting Gan,  E. Epifanovsky,  A. T. B. Gilbert,  M. Wormit,  
 J. Kussmann,  A. W. Lange,  A. Behn,  Jia Deng,  Xintian Feng,  D. Ghosh,  
 M. Goldey,  P. R. Horn,  L. D. Jacobson,  I. Kaliman,  T. Kus,  A. Landau,  
 Jie Liu,  E. I. Proynov,  R. M. Richard,  R. P. Steele,  E. J. Sundstrom,  
 H. L. Woodcock III,  P. M. Zimmerman,  D. Zuev,  B. Albrecht,  E. Alguire,  
 S. A. Baeppler,  D. Barton,  Z. Benda,  Y. A. Bernard,  E. J. Berquist,  
 K. B. Bravaya,  H. Burton,  D. Casanova,  Chun-Min Chang,  Yunqing Chen,  
 A. Chien,  K. D. Closser,  M. P. Coons,  S. Coriani,  S. Dasgupta,  
 A. L. Dempwolff,  M. Diedenhofen,  Hainam Do,  R. G. Edgar,  Po-Tung Fang,  
 S. Faraji,  S. Fatehi,  Qingguo Feng,  K. D. Fenk,  J. Fosso-Tande,  
 Qinghui Ge,  A. Ghysels,  G. Gidofalvi,  J. Gomes,  J. Gonthier,  A. Gunina,  
 D. Hait,  M. W. D. Hanson-Heine,  P. H. P. Harbach,  A. W. Hauser,  
 J. E. Herr,  E. G. Hohenstein,  Z. C. Holden,  Kerwin Hui,  B. C. Huynh,  
 T.-C. Jagau,  Hyunjun Ji,  B. Kaduk,  K. Khistyaev,  Jaehoon Kim,  
 P. Klunzinger,  K. Koh,  D. Kosenkov,  L. Koulias,  T. Kowalczyk,  
 C. M. Krauter,  A. Kunitsa,  Ka Un Lao,  A. Laurent,  K. V. Lawler,  
 Joonho Lee,  D. Lefrancois,  S. Lehtola,  D. S. Levine,  Yi-Pei Li,  
 You-Sheng Lin,  Fenglai Liu,  E. Livshits,  A. Luenser,  P. Manohar,  
 E. Mansoor,  S. F. Manzer,  Shan-Ping Mao,  Yuezhi Mao,  N. Mardirossian,  
 A. V. Marenich,  T. Markovich,  L. A. Martinez-Martinez,  S. A. Maurer,  
 N. J. Mayhall,  S. C. McKenzie,  J.-M. Mewes,  A. F. Morrison,  
 J. W. Mullinax,  K. Nanda,  T. S. Nguyen-Beck,  R. Olivares-Amaya,  
 J. A. Parkhill,  T. M. Perrine,  F. Plasser,  P. Pokhilko,  S. Prager,  
 A. Prociuk,  E. Ramos,  D. R. Rehn,  F. Rob,  M. Schneider,  N. Sergueev,  
 S. M. Sharada,  S. Sharma,  D. W. Small,  T. Stauch,  T. Stein,  
 Yu-Chuan Su,  A. J. W. Thom,  A. Tkatchenko,  T. Tsuchimochi,  N. M. Tubman,  
 L. Vogt,  M. L. Vidal,  O. Vydrov,  M. A. Watson,  J. Wenzel,  
 M. de Wergifosse,  T. A. Wesolowski,  A. White,  J. Witte,  A. Yamada,  
 Jun Yang,  K. Yao,  S. Yeganeh,  S. R. Yost,  Zhi-Qiang You,  A. Zech,  
 Igor Ying Zhang,  Xing Zhang,  Yan Zhao,  Ying Zhu,  B. R. Brooks,  
 G. K. L. Chan,  C. J. Cramer,  M. S. Gordon,  W. J. Hehre,  A. Klamt,  
 M. W. Schmidt,  C. D. Sherrill,  D. G. Truhlar,  A. Aspuru-Guzik,  R. Baer,  
 A. T. Bell,  N. A. Besley,  Jeng-Da Chai,  A. E. DePrince, III,  
 R. A. DiStasio Jr.,  A. Dreuw,  B. D. Dunietz,  T. R. Furlani,  
 Chao-Ping Hsu,  Yousung Jung,  Jing Kong,  D. S. Lambrecht,  WanZhen Liang,  
 C. Ochsenfeld,  V. A. Rassolov,  L. V. Slipchenko,  J. E. Subotnik,  
 T. Van Voorhis,  J. M. Herbert,  A. I. Krylov,  P. M. W. Gill,  M. Head-Gordon

 Contributors to earlier versions of Q-Chem not listed above: 
 R. D. Adamson,  B. Austin,  J. Baker,  G. J. O. Beran,  K. Brandhorst,  
 S. T. Brown,  E. F. C. Byrd,  A. K. Chakraborty,  C.-L. Cheng,  
 Siu Hung Chien,  D. M. Chipman,  D. L. Crittenden,  H. Dachsel,  
 R. J. Doerksen,  A. D. Dutoi,  L. Fusti-Molnar,  W. A. Goddard III,  
 A. Golubeva-Zadorozhnaya,  S. R. Gwaltney,  G. Hawkins,  A. Heyden,  
 S. Hirata,  G. Kedziora,  F. J. Keil,  C. Kelley,  Jihan Kim,  R. A. King,  
 R. Z. Khaliullin,  P. P. Korambath,  W. Kurlancheek,  A. M. Lee,  M. S. Lee,  
 S. V. Levchenko,  Ching Yeh Lin,  D. Liotard,  R. C. Lochan,  I. Lotan,  
 P. E. Maslen,  N. Nair,  D. P. O'Neill,  D. Neuhauser,  E. Neuscamman,  
 C. M. Oana,  R. Olson,  B. Peters,  R. Peverati,  P. A. Pieniazek,  
 Y. M. Rhee,  J. Ritchie,  M. A. Rohrdanz,  E. Rosta,  N. J. Russ,  
 H. F. Schaefer III,  N. E. Schultz,  N. Shenvi,  A. C. Simmonett,  A. Sodt,  
 D. Stuck,  K. S. Thanthiriwatte,  V. Vanovschi,  Tao Wang,  A. Warshel,  
 C. F. Williams,  Q. Wu,  X. Xu,  W. Zhang

 Please cite Q-Chem as follows:
 Y. Shao et al., Mol. Phys. 113, 184-215 (2015)
 DOI: 10.1080/00268976.2014.952696

 Q-Chem 5.1.1 for Intel X86 EM64T Linux

 Parts of Q-Chem use Armadillo 8.300.2 (Tropical Shenanigans).
 http://arma.sourceforge.net/

 Q-Chem begins on Wed Mar 13 21:09:32 2019  

Host: 
0

     Scratch files written to /staging/scratch/2868767/qchem21152//
 Aug318 |scratch|qcdevops|jenkins|workspace|build_RNUM 6013   
Processing $rem in /usr/usc/qchem/5.1.1/config/preferences.
 MEM_TOTAL  2000 
Input Ideriv = 2
Curr. Ideriv = -1
Max.  Ideriv = 2

Checking the input file for inconsistencies... 	...done.

--------------------------------------------------------------
User input:
--------------------------------------------------------------

$comment
potential surface scanner
$end

$rem
JOBTYPE  PES_SCAN
UNRESTRICTED TRUE
SYM_IGNORE  TRUE
GEOM_OPT_MAX_CYCLES 400
SCF_MAX_CYCLES 400
METHOD   B3LYP
BASIS   6-31G**
PDB_PRINT 2
SCF_CONVERGENCE 6
THRESH 14
SCF_PRINT 1
$end
$molecule
0 3
S 4.598166 1.095163 -0.166192
C -1.058729 0.238744 -0.014059
C -0.174780 -0.963562 -0.022502
C -2.561121 -0.102723 0.129848
H -0.775190 0.904971 0.811944
H -0.918659 0.814334 -0.938361
H 0.106991 -1.449972 0.906386
H 0.029209 -1.498537 -0.944953
H -2.753125 -0.642649 1.062559
H -3.168211 0.809488 0.134360
H -2.901631 -0.733352 -0.697539
H 4.289684 1.431896 -1.438484
$end
$scan
stre 1 3 5.100000 5.101000 0.100000
$end
--------------------------------------------------------------
 ----------------------------------------------------------------
             Standard Nuclear Orientation (Angstroms)
    I     Atom           X                Y                Z
 ----------------------------------------------------------------
    1      S       4.5981660000     1.0951630000    -0.1661920000
    2      C      -1.0587290000     0.2387440000    -0.0140590000
    3      C      -0.1747800000    -0.9635620000    -0.0225020000
    4      C      -2.5611210000    -0.1027230000     0.1298480000
    5      H      -0.7751900000     0.9049710000     0.8119440000
    6      H      -0.9186590000     0.8143340000    -0.9383610000
    7      H       0.1069910000    -1.4499720000     0.9063860000
    8      H       0.0292090000    -1.4985370000    -0.9449530000
    9      H      -2.7531250000    -0.6426490000     1.0625590000
   10      H      -3.1682110000     0.8094880000     0.1343600000
   11      H      -2.9016310000    -0.7333520000    -0.6975390000
   12      H       4.2896840000     1.4318960000    -1.4384840000
 ----------------------------------------------------------------
 Nuclear Repulsion Energy =   119.2033064849 hartrees
 There are       22 alpha and       20 beta electrons
 Requested basis set is 6-31G(d,p)
 There are 41 shells and 104 basis functions

 Total QAlloc Memory Limit   2000 MB
 Mega-Array Size       188 MB
 MEM_STATIC part       192 MB
A total of 1 constraints
  
            1
    1   1.0100000
    2   1.0100000
    3   3.0100000
    4   5.1000000
    5   5.1010000
    6   0.1000000
    7   0.0000000
    8   0.0000000
    9   0.0000000
   10   0.0000000

                       Distance Matrix (Angstroms)
             S (  1)   C (  2)   C (  3)   C (  4)   H (  5)   H (  6)
   C (  2)  5.723378
   C (  3)  5.200001  1.492306
   C (  4)  7.264844  1.547414  2.541432
   H (  5)  5.464968  1.098423  2.132653  2.161077
   H (  6)  5.577676  1.097842  2.133792  2.163272  1.758512
   H (  7)  5.272456  2.248974  1.085736  3.088189  2.516529  3.095502
   H (  8)  5.311226  2.251293  1.085691  3.132619  3.083925  2.499574
   H (  9)  7.653189  2.192473  2.815707  1.094685  2.523918  3.080868
   H ( 10)  7.777439  2.190363  3.482663  1.095768  2.488933  2.492236
   H ( 11)  7.737748  2.192807  2.818579  1.094627  3.079674  2.526956
   H ( 12)  1.351768  5.661989  5.260671  7.193626  5.567318  5.268619
             H (  7)   H (  8)   H (  9)   H ( 10)   H ( 11)
   H (  8)  1.853609
   H (  9)  2.975974  3.536104
   H ( 10)  4.053163  4.088446  1.772724
   H ( 11)  3.483953  3.039168  1.768679  1.772985
   H ( 12)  5.594506  5.194483  7.756295  7.647315  7.546675
 
 A cutoff of  1.0D-14 yielded    730 shell pairs
 There are      4596 function pairs
 
 -------------------------------------------------------
 OpenMP Integral Computing Module                       
 Release: version 1.0, May 2013, Q-Chem Inc. Pittsburgh 
 -------------------------------------------------------
 Integral Job Info:
 Integral job number is                      11
 Integral operator is                         1
 short-range coefficients                     0
 long-range coefficients              100000000
 Omega coefficients                           0
 if combine SR and LR in K                    0
 Integral screening is                        0
 Integral computing path is                   2
 max size of driver memory is            800000
 size of driver memory is                593474
 size of scratch memory is             15267112
 max col of scratch BK array               1296
 max len of scratch array in speh3          155
 max len of scratch index in speh4           18
 max int batch size is                      520
 min int batch size is                       52
 fixed nKL is                                52
 max L of basis functions is                  2
 order of int derivative is                   0
 number of shells is                         41
 number of basis is                         104
 number of cartesian basis is               104
 number of contracted shell pairs           730
 number of primitive shell pairs           2510
 maxK2 (contraction) of shell pair           36
 max number of K2 of shell pair               1
 max number of CS2 of shell pair             74
 max number of PS2 of shell pair            210
 mem total for path MDJ                  511952
 -------------------------------------------------------
 Smallest overlap matrix eigenvalue = 6.43E-03

 Scale SEOQF with 1.000000e-01/1.000000e-01/1.000000e+00

 Standard Electronic Orientation quadrupole field applied
 Nucleus-field energy     =     0.0000000098 hartrees
 Guess from superposition of atomic densities
 Warning:  Energy on first SCF cycle will be non-variational
 SAD guess density has 42.000000 electrons

 -----------------------------------------------------------------------
  General SCF calculation program by
  Eric Jon Sundstrom, Paul Horn, Yuezhi Mao, Dmitri Zuev, Alec White,
  David Stuck, Shaama M.S., Shane Yost, Joonho Lee, David Small,
  Daniel Levine, Susi Lehtola, Hugh Burton, Evgeny Epifanovsky
 -----------------------------------------------------------------------
 Exchange:     0.2000 Hartree-Fock + 0.0800 Slater + 0.7200 B88
 Correlation:  0.1900 VWN1RPA + 0.8100 LYP
 Using SG-1 standard quadrature grid
 using 12 threads for integral computing
 -------------------------------------------------------
 OpenMP Integral computing Module                
 Release: version 1.0, May 2013, Q-Chem Inc. Pittsburgh 
 -------------------------------------------------------
 -------------------------------------------------------
 OpenMP BLAS3 based DFT computing Module                
 Release: version 1.0, May 2013, Q-Chem Inc. Pittsburgh 
 -------------------------------------------------------
 A unrestricted SCF calculation will be
 performed using DIIS
 SCF converges when DIIS error is below 1.0e-06
 Alpha HF Exchange    Energy =  -4.31709028438395
 Beta HF Exchange     Energy =  -4.31709028438395
 DFT Correlation      Energy =  -1.85322938551959
 DFT Exchange         Energy = -33.94169151853993
 One-Electron (alpha) Energy = -470.52162535706572
 One-Electron (beta)  Energy = -470.52162535706572
 Total Coulomb        Energy = 348.85286577386955
 ---------------------------------------
  Cycle       Energy         DIIS error
 ---------------------------------------
    1    -517.4161799184      2.80e-02  
 Alpha HF Exchange    Energy =  -4.45357458181321
 Beta HF Exchange     Energy =  -4.27113445908755
 DFT Correlation      Energy =  -1.87338166526697
 DFT Exchange         Energy = -34.59004024864653
 One-Electron (alpha) Energy = -484.57717397173985
 One-Electron (beta)  Energy = -463.26649808250130
 Total Coulomb        Energy = 356.68660911669326
    2    -517.1418873976      3.62e-03  
 Alpha HF Exchange    Energy =  -4.39683569767871
 Beta HF Exchange     Energy =  -4.21961509080259
 DFT Correlation      Energy =  -1.84532423933588
 DFT Exchange         Energy = -34.13428992840272
 One-Electron (alpha) Energy = -481.23933021142352
 One-Electron (beta)  Energy = -459.96077082834029
 Total Coulomb        Energy = 349.45589545861367
    3    -517.1369640427      3.85e-03  
 Alpha HF Exchange    Energy =  -4.42585067996038
 Beta HF Exchange     Energy =  -4.24464277870670
 DFT Correlation      Energy =  -1.85863444675308
 DFT Exchange         Energy = -34.35863267242629
 One-Electron (alpha) Energy = -483.07819223490048
 One-Electron (beta)  Energy = -461.59093513773286
 Total Coulomb        Energy = 353.12976547883295
    4    -517.2238159769      2.72e-04  
 Alpha HF Exchange    Energy =  -4.42718700988897
 Beta HF Exchange     Energy =  -4.24463200396196
 DFT Correlation      Energy =  -1.85855621297606
 DFT Exchange         Energy = -34.36329495768632
 One-Electron (alpha) Energy = -483.11924637016148
 One-Electron (beta)  Energy = -461.56420255714323
 Total Coulomb        Energy = 353.14965417233725
    5    -517.2241584448      1.43e-04  
 Alpha HF Exchange    Energy =  -4.42687974551982
 Beta HF Exchange     Energy =  -4.24450226811648
 DFT Correlation      Energy =  -1.85833737476693
 DFT Exchange         Energy = -34.36133530296095
 One-Electron (alpha) Energy = -483.11047407022511
 One-Electron (beta)  Energy = -461.54235799599957
 Total Coulomb        Energy = 353.11630429311492
    6    -517.2242759698      3.73e-05  
 Alpha HF Exchange    Energy =  -4.42700322802250
 Beta HF Exchange     Energy =  -4.24442253560826
 DFT Correlation      Energy =  -1.85831047650938
 DFT Exchange         Energy = -34.36144826203872
 One-Electron (alpha) Energy = -483.11705311567698
 One-Electron (beta)  Energy = -461.53656058383700
 Total Coulomb        Energy = 353.11720631543801
    7    -517.2242853915      9.03e-06  
 Alpha HF Exchange    Energy =  -4.42706286600631
 Beta HF Exchange     Energy =  -4.24442501715747
 DFT Correlation      Energy =  -1.85830123314055
 DFT Exchange         Energy = -34.36166240558776
 One-Electron (alpha) Energy = -483.12123718385902
 One-Electron (beta)  Energy = -461.53545294854547
 Total Coulomb        Energy = 353.12054878240650
    8    -517.2242863772      3.96e-06  
 Alpha HF Exchange    Energy =  -4.42705943497645
 Beta HF Exchange     Energy =  -4.24440796002142
 DFT Correlation      Energy =  -1.85829367670316
 DFT Exchange         Energy = -34.36158141677627
 One-Electron (alpha) Energy = -483.12073205074000
 One-Electron (beta)  Energy = -461.53391009387792
 Total Coulomb        Energy = 353.11839148584050
    9    -517.2242866525      1.75e-06  
 Alpha HF Exchange    Energy =  -4.42706156471345
 Beta HF Exchange     Energy =  -4.24440745738035
 DFT Correlation      Energy =  -1.85829336497899
 DFT Exchange         Energy = -34.36158787485022
 One-Electron (alpha) Energy = -483.12086406184488
 One-Electron (beta)  Energy = -461.53379453268508
 Total Coulomb        Energy = 353.11841554265521
   10    -517.2242868191      1.26e-06  
 Alpha HF Exchange    Energy =  -4.42706348910032
 Beta HF Exchange     Energy =  -4.24440816586854
 DFT Correlation      Energy =  -1.85829389036381
 DFT Exchange         Energy = -34.36159876907809
 One-Electron (alpha) Energy = -483.12102710523106
 One-Electron (beta)  Energy = -461.53384869917090
 Total Coulomb        Energy = 353.11864664460029
   11    -517.2242869795      1.17e-06  
 Alpha HF Exchange    Energy =  -4.42706302016785
 Beta HF Exchange     Energy =  -4.24440781653988
 DFT Correlation      Energy =  -1.85829374166530
 DFT Exchange         Energy = -34.36159562855585
 One-Electron (alpha) Energy = -483.12098827265976
 One-Electron (beta)  Energy = -461.53378585380028
 Total Coulomb        Energy = 353.11854072953412
   12    -517.2242871091      1.16e-06  
 Alpha HF Exchange    Energy =  -4.42706302734080
 Beta HF Exchange     Energy =  -4.24440782588840
 DFT Correlation      Energy =  -1.85829374527514
 DFT Exchange         Energy = -34.36159569550640
 One-Electron (alpha) Energy = -483.12098893811020
 One-Electron (beta)  Energy = -461.53378221593573
 Total Coulomb        Energy = 353.11853782632051
   13    -517.2242871270      1.16e-06  
 Alpha HF Exchange    Energy =  -4.42706311139909
 Beta HF Exchange     Energy =  -4.24440882951938
 DFT Correlation      Energy =  -1.85829365573267
 DFT Exchange         Energy = -34.36159990859823
 One-Electron (alpha) Energy = -483.12096367056222
 One-Electron (beta)  Energy = -461.53458733422673
 Total Coulomb        Energy = 353.11932593164852
   14    -517.2242840837      1.13e-06  
 Alpha HF Exchange    Energy =  -4.42706220890720
 Beta HF Exchange     Energy =  -4.24441277335787
 DFT Correlation      Energy =  -1.85829319923543
 DFT Exchange         Energy = -34.36161144044263
 One-Electron (alpha) Energy = -483.12085477306465
 One-Electron (beta)  Energy = -461.53592852641646
 Total Coulomb        Energy = 353.12057667404360
   15    -517.2242797527      1.51e-06  
 Alpha HF Exchange    Energy =  -4.42706223176177
 Beta HF Exchange     Energy =  -4.24443255804712
 DFT Correlation      Energy =  -1.85829183561529
 DFT Exchange         Energy = -34.36168683763005
 One-Electron (alpha) Energy = -483.12072470900114
 One-Electron (beta)  Energy = -461.53867511865246
 Total Coulomb        Energy = 353.12329316439224
   16    -517.2242736316      5.66e-06  
 Alpha HF Exchange    Energy =  -4.42706187565420
 Beta HF Exchange     Energy =  -4.24445615501188
 DFT Correlation      Energy =  -1.85829039524667
 DFT Exchange         Energy = -34.36177591315542
 One-Electron (alpha) Energy = -483.12055830118231
 One-Electron (beta)  Energy = -461.54182702131811
 Total Coulomb        Energy = 353.12639615279932
   17    -517.2242670141      1.07e-05  
 Alpha HF Exchange    Energy =  -4.42706115068291
 Beta HF Exchange     Energy =  -4.24447833334251
 DFT Correlation      Energy =  -1.85828876951871
 DFT Exchange         Energy = -34.36185767790543
 One-Electron (alpha) Energy = -483.12039021218447
 One-Electron (beta)  Energy = -461.54411735666571
 Total Coulomb        Energy = 353.12862423189614
   18    -517.2242627737      1.56e-05  
 Alpha HF Exchange    Energy =  -4.42706159639925
 Beta HF Exchange     Energy =  -4.24446754516815
 DFT Correlation      Energy =  -1.85828977309546
 DFT Exchange         Energy = -34.36181876221404
 One-Electron (alpha) Energy = -483.12046945994678
 One-Electron (beta)  Energy = -461.54323222664925
 Total Coulomb        Energy = 353.12776862630631
   19    -517.2242642425      1.31e-05  
 Alpha HF Exchange    Energy =  -4.42705988010295
 Beta HF Exchange     Energy =  -4.24446732489112
 DFT Correlation      Energy =  -1.85828890276088
 DFT Exchange         Energy = -34.36181093558503
 One-Electron (alpha) Energy = -483.12033638483172
 One-Electron (beta)  Energy = -461.54391914035887
 Total Coulomb        Energy = 353.12831382462372
   20    -517.2242622492      1.33e-05  
 Alpha HF Exchange    Energy =  -4.42706028136308
 Beta HF Exchange     Energy =  -4.24450121182561
 DFT Correlation      Energy =  -1.85828673565206
 DFT Exchange         Energy = -34.36194334203692
 One-Electron (alpha) Energy = -483.12014768637869
 One-Electron (beta)  Energy = -461.54794976377480
 Total Coulomb        Energy = 353.13232738343402
   21    -517.2242551429      2.07e-05  
 Alpha HF Exchange    Energy =  -4.42705907100675
 Beta HF Exchange     Energy =  -4.24452150035309
 DFT Correlation      Energy =  -1.85828474387517
 DFT Exchange         Energy = -34.36201547962220
 One-Electron (alpha) Energy = -483.11996178107535
 One-Electron (beta)  Energy = -461.54957899677856
 Total Coulomb        Energy = 353.13386281826297
   22    -517.2242522597      2.55e-05  
 Alpha HF Exchange    Energy =  -4.42705918697661
 Beta HF Exchange     Energy =  -4.24452099616571
 DFT Correlation      Energy =  -1.85828477190719
 DFT Exchange         Energy = -34.36201406357442
 One-Electron (alpha) Energy = -483.11996749159408
 One-Electron (beta)  Energy = -461.54959008594591
 Total Coulomb        Energy = 353.13387784144504
   23    -517.2242522600      2.54e-05  
 Alpha HF Exchange    Energy =  -4.42705912827822
 Beta HF Exchange     Energy =  -4.24452066985811
 DFT Correlation      Energy =  -1.85828474036760
 DFT Exchange         Energy = -34.36201260501431
 One-Electron (alpha) Energy = -483.11996676252789
 One-Electron (beta)  Energy = -461.54960759590693
 Total Coulomb        Energy = 353.13389276255003
   24    -517.2242522447      2.53e-05  
 Alpha HF Exchange    Energy =  -4.42705916069120
 Beta HF Exchange     Energy =  -4.24452380533387
 DFT Correlation      Energy =  -1.85828454931151
 DFT Exchange         Energy = -34.36202462771209
 One-Electron (alpha) Energy = -483.11995745385343
 One-Electron (beta)  Energy = -461.54978538223821
 Total Coulomb        Energy = 353.13407658732808
   25    -517.2242518971      2.60e-05  
 Alpha HF Exchange    Energy =  -4.42705936726380
 Beta HF Exchange     Energy =  -4.24449572489784
 DFT Correlation      Energy =  -1.85828632681905
 DFT Exchange         Energy = -34.36191936063315
 One-Electron (alpha) Energy = -483.12005913813169
 One-Electron (beta)  Energy = -461.54839429801513
 Total Coulomb        Energy = 353.13265326334863
   26    -517.2242544577      1.98e-05  
 Alpha HF Exchange    Energy =  -4.42705961165665
 Beta HF Exchange     Energy =  -4.24444854980656
 DFT Correlation      Energy =  -1.85828912249149
 DFT Exchange         Energy = -34.36174246576550
 One-Electron (alpha) Energy = -483.12020240170358
 One-Electron (beta)  Energy = -461.54631231949696
 Total Coulomb        Energy = 353.13049100056639
   27    -517.2242569756      9.28e-06  
 Alpha HF Exchange    Energy =  -4.42705978170096
 Beta HF Exchange     Energy =  -4.24443099288836
 DFT Correlation      Energy =  -1.85829023024005
 DFT Exchange         Energy = -34.36167698062388
 One-Electron (alpha) Energy = -483.12027160778024
 One-Electron (beta)  Energy = -461.54549094378729
 Total Coulomb        Energy = 353.12965655448374
   28    -517.2242574878      5.37e-06  
 Alpha HF Exchange    Energy =  -4.42705999086596
 Beta HF Exchange     Energy =  -4.24439930031477
 DFT Correlation      Energy =  -1.85829212473452
 DFT Exchange         Energy = -34.36155808218206
 One-Electron (alpha) Energy = -483.12038527690265
 One-Electron (beta)  Energy = -461.54382289271894
 Total Coulomb        Energy = 353.12795343801787
   29    -517.2242577350      1.65e-06  
 Alpha HF Exchange    Energy =  -4.42706013503527
 Beta HF Exchange     Energy =  -4.24440542518830
 DFT Correlation      Energy =  -1.85829177936130
 DFT Exchange         Energy = -34.36158179948421
 One-Electron (alpha) Energy = -483.12037564116235
 One-Electron (beta)  Energy = -461.54414494440812
 Total Coulomb        Energy = 353.12829547000058
   30    -517.2242577599      2.83e-07  Convergence criterion met
 ---------------------------------------
 SCF time:   CPU 63.24s  wall 6.00s 
<S^2> =          2.006157027
 Alpha HF Exchange    Energy =  -4.42706013503527
 Beta HF Exchange     Energy =  -4.24440542518830
 DFT Correlation      Energy =  -1.85829177936130
 DFT Exchange         Energy = -34.36158179948421
 One-Electron (alpha) Energy = -483.12037564116235
 One-Electron (beta)  Energy = -461.54414494440812
 Total Coulomb        Energy = 353.12829547000058
 Nuclear repulsion Energy = 119.20330649471524
 SCF   energy in the final basis set =     -517.2242577599
 Total energy in the final basis set =     -517.2242577599
 
 --------------------------------------------------------------
 
                    Orbital Energies (a.u.)
 --------------------------------------------------------------
 
 Alpha MOs
 -- Occupied --
-88.910 -10.184 -10.183 -10.175  -7.971  -5.943  -5.933  -5.923
 -0.777  -0.737  -0.670  -0.577  -0.459  -0.425  -0.412  -0.390
 -0.376  -0.347  -0.330  -0.320  -0.272  -0.196
 -- Virtual --
  0.033   0.106   0.142   0.145   0.159   0.179   0.181   0.222
  0.233   0.273   0.277   0.327   0.333   0.360   0.514   0.535
  0.535   0.549   0.594   0.598   0.659   0.689   0.694   0.697
  0.728   0.738   0.744   0.788   0.814   0.860   0.879   0.883
  0.912   0.939   0.961   1.000   1.086   1.214   1.309   1.431
  1.480   1.529   1.603   1.683   1.823   1.873   1.957   1.977
  2.002   2.054   2.058   2.066   2.071   2.123   2.126   2.227
  2.260   2.291   2.372   2.439   2.453   2.522   2.576   2.678
  2.699   2.712   2.743   2.805   2.860   2.883   2.923   3.186
  3.259   3.358   3.381   3.466   3.482   3.556   3.919   4.241
  4.431   4.607
 
 Beta MOs
 -- Occupied --
-88.904 -10.184 -10.174 -10.169  -7.966  -5.929  -5.925  -5.920
 -0.767  -0.697  -0.652  -0.563  -0.455  -0.419  -0.398  -0.385
 -0.364  -0.341  -0.328  -0.257
 -- Virtual --
 -0.177  -0.037   0.043   0.110   0.147   0.154   0.161   0.182
  0.183   0.227   0.238   0.285   0.286   0.334   0.366   0.372
  0.518   0.537   0.550   0.568   0.600   0.633   0.670   0.707
  0.714   0.736   0.743   0.792   0.792   0.798   0.821   0.863
  0.881   0.886   0.919   0.944   0.973   1.003   1.096   1.225
  1.318   1.460   1.484   1.545   1.624   1.684   1.832   1.878
  1.961   2.002   2.042   2.054   2.061   2.064   2.073   2.125
  2.131   2.229   2.272   2.292   2.378   2.444   2.465   2.531
  2.601   2.684   2.701   2.713   2.747   2.808   2.862   2.885
  2.926   3.187   3.263   3.363   3.382   3.468   3.488   3.559
  3.938   4.260   4.448   4.609
 --------------------------------------------------------------
 
          Ground-State Mulliken Net Atomic Charges

     Atom                 Charge (a.u.)    Spin (a.u.)
  --------------------------------------------------------
      1 S                    -0.073269       1.027616
      2 C                    -0.188957      -0.073799
      3 C                    -0.216749       1.079984
      4 C                    -0.307226       0.049748
      5 H                     0.103368       0.015203
      6 H                     0.099238       0.010948
      7 H                     0.101337      -0.047415
      8 H                     0.098903      -0.047569
      9 H                     0.105356      -0.000716
     10 H                     0.099903       0.013762
     11 H                     0.104848      -0.000371
     12 H                     0.073248      -0.027392
  --------------------------------------------------------
  Sum of atomic charges =     0.000000
  Sum of spin   charges =     2.000000

 -----------------------------------------------------------------
                    Cartesian Multipole Moments
 -----------------------------------------------------------------
    Charge (ESU x 10^10)
                 0.0000
    Dipole Moment (Debye)
         X      -0.4575      Y       0.3170      Z      -0.9529
       Tot       1.1035
    Quadrupole Moments (Debye-Ang)
        XX     -38.5960     XY      -0.6913     YY     -33.4513
        XZ      -3.9616     YZ      -1.1902     ZZ     -31.6054
    Octopole Moments (Debye-Ang^2)
       XXX    -138.2422    XXY     -18.1263    XYY     -33.6384
       YYY     -25.7852    XXZ     -14.0304    XYZ      -4.9178
       YYZ       0.6001    XZZ     -26.5585    YZZ      -7.9875
       ZZZ       5.0093
    Hexadecapole Moments (Debye-Ang^3)
      XXXX   -2401.2555   XXXY    -301.9299   XXYY    -398.5139
      XYYY    -209.3709   YYYY    -202.7510   XXXZ     -13.7451
      XXYZ     -14.4206   XYYZ      10.0073   YYYZ       9.1729
      XXZZ    -326.9878   XYZZ     -58.8570   YYZZ     -40.3361
      XZZZ      40.0512   YZZZ       8.0126   ZZZZ     -65.7114
 -----------------------------------------------------------------
 Calculating analytic gradient of the SCF energy
 Gradient of SCF Energy
            1           2           3           4           5           6
    1  -0.0001735  -0.0001801   0.0005281  -0.0000413   0.0000415   0.0000508
    2  -0.0000006  -0.0000961   0.0002686  -0.0001631   0.0000868   0.0001239
    3  -0.0000027  -0.0001533   0.0000977   0.0000683  -0.0000721   0.0000841
            7           8           9          10          11          12
    1  -0.0002357  -0.0001202   0.0000210   0.0000070   0.0000170   0.0000854
    2  -0.0001798  -0.0000874   0.0000337  -0.0000045   0.0000177   0.0000007
    3   0.0000189  -0.0000112   0.0000133   0.0000076  -0.0000080  -0.0000425
 Max gradient component =       5.281E-04
 RMS gradient           =       1.344E-04
 Gradient time:  CPU 7.05 s  wall 0.60 s
 Geometry Optimization Parameters
   NAtoms,    NIC,     NZ,  NCons,   NDum,   NFix, NCnnct, MaxDiis
       12     329       0       1       0       0       0       0


** CONSTRAINED OPTIMIZATION IN DELOCALIZED INTERNAL COORDINATES **
   Searching for a Minimum

   Optimization Cycle:   1

                       Coordinates (Angstroms)
     ATOM                X               Y               Z
      1  S         4.5981660000    1.0951630000   -0.1661920000
      2  C        -1.0587290000    0.2387440000   -0.0140590000
      3  C        -0.1747800000   -0.9635620000   -0.0225020000
      4  C        -2.5611210000   -0.1027230000    0.1298480000
      5  H        -0.7751900000    0.9049710000    0.8119440000
      6  H        -0.9186590000    0.8143340000   -0.9383610000
      7  H         0.1069910000   -1.4499720000    0.9063860000
      8  H         0.0292090000   -1.4985370000   -0.9449530000
      9  H        -2.7531250000   -0.6426490000    1.0625590000
     10  H        -3.1682110000    0.8094880000    0.1343600000
     11  H        -2.9016310000   -0.7333520000   -0.6975390000
     12  H         4.2896840000    1.4318960000   -1.4384840000
   Point Group: c1    Number of degrees of freedom:    30


   Energy is   -517.224257760

              Constraints and their Current Values
                                        Value     Constraint
   Distance(Angs):        1   3             5.200001     5.100000

 Attempting to Generate Delocalized Internal Coordinates

   Using Lagrange Multiplier Algorithm


 31 Hessian modes will be used to form the next step
  Hessian Eigenvalues:
    -0.998487    0.019658    0.040726    0.045330    0.045689    0.047335
     0.050126    0.052412    0.053490    0.055441    0.058038    0.060353
     0.062405    0.062698    0.081648    0.114489    0.134140    0.156800
     0.159075    0.159376    0.188722    0.194432    0.218730    0.219976
     0.229352    0.277034    0.281924    0.341533    0.342760    0.342832
     1.001515

 Minimum Search - Taking P-RFO Step
 Searching for Lamda that Maximizes Along the Constraint modes Only
 Value Taken    Lamda =   0.01764011
 Searching for Lamda that Minimizes Along All other modes
 Value Taken    Lamda =  -0.01745603
 Step Taken.  Stepsize is  0.185733

                             Maximum     Tolerance    Cnvgd?
         Gradient            0.188974       0.000300      NO
         Displacement        0.185715       0.001200      NO
         Energy change     *********       0.000001      NO


 New Cartesian Coordinates Obtained by Inverse Iteration

 Displacement from previous Coordinates is:  0.163138
 ----------------------------------------------------------------
             Standard Nuclear Orientation (Angstroms)
    I     Atom           X                Y                Z
 ----------------------------------------------------------------
    1      S       4.5426755483     1.0724404041    -0.1586914630
    2      C      -1.0573302012     0.2450815261    -0.0144791207
    3      C      -0.1353054235    -0.9589384301    -0.0260717045
    4      C      -2.5592657666    -0.0968730841     0.1306570263
    5      H      -0.7897188504     0.9048939878     0.8149002946
    6      H      -0.9340240151     0.8215603732    -0.9443926743
    7      H       0.1284774865    -1.4532145473     0.9126338253
    8      H       0.0543034320    -1.5088845507    -0.9550737352
    9      H      -2.7502943209    -0.6369613294     1.0635051849
   10      H      -3.1666731160     0.8151169167     0.1360694840
   11      H      -2.9005905260    -0.7271542382    -0.6966854986
   12      H       4.2803497528     1.4267339720    -1.4393646187
 ----------------------------------------------------------------
 Nuclear Repulsion Energy =   119.1830097111 hartrees
 There are       22 alpha and       20 beta electrons

                       Distance Matrix (Angstroms)
             S (  1)   C (  2)   C (  3)   C (  4)   H (  5)   H (  6)
   C (  2)  5.662631
   C (  3)  5.101725  1.516551
   C (  4)  7.203373  1.547194  2.577461
   H (  5)  5.423134  1.093087  2.146943  2.145466
   H (  6)  5.538457  1.101032  2.156720  2.154220  1.767167
   H (  7)  5.197289  2.269336  1.093187  3.110484  2.532452  3.122828
   H (  8)  5.238602  2.279659  1.096101  3.162804  3.109905  2.531379
   H (  9)  7.589679  2.192300  2.851143  1.094711  2.506587  3.075350
   H ( 10)  7.719272  2.190190  3.516071  1.095764  2.473617  2.480355
   H ( 11)  7.676600  2.192774  2.854864  1.094647  3.066635  2.515404
   H ( 12)  1.354423  5.649551  5.214100  7.180995  5.573116  5.272658
             H (  7)   H (  8)   H (  9)   H ( 10)   H ( 11)
   H (  8)  1.870009
   H (  9)  2.996057  3.563801
   H ( 10)  4.075095  4.119013  1.772580
   H ( 11)  3.506041  3.067453  1.768897  1.772817
   H ( 12)  5.573513  5.168352  7.742942  7.636375  7.533705
 
 Applying Cartesian multipole field
    Component          Value
    ---------          -----
     (2,0,0)        1.00000E-11
     (0,2,0)        2.00000E-11
     (0,0,2)       -3.00000E-10
 Nucleus-field energy     =     0.0000000094 hartrees
 Requested basis set is 6-31G(d,p)
 There are 41 shells and 104 basis functions
 A cutoff of  1.0D-14 yielded    730 shell pairs
 There are      4591 function pairs
 Smallest overlap matrix eigenvalue = 6.59E-03
 Guess from superposition of atomic densities
 Warning:  Energy on first SCF cycle will be non-variational
 SAD guess density has 42.000000 electrons

 -----------------------------------------------------------------------
  General SCF calculation program by
  Eric Jon Sundstrom, Paul Horn, Yuezhi Mao, Dmitri Zuev, Alec White,
  David Stuck, Shaama M.S., Shane Yost, Joonho Lee, David Small,
  Daniel Levine, Susi Lehtola, Hugh Burton, Evgeny Epifanovsky
 -----------------------------------------------------------------------
 Exchange:     0.2000 Hartree-Fock + 0.0800 Slater + 0.7200 B88
 Correlation:  0.1900 VWN1RPA + 0.8100 LYP
 Using SG-1 standard quadrature grid
 using 12 threads for integral computing
 -------------------------------------------------------
 OpenMP Integral computing Module                
 Release: version 1.0, May 2013, Q-Chem Inc. Pittsburgh 
 -------------------------------------------------------
 -------------------------------------------------------
 OpenMP BLAS3 based DFT computing Module                
 Release: version 1.0, May 2013, Q-Chem Inc. Pittsburgh 
 -------------------------------------------------------
 A unrestricted SCF calculation will be
 performed using DIIS
 SCF converges when DIIS error is below 1.0e-06
 Alpha HF Exchange    Energy =  -4.31338629166818
 Beta HF Exchange     Energy =  -4.31338629166818
 DFT Correlation      Energy =  -1.85236145837266
 DFT Exchange         Energy = -33.93406841449372
 One-Electron (alpha) Energy = -470.52104566287124
 One-Electron (beta)  Energy = -470.52104566287124
 Total Coulomb        Energy = 348.88830293394801
 ---------------------------------------
  Cycle       Energy         DIIS error
 ---------------------------------------
    1    -517.3839811275      2.77e-02  
 Alpha HF Exchange    Energy =  -4.45117771748810
 Beta HF Exchange     Energy =  -4.26928573926213
 DFT Correlation      Energy =  -1.87210523882493
 DFT Exchange         Energy = -34.57430795636520
 One-Electron (alpha) Energy = -484.54355860240241
 One-Electron (beta)  Energy = -463.23577133877461
 Total Coulomb        Energy = 356.62008604928479
    2    -517.1431108233      3.58e-03  
 Alpha HF Exchange    Energy =  -4.39565764226450
 Beta HF Exchange     Energy =  -4.21836381387572
 DFT Correlation      Energy =  -1.84444321046427
 DFT Exchange         Energy = -34.12582721282233
 One-Electron (alpha) Energy = -481.27235742869050
 One-Electron (beta)  Energy = -459.97655876873216
 Total Coulomb        Energy = 349.51162955204427
    3    -517.1385688043      3.80e-03  
 Alpha HF Exchange    Energy =  -4.42406682633670
 Beta HF Exchange     Energy =  -4.24307399816631
 DFT Correlation      Energy =  -1.85751898965929
 DFT Exchange         Energy = -34.34647700865393
 One-Electron (alpha) Energy = -483.07392764419274
 One-Electron (beta)  Energy = -461.57888093078486
 Total Coulomb        Energy = 353.11775116302806
    4    -517.2231845142      2.72e-04  
 Alpha HF Exchange    Energy =  -4.42545454155506
 Beta HF Exchange     Energy =  -4.24307100893740
 DFT Correlation      Energy =  -1.85745991879577
 DFT Exchange         Energy = -34.35139472391570
 One-Electron (alpha) Energy = -483.11790747877768
 One-Electron (beta)  Energy = -461.55401580889617
 Total Coulomb        Energy = 353.14276930185770
    5    -517.2235244585      1.47e-04  
 Alpha HF Exchange    Energy =  -4.42512287461967
 Beta HF Exchange     Energy =  -4.24292382810449
 DFT Correlation      Energy =  -1.85722747061875
 DFT Exchange         Energy = -34.34925836000355
 One-Electron (alpha) Energy = -483.10788252101446
 One-Electron (beta)  Energy = -461.53095217886340
 Total Coulomb        Energy = 353.10670766342139
    6    -517.2236498493      3.72e-05  
 Alpha HF Exchange    Energy =  -4.42524992804331
 Beta HF Exchange     Energy =  -4.24284445393533
 DFT Correlation      Energy =  -1.85720020399906
 DFT Exchange         Energy = -34.34938944365042
 One-Electron (alpha) Energy = -483.11458433848816
 One-Electron (beta)  Energy = -461.52501536357107
 Total Coulomb        Energy = 353.10761459400362
    7    -517.2236594171      9.08e-06  
 Alpha HF Exchange    Energy =  -4.42531267383995
 Beta HF Exchange     Energy =  -4.24284618479095
 DFT Correlation      Energy =  -1.85719055879058
 DFT Exchange         Energy = -34.34961213659773
 One-Electron (alpha) Energy = -483.11900094135143
 One-Electron (beta)  Energy = -461.52392794950657
 Total Coulomb        Energy = 353.11122033395520
    8    -517.2236603904      3.83e-06  
 Alpha HF Exchange    Energy =  -4.42530816783563
 Beta HF Exchange     Energy =  -4.24282803802999
 DFT Correlation      Energy =  -1.85718238677976
 DFT Exchange         Energy = -34.34952289531468
 One-Electron (alpha) Energy = -483.11838167931973
 One-Electron (beta)  Energy = -461.52226837829858
 Total Coulomb        Energy = 353.10882120462622
    9    -517.2236606204      1.55e-06  
 Alpha HF Exchange    Energy =  -4.42531115042572
 Beta HF Exchange     Energy =  -4.24282818561883
 DFT Correlation      Energy =  -1.85718235129497
 DFT Exchange         Energy = -34.34953522434053
 One-Electron (alpha) Energy = -483.11859012409582
 One-Electron (beta)  Energy = -461.52222438412605
 Total Coulomb        Energy = 353.10900095737787
   10    -517.2236607420      1.09e-06  
 Alpha HF Exchange    Energy =  -4.42531281076879
 Beta HF Exchange     Energy =  -4.24282873016950
 DFT Correlation      Energy =  -1.85718280857888
 DFT Exchange         Energy = -34.34954445433937
 One-Electron (alpha) Energy = -483.11873086195214
 One-Electron (beta)  Energy = -461.52227463463805
 Total Coulomb        Energy = 353.10920372991461
   11    -517.2236608500      9.77e-07  Convergence criterion met
 ---------------------------------------
 SCF time:   CPU 22.63s  wall 2.00s 
<S^2> =          2.006215941
 Alpha HF Exchange    Energy =  -4.42531281076879
 Beta HF Exchange     Energy =  -4.24282873016950
 DFT Correlation      Energy =  -1.85718280857888
 DFT Exchange         Energy = -34.34954445433937
 One-Electron (alpha) Energy = -483.11873086195214
 One-Electron (beta)  Energy = -461.52227463463805
 Total Coulomb        Energy = 353.10920372991461
 Nuclear repulsion Energy = 119.18300972054102
 SCF   energy in the final basis set =     -517.2236608500
 Total energy in the final basis set =     -517.2236608500
 
 --------------------------------------------------------------
 
                    Orbital Energies (a.u.)
 --------------------------------------------------------------
 
 Alpha MOs
 -- Occupied --
-88.910 -10.188 -10.185 -10.175  -7.971  -5.942  -5.932  -5.923
 -0.774  -0.737  -0.669  -0.577  -0.458  -0.423  -0.411  -0.390
 -0.375  -0.344  -0.331  -0.319  -0.271  -0.199
 -- Virtual --
  0.032   0.105   0.138   0.146   0.160   0.177   0.180   0.218
  0.231   0.270   0.273   0.327   0.333   0.360   0.516   0.533
  0.536   0.550   0.594   0.596   0.651   0.690   0.694   0.697
  0.728   0.738   0.744   0.782   0.810   0.861   0.878   0.884
  0.908   0.938   0.958   0.997   1.083   1.207   1.312   1.418
  1.480   1.537   1.597   1.687   1.814   1.861   1.951   1.957
  2.000   2.053   2.057   2.066   2.071   2.121   2.126   2.222
  2.254   2.293   2.372   2.423   2.456   2.509   2.566   2.671
  2.695   2.702   2.739   2.800   2.841   2.886   2.916   3.184
  3.249   3.347   3.373   3.464   3.465   3.549   3.920   4.229
  4.429   4.604
 
 Beta MOs
 -- Occupied --
-88.904 -10.186 -10.174 -10.174  -7.966  -5.929  -5.925  -5.920
 -0.764  -0.697  -0.650  -0.563  -0.454  -0.417  -0.398  -0.385
 -0.363  -0.339  -0.329  -0.257
 -- Virtual --
 -0.176  -0.038   0.043   0.108   0.148   0.151   0.162   0.181
  0.182   0.223   0.236   0.278   0.287   0.334   0.366   0.372
  0.521   0.537   0.554   0.562   0.597   0.631   0.665   0.707
  0.714   0.736   0.744   0.787   0.793   0.798   0.817   0.864
  0.880   0.886   0.916   0.943   0.969   1.000   1.093   1.217
  1.321   1.443   1.485   1.556   1.618   1.687   1.823   1.866
  1.956   1.986   2.036   2.054   2.061   2.063   2.073   2.126
  2.129   2.223   2.265   2.294   2.377   2.429   2.468   2.517
  2.589   2.677   2.697   2.704   2.743   2.802   2.844   2.887
  2.919   3.185   3.253   3.352   3.375   3.467   3.471   3.551
  3.938   4.249   4.445   4.606
 --------------------------------------------------------------
 
          Ground-State Mulliken Net Atomic Charges

     Atom                 Charge (a.u.)    Spin (a.u.)
  --------------------------------------------------------
      1 S                    -0.073196       1.027797
      2 C                    -0.189255      -0.072734
      3 C                    -0.217312       1.083570
      4 C                    -0.308181       0.047450
      5 H                     0.104609       0.013808
      6 H                     0.099127       0.010266
      7 H                     0.101302      -0.046956
      8 H                     0.099198      -0.047091
      9 H                     0.105002      -0.000672
     10 H                     0.100800       0.012379
     11 H                     0.104756      -0.000327
     12 H                     0.073152      -0.027492
  --------------------------------------------------------
  Sum of atomic charges =    -0.000000
  Sum of spin   charges =     2.000000

 -----------------------------------------------------------------
                    Cartesian Multipole Moments
 -----------------------------------------------------------------
    Charge (ESU x 10^10)
                -0.0000
    Dipole Moment (Debye)
         X      -0.4643      Y       0.3091      Z      -0.9490
       Tot       1.1008
    Quadrupole Moments (Debye-Ang)
        XX     -37.7403     XY      -0.8840     YY     -33.9531
        XZ      -4.2338     YZ      -1.3253     ZZ     -31.5824
    Octopole Moments (Debye-Ang^2)
       XXX    -127.1217    XXY     -18.6959    XYY     -36.1092
       YYY     -27.0302    XXZ     -16.6331    XYZ      -5.8413
       YYZ       0.2995    XZZ     -25.9777    YZZ      -7.7344
       ZZZ       4.8176
    Hexadecapole Moments (Debye-Ang^3)
      XXXX   -2274.7659   XXXY    -296.3700   XXYY    -405.3062
      XYYY    -210.7162   YYYY    -204.0814   XXXZ     -33.6829
      XXYZ     -20.1295   XYYZ       8.1068   YYYZ       8.3338
      XXZZ    -319.3323   XYZZ     -56.2062   YYZZ     -39.7742
      XZZZ      38.1525   YZZZ       7.3257   ZZZZ     -65.7375
 -----------------------------------------------------------------
 Calculating analytic gradient of the SCF energy
 Gradient of SCF Energy
            1           2           3           4           5           6
    1   0.0001291  -0.0045858   0.0083436  -0.0010283  -0.0025066  -0.0016623
    2  -0.0003392   0.0083542  -0.0038042   0.0027811  -0.0022218   0.0009009
    3   0.0012744   0.0040011   0.0010435   0.0001683  -0.0013473  -0.0023809
            7           8           9          10          11          12
    1   0.0004633   0.0008994   0.0003011  -0.0004695   0.0003265  -0.0002105
    2  -0.0023294  -0.0038190   0.0001179  -0.0000882   0.0000857   0.0003619
    3   0.0044168  -0.0058300  -0.0000081   0.0000459  -0.0000696  -0.0013142
 Max gradient component =       8.354E-03
 RMS gradient           =       2.895E-03
 Gradient time:  CPU 7.04 s  wall 0.60 s
 Geometry Optimization Parameters
   NAtoms,    NIC,     NZ,  NCons,   NDum,   NFix, NCnnct, MaxDiis
       12     331       0       1       0       0       0       0

 Cartesian Hessian Update
 Hessian Updated using BFGS Update


** CONSTRAINED OPTIMIZATION IN DELOCALIZED INTERNAL COORDINATES **
   Searching for a Minimum

   Optimization Cycle:   2

                       Coordinates (Angstroms)
     ATOM                X               Y               Z
      1  S         4.5426755483    1.0724404041   -0.1586914630
      2  C        -1.0573302012    0.2450815261   -0.0144791207
      3  C        -0.1353054235   -0.9589384301   -0.0260717045
      4  C        -2.5592657666   -0.0968730841    0.1306570263
      5  H        -0.7897188504    0.9048939878    0.8149002946
      6  H        -0.9340240151    0.8215603732   -0.9443926743
      7  H         0.1284774865   -1.4532145473    0.9126338253
      8  H         0.0543034320   -1.5088845507   -0.9550737352
      9  H        -2.7502943209   -0.6369613294    1.0635051849
     10  H        -3.1666731160    0.8151169167    0.1360694840
     11  H        -2.9005905260   -0.7271542382   -0.6966854986
     12  H         4.2803497528    1.4267339720   -1.4393646187
   Point Group: c1    Number of degrees of freedom:    30


   Energy is   -517.223660850

              Constraints and their Current Values
                                        Value     Constraint
   Distance(Angs):        1   3             5.101725     5.100000
 Hessian Updated using BFGS Update

   Using Lagrange Multiplier Algorithm


 31 Hessian modes will be used to form the next step
  Hessian Eigenvalues:
    -0.985535    0.020602    0.040734    0.045332    0.045686    0.047337
     0.050108    0.052430    0.053524    0.055439    0.058047    0.060358
     0.062618    0.062697    0.082091    0.114584    0.135381    0.157097
     0.159074    0.159489    0.194047    0.208340    0.219494    0.225681
     0.235435    0.277244    0.341474    0.342737    0.342822    0.388371
     1.020177

 Minimum Search - Taking P-RFO Step
 Searching for Lamda that Maximizes Along the Constraint modes Only
 Value Taken    Lamda =   0.00003338
 Searching for Lamda that Minimizes Along All other modes
 Value Taken    Lamda =  -0.00049012
 Step Taken.  Stepsize is  0.053656

                             Maximum     Tolerance    Cnvgd?
         Gradient            0.009813       0.000300      NO
         Displacement        0.026706       0.001200      NO
         Energy change      0.000597       0.000001      NO


 New Cartesian Coordinates Obtained by Inverse Iteration

 Displacement from previous Coordinates is:  0.044961
 ----------------------------------------------------------------
             Standard Nuclear Orientation (Angstroms)
    I     Atom           X                Y                Z
 ----------------------------------------------------------------
    1      S       4.5375551245     1.0708304063    -0.1589128433
    2      C      -1.0538432619     0.2436767989    -0.0151903851
    3      C      -0.1415002286    -0.9537231664    -0.0261439640
    4      C      -2.5550121950    -0.1003446082     0.1299992740
    5      H      -0.7835165475     0.9051572321     0.8149269022
    6      H      -0.9289130223     0.8196762729    -0.9429601697
    7      H       0.1212106323    -1.4468012125     0.9091112918
    8      H       0.0461794744    -1.5012740927    -0.9505519655
    9      H      -2.7472758647    -0.6404523045     1.0627268902
   10      H      -3.1609208867     0.8124309646     0.1350234517
   11      H      -2.8976051032    -0.7308062316    -0.6968142224
   12      H       4.2762458787     1.4254309410    -1.4382072598
 ----------------------------------------------------------------
 Nuclear Repulsion Energy =   119.4407987643 hartrees
 There are       22 alpha and       20 beta electrons

                       Distance Matrix (Angstroms)
             S (  1)   C (  2)   C (  3)   C (  4)   H (  5)   H (  6)
   C (  2)  5.654076
   C (  3)  5.100000  1.505409
   C (  4)  7.194417  1.546913  2.564698
   H (  5)  5.411988  1.095321  2.138930  2.149036
   H (  6)  5.528117  1.099154  2.146047  2.154502  1.765960
   H (  7)  5.194540  2.256724  1.089424  3.095502  2.521728  3.109638
   H (  8)  5.235921  2.264907  1.090672  3.145853  3.097777  2.517474
   H (  9)  7.582193  2.193468  2.841451  1.094834  2.511307  3.075906
   H ( 10)  7.708418  2.187652  3.501739  1.095587  2.474453  2.478701
   H ( 11)  7.669214  2.194011  2.845278  1.094748  3.071011  2.518002
   H ( 12)  1.353003  5.641930  5.212560  7.173099  5.563137  5.263638
             H (  7)   H (  8)   H (  9)   H ( 10)   H ( 11)
   H (  8)  1.861973
   H (  9)  2.983624  3.549324
   H ( 10)  4.059031  4.100878  1.772740
   H ( 11)  3.493550  3.053501  1.768261  1.772814
   H ( 12)  5.569914  5.166902  7.736433  7.626419  7.527494
 
 Applying Cartesian multipole field
    Component          Value
    ---------          -----
     (2,0,0)        1.00000E-11
     (0,2,0)        2.00000E-11
     (0,0,2)       -3.00000E-10
 Nucleus-field energy     =     0.0000000094 hartrees
 Requested basis set is 6-31G(d,p)
 There are 41 shells and 104 basis functions
 A cutoff of  1.0D-14 yielded    732 shell pairs
 There are      4606 function pairs
 Smallest overlap matrix eigenvalue = 6.50E-03
 Guess from superposition of atomic densities
 Warning:  Energy on first SCF cycle will be non-variational
 SAD guess density has 42.000000 electrons

 -----------------------------------------------------------------------
  General SCF calculation program by
  Eric Jon Sundstrom, Paul Horn, Yuezhi Mao, Dmitri Zuev, Alec White,
  David Stuck, Shaama M.S., Shane Yost, Joonho Lee, David Small,
  Daniel Levine, Susi Lehtola, Hugh Burton, Evgeny Epifanovsky
 -----------------------------------------------------------------------
 Exchange:     0.2000 Hartree-Fock + 0.0800 Slater + 0.7200 B88
 Correlation:  0.1900 VWN1RPA + 0.8100 LYP
 Using SG-1 standard quadrature grid
 using 12 threads for integral computing
 -------------------------------------------------------
 OpenMP Integral computing Module                
 Release: version 1.0, May 2013, Q-Chem Inc. Pittsburgh 
 -------------------------------------------------------
 -------------------------------------------------------
 OpenMP BLAS3 based DFT computing Module                
 Release: version 1.0, May 2013, Q-Chem Inc. Pittsburgh 
 -------------------------------------------------------
 A unrestricted SCF calculation will be
 performed using DIIS
 SCF converges when DIIS error is below 1.0e-06
 Alpha HF Exchange    Energy =  -4.31523513145058
 Beta HF Exchange     Energy =  -4.31523513145058
 DFT Correlation      Energy =  -1.85280036225298
 DFT Exchange         Energy = -33.93785790207535
 One-Electron (alpha) Energy = -470.76894248086893
 One-Electron (beta)  Energy = -470.76894248086893
 Total Coulomb        Energy = 349.11837044502590
 ---------------------------------------
  Cycle       Energy         DIIS error
 ---------------------------------------
    1    -517.3998442702      2.78e-02  
 Alpha HF Exchange    Energy =  -4.45238455705343
 Beta HF Exchange     Energy =  -4.27019844870779
 DFT Correlation      Energy =  -1.87272717513790
 DFT Exchange         Energy = -34.58216872029056
 One-Electron (alpha) Energy = -484.82350686251664
 One-Electron (beta)  Energy = -463.48769724978564
 Total Coulomb        Energy = 356.90531530925739
    2    -517.1425689305      3.60e-03  
 Alpha HF Exchange    Energy =  -4.39630077415639
 Beta HF Exchange     Energy =  -4.21899634607362
 DFT Correlation      Energy =  -1.84488396618443
 DFT Exchange         Energy = -34.13028055565400
 One-Electron (alpha) Energy = -481.52117759715145
 One-Electron (beta)  Energy = -460.20653028922595
 Total Coulomb        Energy = 349.73940381369704
    3    -517.1379669410      3.82e-03  
 Alpha HF Exchange    Energy =  -4.42498399874107
 Beta HF Exchange     Energy =  -4.24386310972294
 DFT Correlation      Energy =  -1.85805885194215
 DFT Exchange         Energy = -34.35264478029417
 One-Electron (alpha) Energy = -483.33930931649746
 One-Electron (beta)  Energy = -461.82141694565877
 Total Coulomb        Energy = 353.37593333061216
    4    -517.2235448985      2.72e-04  
 Alpha HF Exchange    Energy =  -4.42634975057788
 Beta HF Exchange     Energy =  -4.24385380029822
 DFT Correlation      Energy =  -1.85799222832307
 DFT Exchange         Energy = -34.35744233424597
 One-Electron (alpha) Energy = -483.38206815276061
 One-Electron (beta)  Energy = -461.79586704752802
 Total Coulomb        Energy = 353.39888781862015
    5    -517.2238867214      1.46e-04  
 Alpha HF Exchange    Energy =  -4.42602864901664
 Beta HF Exchange     Energy =  -4.24371700213301
 DFT Correlation      Energy =  -1.85776519512850
 DFT Exchange         Energy = -34.35539082573619
 One-Electron (alpha) Energy = -483.37255717220779
 One-Electron (beta)  Energy = -461.77336867123216
 Total Coulomb        Energy = 353.36401887649100
    6    -517.2240098652      3.71e-05  
 Alpha HF Exchange    Energy =  -4.42615309306696
 Beta HF Exchange     Energy =  -4.24363760141278
 DFT Correlation      Energy =  -1.85773780992043
 DFT Exchange         Energy = -34.35551046724613
 One-Electron (alpha) Energy = -483.37916449197905
 One-Electron (beta)  Energy = -461.76749496465737
 Total Coulomb        Energy = 353.36488036786454
    7    -517.2240192867      9.03e-06  
 Alpha HF Exchange    Energy =  -4.42621404514054
 Beta HF Exchange     Energy =  -4.24363971739632
 DFT Correlation      Energy =  -1.85772834059844
 DFT Exchange         Energy = -34.35572783041584
 One-Electron (alpha) Energy = -483.38344317201984
 One-Electron (beta)  Energy = -461.76640623321794
 Total Coulomb        Energy = 353.36834034350227
    8    -517.2240202216      3.89e-06  
 Alpha HF Exchange    Energy =  -4.42621026484334
 Beta HF Exchange     Energy =  -4.24362231293033
 DFT Correlation      Energy =  -1.85772056086965
 DFT Exchange         Energy = -34.35564428374855
 One-Electron (alpha) Energy = -483.38290117642850
 One-Electron (beta)  Energy = -461.76482924120234
 Total Coulomb        Energy = 353.36610862497457
    9    -517.2240204413      1.58e-06  
 Alpha HF Exchange    Energy =  -4.42621261611666
 Beta HF Exchange     Energy =  -4.24362196065398
 DFT Correlation      Energy =  -1.85772030382121
 DFT Exchange         Energy = -34.35565217917042
 One-Electron (alpha) Energy = -483.38305343388953
 One-Electron (beta)  Energy = -461.76473799915368
 Total Coulomb        Energy = 353.36617916599351
   10    -517.2240205531      1.05e-06  
 Alpha HF Exchange    Energy =  -4.42621450929753
 Beta HF Exchange     Energy =  -4.24362264264728
 DFT Correlation      Energy =  -1.85772082215198
 DFT Exchange         Energy = -34.35566285212475
 One-Electron (alpha) Energy = -483.38321410430837
 One-Electron (beta)  Energy = -461.76480110722389
 Total Coulomb        Energy = 353.36641660827564
   11    -517.2240206557      9.40e-07  Convergence criterion met
 ---------------------------------------
 SCF time:   CPU 24.02s  wall 2.00s 
<S^2> =          2.006158943
 Alpha HF Exchange    Energy =  -4.42621450929753
 Beta HF Exchange     Energy =  -4.24362264264728
 DFT Correlation      Energy =  -1.85772082215198
 DFT Exchange         Energy = -34.35566285212475
 One-Electron (alpha) Energy = -483.38321410430837
 One-Electron (beta)  Energy = -461.76480110722389
 Total Coulomb        Energy = 353.36641660827564
 Nuclear repulsion Energy = 119.44079877372846
 SCF   energy in the final basis set =     -517.2240206557
 Total energy in the final basis set =     -517.2240206557
 
 --------------------------------------------------------------
 
                    Orbital Energies (a.u.)
 --------------------------------------------------------------
 
 Alpha MOs
 -- Occupied --
-88.910 -10.186 -10.184 -10.175  -7.971  -5.942  -5.932  -5.923
 -0.775  -0.737  -0.670  -0.577  -0.459  -0.423  -0.411  -0.390
 -0.376  -0.345  -0.331  -0.319  -0.271  -0.198
 -- Virtual --
  0.032   0.105   0.140   0.146   0.159   0.178   0.181   0.219
  0.231   0.273   0.274   0.327   0.333   0.360   0.515   0.534
  0.536   0.549   0.594   0.596   0.654   0.689   0.694   0.697
  0.728   0.738   0.744   0.783   0.812   0.860   0.878   0.884
  0.910   0.938   0.959   0.998   1.085   1.210   1.311   1.419
  1.480   1.540   1.598   1.685   1.819   1.865   1.955   1.962
  2.006   2.053   2.058   2.066   2.071   2.122   2.125   2.224
  2.255   2.293   2.373   2.427   2.457   2.513   2.572   2.675
  2.697   2.709   2.741   2.805   2.847   2.885   2.919   3.184
  3.254   3.353   3.375   3.466   3.474   3.551   3.920   4.233
  4.430   4.606
 
 Beta MOs
 -- Occupied --
-88.904 -10.185 -10.174 -10.172  -7.966  -5.929  -5.925  -5.920
 -0.765  -0.697  -0.651  -0.563  -0.454  -0.418  -0.398  -0.385
 -0.364  -0.340  -0.329  -0.257
 -- Virtual --
 -0.176  -0.038   0.043   0.109   0.148   0.153   0.161   0.181
  0.182   0.224   0.237   0.281   0.287   0.334   0.366   0.372
  0.520   0.538   0.552   0.563   0.598   0.633   0.667   0.707
  0.714   0.736   0.744   0.787   0.793   0.798   0.820   0.863
  0.880   0.886   0.918   0.944   0.970   1.001   1.095   1.220
  1.320   1.445   1.485   1.558   1.620   1.686   1.828   1.870
  1.959   1.991   2.042   2.054   2.061   2.063   2.072   2.125
  2.130   2.225   2.266   2.294   2.379   2.433   2.469   2.522
  2.595   2.681   2.699   2.711   2.745   2.808   2.849   2.887
  2.922   3.186   3.259   3.358   3.377   3.468   3.481   3.553
  3.938   4.253   4.446   4.608
 --------------------------------------------------------------
 
          Ground-State Mulliken Net Atomic Charges

     Atom                 Charge (a.u.)    Spin (a.u.)
  --------------------------------------------------------
      1 S                    -0.073182       1.027744
      2 C                    -0.189296      -0.072918
      3 C                    -0.216306       1.080711
      4 C                    -0.307955       0.048911
      5 H                     0.103886       0.014368
      6 H                     0.099217       0.010552
      7 H                     0.101082      -0.046804
      8 H                     0.099134      -0.046891
      9 H                     0.104975      -0.000710
     10 H                     0.100651       0.012836
     11 H                     0.104658      -0.000362
     12 H                     0.073138      -0.027438
  --------------------------------------------------------
  Sum of atomic charges =    -0.000000
  Sum of spin   charges =     2.000000

 -----------------------------------------------------------------
                    Cartesian Multipole Moments
 -----------------------------------------------------------------
    Charge (ESU x 10^10)
                -0.0000
    Dipole Moment (Debye)
         X      -0.4613      Y       0.3095      Z      -0.9529
       Tot       1.1030
    Quadrupole Moments (Debye-Ang)
        XX     -37.7405     XY      -0.8501     YY     -33.9389
        XZ      -4.2280     YZ      -1.3264     ZZ     -31.5795
    Octopole Moments (Debye-Ang^2)
       XXX    -127.0077    XXY     -18.7071    XYY     -35.9876
       YYY     -26.9509    XXZ     -16.5938    XYZ      -5.8185
       YYZ       0.3091    XZZ     -25.9310    YZZ      -7.7186
       ZZZ       4.8293
    Hexadecapole Moments (Debye-Ang^3)
      XXXX   -2270.6335   XXXY    -295.7635   XXYY    -403.8811
      XYYY    -210.2895   YYYY    -203.0884   XXXZ     -33.4721
      XXYZ     -20.0299   XYYZ       8.1068   YYYZ       8.3243
      XXZZ    -318.5620   XYZZ     -56.1612   YYZZ     -39.6600
      XZZZ      38.0810   YZZZ       7.3284   ZZZZ     -65.6179
 -----------------------------------------------------------------
 Calculating analytic gradient of the SCF energy
 Gradient of SCF Energy
            1           2           3           4           5           6
    1  -0.0000095  -0.0025922   0.0059274  -0.0003344  -0.0016120  -0.0013070
    2  -0.0001522   0.0046893  -0.0022336   0.0019897  -0.0015511   0.0001599
    3   0.0005943   0.0020065   0.0003234   0.0000471  -0.0005084  -0.0012813
            7           8           9          10          11          12
    1  -0.0002206   0.0001350   0.0000843  -0.0000758   0.0000767  -0.0000720
    2  -0.0011181  -0.0018967  -0.0000049  -0.0000446  -0.0000119   0.0001742
    3   0.0022736  -0.0028249  -0.0000049  -0.0000000   0.0000082  -0.0006337
 Max gradient component =       5.927E-03
 RMS gradient           =       1.704E-03
 Gradient time:  CPU 7.52 s  wall 0.67 s
 Geometry Optimization Parameters
   NAtoms,    NIC,     NZ,  NCons,   NDum,   NFix, NCnnct, MaxDiis
       12     331       0       1       0       0       0       0

 Cartesian Hessian Update
 Hessian Updated using BFGS Update


** CONSTRAINED OPTIMIZATION IN DELOCALIZED INTERNAL COORDINATES **
   Searching for a Minimum

   Optimization Cycle:   3

                       Coordinates (Angstroms)
     ATOM                X               Y               Z
      1  S         4.5375551245    1.0708304063   -0.1589128433
      2  C        -1.0538432619    0.2436767989   -0.0151903851
      3  C        -0.1415002286   -0.9537231664   -0.0261439640
      4  C        -2.5550121950   -0.1003446082    0.1299992740
      5  H        -0.7835165475    0.9051572321    0.8149269022
      6  H        -0.9289130223    0.8196762729   -0.9429601697
      7  H         0.1212106323   -1.4468012125    0.9091112918
      8  H         0.0461794744   -1.5012740927   -0.9505519655
      9  H        -2.7472758647   -0.6404523045    1.0627268902
     10  H        -3.1609208867    0.8124309646    0.1350234517
     11  H        -2.8976051032   -0.7308062316   -0.6968142224
     12  H         4.2762458787    1.4254309410   -1.4382072598
   Point Group: c1    Number of degrees of freedom:    30


   Energy is   -517.224020656

              Constraints and their Current Values
                                        Value     Constraint
   Distance(Angs):        1   3             5.100000     5.100000
 Hessian Updated using BFGS Update

 29 Hessian modes will be used to form the next step
  Hessian Eigenvalues:
     0.017914    0.040718    0.045328    0.045667    0.047328    0.050091
     0.052268    0.053337    0.055441    0.058065    0.060367    0.060895
     0.062701    0.081005    0.114097    0.129484    0.157293    0.159074
     0.159664    0.173416    0.194105    0.219192    0.221489    0.229479
     0.273732    0.287427    0.341712    0.342791    0.342865

 Minimum Search - Taking Simple RFO Step
 Searching for Lamda that Minimizes Along All modes
 Value Taken    Lamda =  -0.00034913
 Step Taken.  Stepsize is  0.083490

                             Maximum     Tolerance    Cnvgd?
         Gradient           0.005189      0.000300      NO
         Displacement       0.047989      0.001200      NO
         Energy change     -0.000360      0.000001      NO


 New Cartesian Coordinates Obtained by Inverse Iteration

 Displacement from previous Coordinates is:  0.062094
 ----------------------------------------------------------------
             Standard Nuclear Orientation (Angstroms)
    I     Atom           X                Y                Z
 ----------------------------------------------------------------
    1      S       4.5308451016     1.0685147360    -0.1587690069
    2      C      -1.0487919239     0.2429761374    -0.0161805774
    3      C      -0.1518917699    -0.9475002983    -0.0258686085
    4      C      -2.5500453686    -0.1047198617     0.1293048053
    5      H      -0.7732879446     0.9076384422     0.8138623534
    6      H      -0.9193388240     0.8191248036    -0.9414097494
    7      H       0.1115560785    -1.4393669397     0.9053793993
    8      H       0.0347188552    -1.4923423967    -0.9456466327
    9      H      -2.7413264989    -0.6450574217     1.0620990548
   10      H      -3.1581775956     0.8067020425     0.1345926786
   11      H      -2.8914465377    -0.7355919891    -0.6977186625
   12      H       4.2697904280     1.4234237455    -1.4366380542
 ----------------------------------------------------------------
 Nuclear Repulsion Energy =   119.7530983197 hartrees
 There are       22 alpha and       20 beta electrons

                       Distance Matrix (Angstroms)
             S (  1)   C (  2)   C (  3)   C (  4)   H (  5)   H (  6)
   C (  2)  5.642180
   C (  3)  5.100000  1.490556
   C (  4)  7.183208  1.547844  2.546664
   H (  5)  5.394972  1.098476  2.129042  2.156468
   H (  6)  5.511735  1.097613  2.132640  2.158500  1.763561
   H (  7)  5.191531  2.241865  1.085615  3.076962  2.509932  3.094214
   H (  8)  5.233767  2.247050  1.085204  3.124424  3.083611  2.500625
   H (  9)  7.570425  2.194530  2.824946  1.094833  2.519060  3.078557
   H ( 10)  7.699070  2.188613  3.484355  1.095693  2.481793  2.484016
   H ( 11)  7.657394  2.194873  2.828683  1.094770  3.077609  2.523042
   H ( 12)  1.351688  5.630140  5.211797  7.162232  5.546479  5.247618
             H (  7)   H (  8)   H (  9)   H ( 10)   H ( 11)
   H (  8)  1.853377
   H (  9)  2.965540  3.529216
   H ( 10)  4.041051  4.080087  1.772467
   H ( 11)  3.476097  3.032587  1.768528  1.772726
   H ( 12)  5.565207  5.165133  7.725158  7.617337  7.516027
 
 Applying Cartesian multipole field
    Component          Value
    ---------          -----
     (2,0,0)        1.00000E-11
     (0,2,0)        2.00000E-11
     (0,0,2)       -3.00000E-10
 Nucleus-field energy     =     0.0000000094 hartrees
 Requested basis set is 6-31G(d,p)
 There are 41 shells and 104 basis functions
 A cutoff of  1.0D-14 yielded    732 shell pairs
 There are      4606 function pairs
 Smallest overlap matrix eigenvalue = 6.40E-03
 Guess from superposition of atomic densities
 Warning:  Energy on first SCF cycle will be non-variational
 SAD guess density has 42.000000 electrons

 -----------------------------------------------------------------------
  General SCF calculation program by
  Eric Jon Sundstrom, Paul Horn, Yuezhi Mao, Dmitri Zuev, Alec White,
  David Stuck, Shaama M.S., Shane Yost, Joonho Lee, David Small,
  Daniel Levine, Susi Lehtola, Hugh Burton, Evgeny Epifanovsky
 -----------------------------------------------------------------------
 Exchange:     0.2000 Hartree-Fock + 0.0800 Slater + 0.7200 B88
 Correlation:  0.1900 VWN1RPA + 0.8100 LYP
 Using SG-1 standard quadrature grid
 using 12 threads for integral computing
 -------------------------------------------------------
 OpenMP Integral computing Module                
 Release: version 1.0, May 2013, Q-Chem Inc. Pittsburgh 
 -------------------------------------------------------
 -------------------------------------------------------
 OpenMP BLAS3 based DFT computing Module                
 Release: version 1.0, May 2013, Q-Chem Inc. Pittsburgh 
 -------------------------------------------------------
 A unrestricted SCF calculation will be
 performed using DIIS
 SCF converges when DIIS error is below 1.0e-06
 Alpha HF Exchange    Energy =  -4.31732317802085
 Beta HF Exchange     Energy =  -4.31732317802085
 DFT Correlation      Energy =  -1.85329702061768
 DFT Exchange         Energy = -33.94210935501548
 One-Electron (alpha) Energy = -471.07041176345984
 One-Electron (beta)  Energy = -471.07041176345984
 Total Coulomb        Energy = 349.39962669791828
 ---------------------------------------
  Cycle       Energy         DIIS error
 ---------------------------------------
    1    -517.4181512316      2.80e-02  
 Alpha HF Exchange    Energy =  -4.45371970495245
 Beta HF Exchange     Energy =  -4.27116274167786
 DFT Correlation      Energy =  -1.87344567791629
 DFT Exchange         Energy = -34.59078104839867
 One-Electron (alpha) Energy = -485.16368883353778
 One-Electron (beta)  Energy = -463.79212052065532
 Total Coulomb        Energy = 357.25017394955535
    2    -517.1416462485      3.63e-03  
 Alpha HF Exchange    Energy =  -4.39695223350454
 Beta HF Exchange     Energy =  -4.21964151569017
 DFT Correlation      Energy =  -1.84537210257394
 DFT Exchange         Energy = -34.13481768807222
 One-Electron (alpha) Energy = -481.82185388457435
 One-Electron (beta)  Energy = -460.48299540130500
 Total Coulomb        Energy = 350.01167826816231
    3    -517.1368562284      3.85e-03  
 Alpha HF Exchange    Energy =  -4.42598689738261
 Beta HF Exchange     Energy =  -4.24469420721926
 DFT Correlation      Energy =  -1.85867904658434
 DFT Exchange         Energy = -34.35933516720358
 One-Electron (alpha) Energy = -483.66201604789677
 One-Electron (beta)  Energy = -462.11429606083180
 Total Coulomb        Energy = 353.68818549787738
    4    -517.2237236001      2.72e-04  
 Alpha HF Exchange    Energy =  -4.42732242302593
 Beta HF Exchange     Energy =  -4.24467764149689
 DFT Correlation      Energy =  -1.85860121676526
 DFT Exchange         Energy = -34.36397036067279
 One-Electron (alpha) Energy = -483.70318146280601
 One-Electron (beta)  Energy = -462.08775699632071
 Total Coulomb        Energy = 353.70834507689267
    5    -517.2240666951      1.44e-04  
 Alpha HF Exchange    Energy =  -4.42701570287351
 Beta HF Exchange     Energy =  -4.24455293030368
 DFT Correlation      Energy =  -1.85838125517755
 DFT Exchange         Energy = -34.36202701546836
 One-Electron (alpha) Energy = -483.69437351451199
 One-Electron (beta)  Energy = -462.06593646012300
 Total Coulomb        Energy = 353.67500220357999
    6    -517.2241863458      3.71e-05  
 Alpha HF Exchange    Energy =  -4.42713756753224
 Beta HF Exchange     Energy =  -4.24447341352182
 DFT Correlation      Energy =  -1.85835377394908
 DFT Exchange         Energy = -34.36213437974419
 One-Electron (alpha) Energy = -483.70088921015611
 One-Electron (beta)  Energy = -462.06013421753778
 Total Coulomb        Energy = 353.67582859540607
    7    -517.2241956379      9.00e-06  
 Alpha HF Exchange    Energy =  -4.42719657664347
 Beta HF Exchange     Energy =  -4.24447601769013
 DFT Correlation      Energy =  -1.85834449596811
 DFT Exchange         Energy = -34.36234626368993
 One-Electron (alpha) Energy = -483.70502233408706
 One-Electron (beta)  Energy = -462.05903850620854
 Total Coulomb        Energy = 353.67912933083164
    8    -517.2241965343      3.98e-06  
 Alpha HF Exchange    Energy =  -4.42719362777276
 Beta HF Exchange     Energy =  -4.24445938010048
 DFT Correlation      Energy =  -1.85833711704211
 DFT Exchange         Energy = -34.36226881563708
 One-Electron (alpha) Energy = -483.70456686726925
 One-Electron (beta)  Energy = -462.05754698542762
 Total Coulomb        Energy = 353.67707772013978
    9    -517.2241967440      1.62e-06  
 Alpha HF Exchange    Energy =  -4.42719537669456
 Beta HF Exchange     Energy =  -4.24445851438393
 DFT Correlation      Energy =  -1.85833664034969
 DFT Exchange         Energy = -34.36227236821603
 One-Electron (alpha) Energy = -483.70466527271515
 One-Electron (beta)  Energy = -462.05740724003658
 Total Coulomb        Energy = 353.67704023736508
   10    -517.2241968459      1.01e-06  
 Alpha HF Exchange    Energy =  -4.42719745551118
 Beta HF Exchange     Energy =  -4.24445929956399
 DFT Correlation      Energy =  -1.85833720420450
 DFT Exchange         Energy = -34.36228415953180
 One-Electron (alpha) Energy = -483.70484188328123
 One-Electron (beta)  Energy = -462.05747995896172
 Total Coulomb        Energy = 353.67730469015254
   11    -517.2241969418      8.96e-07  Convergence criterion met
 ---------------------------------------
 SCF time:   CPU 23.89s  wall 2.00s 
<S^2> =          2.006104245
 Alpha HF Exchange    Energy =  -4.42719745551118
 Beta HF Exchange     Energy =  -4.24445929956399
 DFT Correlation      Energy =  -1.85833720420450
 DFT Exchange         Energy = -34.36228415953180
 One-Electron (alpha) Energy = -483.70484188328123
 One-Electron (beta)  Energy = -462.05747995896172
 Total Coulomb        Energy = 353.67730469015254
 Nuclear repulsion Energy = 119.75309832911894
 SCF   energy in the final basis set =     -517.2241969418
 Total energy in the final basis set =     -517.2241969418
 
 --------------------------------------------------------------
 
                    Orbital Energies (a.u.)
 --------------------------------------------------------------
 
 Alpha MOs
 -- Occupied --
-88.910 -10.184 -10.183 -10.175  -7.971  -5.942  -5.932  -5.923
 -0.777  -0.737  -0.671  -0.577  -0.460  -0.424  -0.412  -0.390
 -0.377  -0.346  -0.330  -0.319  -0.271  -0.197
 -- Virtual --
  0.033   0.105   0.142   0.145   0.159   0.179   0.181   0.221
  0.232   0.273   0.278   0.327   0.333   0.360   0.513   0.534
  0.537   0.549   0.594   0.597   0.659   0.689   0.694   0.698
  0.728   0.738   0.744   0.783   0.815   0.859   0.879   0.883
  0.912   0.939   0.960   1.000   1.086   1.215   1.310   1.421
  1.481   1.541   1.600   1.683   1.823   1.873   1.959   1.970
  2.011   2.053   2.058   2.067   2.071   2.122   2.125   2.227
  2.257   2.293   2.374   2.432   2.458   2.518   2.578   2.679
  2.699   2.716   2.743   2.809   2.853   2.884   2.923   3.185
  3.259   3.359   3.378   3.466   3.485   3.554   3.920   4.239
  4.432   4.607
 
 Beta MOs
 -- Occupied --
-88.904 -10.184 -10.174 -10.169  -7.966  -5.929  -5.925  -5.920
 -0.767  -0.697  -0.652  -0.563  -0.455  -0.419  -0.398  -0.385
 -0.365  -0.341  -0.328  -0.257
 -- Virtual --
 -0.177  -0.038   0.044   0.109   0.147   0.154   0.161   0.182
  0.183   0.226   0.237   0.286   0.287   0.334   0.366   0.372
  0.518   0.538   0.550   0.565   0.600   0.634   0.670   0.708
  0.715   0.736   0.744   0.787   0.793   0.798   0.822   0.862
  0.881   0.886   0.919   0.944   0.972   1.003   1.096   1.225
  1.319   1.448   1.485   1.558   1.621   1.684   1.832   1.878
  1.963   1.998   2.047   2.054   2.061   2.064   2.072   2.124
  2.132   2.229   2.268   2.294   2.380   2.438   2.469   2.527
  2.601   2.685   2.701   2.718   2.747   2.812   2.856   2.886
  2.926   3.186   3.263   3.363   3.380   3.468   3.491   3.557
  3.938   4.258   4.448   4.609
 --------------------------------------------------------------
 
          Ground-State Mulliken Net Atomic Charges

     Atom                 Charge (a.u.)    Spin (a.u.)
  --------------------------------------------------------
      1 S                    -0.073171       1.027693
      2 C                    -0.189331      -0.073339
      3 C                    -0.214984       1.077066
      4 C                    -0.307714       0.050989
      5 H                     0.102924       0.015124
      6 H                     0.099209       0.010947
      7 H                     0.100801      -0.046710
      8 H                     0.098949      -0.046768
      9 H                     0.105118      -0.000765
     10 H                     0.100369       0.013564
     11 H                     0.104703      -0.000414
     12 H                     0.073126      -0.027388
  --------------------------------------------------------
  Sum of atomic charges =    -0.000000
  Sum of spin   charges =     2.000000

 -----------------------------------------------------------------
                    Cartesian Multipole Moments
 -----------------------------------------------------------------
    Charge (ESU x 10^10)
                -0.0000
    Dipole Moment (Debye)
         X      -0.4552      Y       0.3106      Z      -0.9571
       Tot       1.1044
    Quadrupole Moments (Debye-Ang)
        XX     -37.7352     XY      -0.8115     YY     -33.9368
        XZ      -4.2208     YZ      -1.3280     ZZ     -31.5794
    Octopole Moments (Debye-Ang^2)
       XXX    -126.7750    XXY     -18.7272    XYY     -35.8479
       YYY     -26.8703    XXZ     -16.5350    XYZ      -5.7939
       YYZ       0.3168    XZZ     -25.8630    YZZ      -7.7032
       ZZZ       4.8286
    Hexadecapole Moments (Debye-Ang^3)
      XXXX   -2264.2184   XXXY    -295.0778   XXYY    -402.3232
      XYYY    -209.8683   YYYY    -201.9929   XXXZ     -33.2807
      XXYZ     -19.8986   XYYZ       8.0918   YYYZ       8.3034
      XXZZ    -317.5840   XYZZ     -56.0962   YYZZ     -39.5295
      XZZZ      37.9290   YZZZ       7.3192   ZZZZ     -65.4909
 -----------------------------------------------------------------
 Calculating analytic gradient of the SCF energy
 Gradient of SCF Energy
            1           2           3           4           5           6
    1  -0.0001382   0.0007066   0.0017620   0.0000790  -0.0002786  -0.0005408
    2   0.0000233  -0.0010536   0.0010592   0.0005307  -0.0004541  -0.0003782
    3  -0.0000413  -0.0003269  -0.0003407   0.0000191   0.0004934  -0.0001783
            7           8           9          10          11          12
    1  -0.0008575  -0.0006309  -0.0001010   0.0000480  -0.0001047   0.0000562
    2   0.0001233   0.0001432   0.0000108   0.0000113  -0.0000134  -0.0000025
    3   0.0000309   0.0003009   0.0000322   0.0000047   0.0000035   0.0000025
 Max gradient component =       1.762E-03
 RMS gradient           =       4.902E-04
 Gradient time:  CPU 7.34 s  wall 0.64 s
 Geometry Optimization Parameters
   NAtoms,    NIC,     NZ,  NCons,   NDum,   NFix, NCnnct, MaxDiis
       12     331       0       1       0       0       0       0

 Cartesian Hessian Update
 Hessian Updated using BFGS Update


** CONSTRAINED OPTIMIZATION IN DELOCALIZED INTERNAL COORDINATES **
   Searching for a Minimum

   Optimization Cycle:   4

                       Coordinates (Angstroms)
     ATOM                X               Y               Z
      1  S         4.5308451016    1.0685147360   -0.1587690069
      2  C        -1.0487919239    0.2429761374   -0.0161805774
      3  C        -0.1518917699   -0.9475002983   -0.0258686085
      4  C        -2.5500453686   -0.1047198617    0.1293048053
      5  H        -0.7732879446    0.9076384422    0.8138623534
      6  H        -0.9193388240    0.8191248036   -0.9414097494
      7  H         0.1115560785   -1.4393669397    0.9053793993
      8  H         0.0347188552   -1.4923423967   -0.9456466327
      9  H        -2.7413264989   -0.6450574217    1.0620990548
[...]
             Standard Nuclear Orientation (Angstroms)
    I     Atom           X                Y                Z
 ----------------------------------------------------------------
    1      S       4.5177928163     1.0620504442    -0.1571857555
    2      C      -1.0505616561     0.2416060731    -0.0127305078
    3      C      -0.1632600977    -0.9578345134    -0.0237237103
    4      C      -2.5532745768    -0.1014766286     0.1280961437
    5      H      -0.7692239075     0.9074625066     0.8142588281
    6      H      -0.9123245724     0.8161521312    -0.9381394789
    7      H       0.1450952649    -1.4313404824     0.9031042666
    8      H       0.0469999259    -1.4871111250    -0.9478845594
    9      H      -2.7467156053    -0.6421656966     1.0599904873
   10      H      -3.1606348465     0.8105005729     0.1316322169
   11      H      -2.8910462412    -0.7314691499    -0.7008265011
   12      H       4.2497574964     1.4174268679    -1.4335844297
 ----------------------------------------------------------------
 Nuclear Repulsion Energy =   119.7973583213 hartrees
 There are       22 alpha and       20 beta electrons

                       Distance Matrix (Angstroms)
             S (  1)   C (  2)   C (  3)   C (  4)   H (  5)   H (  6)
   C (  2)  5.630326
   C (  3)  5.100000  1.492006
   C (  4)  7.171832  1.547800  2.543338
   H (  5)  5.377746  1.098375  2.132777  2.161392
   H (  6)  5.491496  1.097996  2.131732  2.161393  1.760601
   H (  7)  5.144093  2.251022  1.085496  3.106505  2.512742  3.091850
   H (  8)  5.206863  2.251137  1.085549  3.136741  3.083075  2.495079
   H (  9)  7.560354  2.192880  2.819278  1.094619  2.524323  3.079644
   H ( 10)  7.687974  2.190180  3.483590  1.095720  2.488820  2.489848
   H ( 11)  7.642196  2.192655  2.819668  1.094574  3.079563  2.523250
   H ( 12)  1.351787  5.612020  5.206179  7.143330  5.522955  5.220545
             H (  7)   H (  8)   H (  9)   H ( 10)   H ( 11)
   H (  8)  1.854425
   H (  9)  3.001663  3.542646
   H ( 10)  4.068030  4.090635  1.772969
   H ( 11)  3.504364  3.043706  1.768978  1.772946
   H ( 12)  5.515781  5.131804  7.707819  7.598169  7.493048
 
 Applying Cartesian multipole field
    Component          Value
    ---------          -----
     (2,0,0)        1.00000E-11
     (0,2,0)        2.00000E-11
     (0,0,2)       -3.00000E-10
 Nucleus-field energy     =     0.0000000093 hartrees
 Requested basis set is 6-31G(d,p)
 There are 41 shells and 104 basis functions
 A cutoff of  1.0D-14 yielded    733 shell pairs
 There are      4607 function pairs
 Smallest overlap matrix eigenvalue = 6.42E-03
 Guess from superposition of atomic densities
 Warning:  Energy on first SCF cycle will be non-variational
 SAD guess density has 42.000000 electrons

 -----------------------------------------------------------------------
  General SCF calculation program by
  Eric Jon Sundstrom, Paul Horn, Yuezhi Mao, Dmitri Zuev, Alec White,
  David Stuck, Shaama M.S., Shane Yost, Joonho Lee, David Small,
  Daniel Levine, Susi Lehtola, Hugh Burton, Evgeny Epifanovsky
 -----------------------------------------------------------------------
 Exchange:     0.2000 Hartree-Fock + 0.0800 Slater + 0.7200 B88
 Correlation:  0.1900 VWN1RPA + 0.8100 LYP
 Using SG-1 standard quadrature grid
 using 12 threads for integral computing
 -------------------------------------------------------
 OpenMP Integral computing Module                
 Release: version 1.0, May 2013, Q-Chem Inc. Pittsburgh 
 -------------------------------------------------------
 -------------------------------------------------------
 OpenMP BLAS3 based DFT computing Module                
 Release: version 1.0, May 2013, Q-Chem Inc. Pittsburgh 
 -------------------------------------------------------
 A unrestricted SCF calculation will be
 performed using DIIS
 SCF converges when DIIS error is below 1.0e-06
 Alpha HF Exchange    Energy =  -4.31708343932972
 Beta HF Exchange     Energy =  -4.31708343932972
 DFT Correlation      Energy =  -1.85322949044790
 DFT Exchange         Energy = -33.94168466733010
 One-Electron (alpha) Energy = -471.11546523898147
 One-Electron (beta)  Energy = -471.11546523898147
 Total Coulomb        Energy = 349.44653384096682
 ---------------------------------------
  Cycle       Energy         DIIS error
 ---------------------------------------
    1    -517.4161193428      2.80e-02  
 Alpha HF Exchange    Energy =  -4.45357409735192
 Beta HF Exchange     Energy =  -4.27114389861459
 DFT Correlation      Energy =  -1.87341347959023
 DFT Exchange         Energy = -34.59011789739286
 One-Electron (alpha) Energy = -485.20970791894706
 One-Electron (beta)  Energy = -463.83265401635805
 Total Coulomb        Energy = 357.29148634942459
    2    -517.1417666282      3.62e-03  
 Alpha HF Exchange    Energy =  -4.39679362313918
 Beta HF Exchange     Energy =  -4.21963675486960
 DFT Correlation      Energy =  -1.84534633097537
 DFT Exchange         Energy = -34.13421528635612
 One-Electron (alpha) Energy = -481.87015029339972
 One-Electron (beta)  Energy = -460.52603962175840
 Total Coulomb        Energy = 350.05793992966130
    3    -517.1368836502      3.85e-03  
 Alpha HF Exchange    Energy =  -4.42583018671806
 Beta HF Exchange     Energy =  -4.24465863863931
 DFT Correlation      Energy =  -1.85866311910601
 DFT Exchange         Energy = -34.35862361603669
 One-Electron (alpha) Energy = -483.70960192997978
 One-Electron (beta)  Energy = -462.15590519456026
 Total Coulomb        Energy = 353.73212719457172
    4    -517.2237971599      2.71e-04  
 Alpha HF Exchange    Energy =  -4.42716368240673
 Beta HF Exchange     Energy =  -4.24464784346748
 DFT Correlation      Energy =  -1.85858324755784
 DFT Exchange         Energy = -34.36327203155442
 One-Electron (alpha) Energy = -483.75080523270225
 One-Electron (beta)  Energy = -462.12925830157945
 Total Coulomb        Energy = 353.75223364539829
    5    -517.2241383633      1.43e-04  
 Alpha HF Exchange    Energy =  -4.42685853558513
 Beta HF Exchange     Energy =  -4.24451924834816
 DFT Correlation      Energy =  -1.85836581571708
 DFT Exchange         Energy = -34.36132668828487
 One-Electron (alpha) Energy = -483.74213207033324
 One-Electron (beta)  Energy = -462.10743958009652
 Total Coulomb        Energy = 353.71902810959472
    6    -517.2242554982      3.73e-05  
 Alpha HF Exchange    Energy =  -4.42698249379697
 Beta HF Exchange     Energy =  -4.24443943602318
 DFT Correlation      Energy =  -1.85833898120013
 DFT Exchange         Energy = -34.36144067793288
 One-Electron (alpha) Energy = -483.74871903024331
 One-Electron (beta)  Energy = -462.10163885188149
 Total Coulomb        Energy = 353.71993627397831
    7    -517.2242648665      9.01e-06  
 Alpha HF Exchange    Energy =  -4.42704201548607
 Beta HF Exchange     Energy =  -4.24444182915626
 DFT Correlation      Energy =  -1.85832964083713
 DFT Exchange         Energy = -34.36165397308451
 One-Electron (alpha) Energy = -483.75290999287841
 One-Electron (beta)  Energy = -462.10053242894469
 Total Coulomb        Energy = 353.72328576497358
    8    -517.2242657848      3.89e-06  
 Alpha HF Exchange    Energy =  -4.42703857186867
 Beta HF Exchange     Energy =  -4.24442474076533
 DFT Correlation      Energy =  -1.85832208590212
 DFT Exchange         Energy = -34.36157279334451
 One-Electron (alpha) Energy = -483.75239897137436
 One-Electron (beta)  Energy = -462.09899638826579
 Total Coulomb        Energy = 353.72112922126342
    9    -517.2242659997      1.60e-06  
 Alpha HF Exchange    Energy =  -4.42704075057182
 Beta HF Exchange     Energy =  -4.24442427943842
 DFT Correlation      Energy =  -1.85832179381452
 DFT Exchange         Energy = -34.36157959783428
 One-Electron (alpha) Energy = -483.75253391853335
 One-Electron (beta)  Energy = -462.09889404550836
 Total Coulomb        Energy = 353.72116994623150
   10    -517.2242661089      1.04e-06  
 Alpha HF Exchange    Energy =  -4.42704266248954
 Beta HF Exchange     Energy =  -4.24442498978639
 DFT Correlation      Energy =  -1.85832231562624
 DFT Exchange         Energy = -34.36159044413748
 One-Electron (alpha) Energy = -483.75269624402046
 One-Electron (beta)  Energy = -462.09895848882576
 Total Coulomb        Energy = 353.72141060344933
   11    -517.2242662108      9.32e-07  Convergence criterion met
 ---------------------------------------
 SCF time:   CPU 24.12s  wall 2.00s 
<S^2> =          2.006182837
 Alpha HF Exchange    Energy =  -4.42704266248954
 Beta HF Exchange     Energy =  -4.24442498978639
 DFT Correlation      Energy =  -1.85832231562624
 DFT Exchange         Energy = -34.36159044413748
 One-Electron (alpha) Energy = -483.75269624402046
 One-Electron (beta)  Energy = -462.09895848882576
 Total Coulomb        Energy = 353.72141060344933
 Nuclear repulsion Energy = 119.79735833059785
 SCF   energy in the final basis set =     -517.2242662108
 Total energy in the final basis set =     -517.2242662108
 
 --------------------------------------------------------------
 
                    Orbital Energies (a.u.)
 --------------------------------------------------------------
 
 Alpha MOs
 -- Occupied --
-88.910 -10.184 -10.183 -10.175  -7.971  -5.943  -5.932  -5.923
 -0.777  -0.737  -0.670  -0.577  -0.459  -0.425  -0.412  -0.390
 -0.376  -0.347  -0.330  -0.320  -0.272  -0.196
 -- Virtual --
  0.033   0.106   0.142   0.145   0.159   0.179   0.180   0.224
  0.233   0.273   0.277   0.327   0.333   0.359   0.514   0.535
  0.536   0.549   0.596   0.598   0.658   0.689   0.694   0.697
  0.728   0.738   0.744   0.790   0.813   0.860   0.878   0.883
  0.911   0.938   0.961   1.001   1.086   1.213   1.309   1.436
  1.479   1.523   1.603   1.684   1.823   1.874   1.956   1.982
  1.998   2.054   2.058   2.066   2.071   2.122   2.126   2.226
  2.263   2.292   2.371   2.443   2.450   2.525   2.576   2.676
  2.699   2.711   2.742   2.802   2.863   2.884   2.923   3.186
  3.259   3.360   3.381   3.466   3.480   3.558   3.919   4.241
  4.431   4.607
 
 Beta MOs
 -- Occupied --
-88.904 -10.185 -10.174 -10.169  -7.966  -5.929  -5.925  -5.920
 -0.767  -0.697  -0.652  -0.563  -0.455  -0.419  -0.398  -0.385
 -0.364  -0.341  -0.328  -0.257
 -- Virtual --
 -0.177  -0.037   0.043   0.109   0.146   0.154   0.161   0.181
  0.183   0.228   0.237   0.285   0.286   0.334   0.366   0.372
  0.518   0.537   0.550   0.568   0.600   0.633   0.670   0.707
  0.714   0.736   0.743   0.792   0.794   0.798   0.820   0.863
  0.880   0.886   0.918   0.944   0.973   1.004   1.096   1.223
  1.319   1.467   1.484   1.537   1.624   1.684   1.832   1.878
  1.959   2.003   2.041   2.054   2.061   2.064   2.072   2.125
  2.130   2.228   2.275   2.293   2.377   2.448   2.461   2.535
  2.601   2.682   2.701   2.712   2.746   2.805   2.865   2.886
  2.927   3.187   3.262   3.365   3.382   3.468   3.485   3.561
  3.938   4.260   4.448   4.610
 --------------------------------------------------------------
 
          Ground-State Mulliken Net Atomic Charges

     Atom                 Charge (a.u.)    Spin (a.u.)
  --------------------------------------------------------
      1 S                    -0.073238       1.027688
      2 C                    -0.188865      -0.074196
      3 C                    -0.217524       1.080494
      4 C                    -0.306991       0.049879
      5 H                     0.102660       0.014906
      6 H                     0.099172       0.011726
      7 H                     0.101915      -0.047755
      8 H                     0.099493      -0.047914
      9 H                     0.105476      -0.000628
     10 H                     0.099763       0.013567
     11 H                     0.104946      -0.000377
     12 H                     0.073192      -0.027391
  --------------------------------------------------------
  Sum of atomic charges =    -0.000000
  Sum of spin   charges =     2.000000

 -----------------------------------------------------------------
                    Cartesian Multipole Moments
 -----------------------------------------------------------------
    Charge (ESU x 10^10)
                 0.0000
    Dipole Moment (Debye)
         X      -0.4061      Y       0.3311      Z      -0.9589
       Tot       1.0927
    Quadrupole Moments (Debye-Ang)
        XX     -37.7126     XY      -0.8831     YY     -34.0571
        XZ      -4.1918     YZ      -1.3220     ZZ     -31.5830
    Octopole Moments (Debye-Ang^2)
       XXX    -125.3634    XXY     -18.6936    XYY     -35.7755
       YYY     -26.5549    XXZ     -16.4604    XYZ      -5.7924
       YYZ       0.2882    XZZ     -25.6397    YZZ      -7.6091
       ZZZ       4.7215
    Hexadecapole Moments (Debye-Ang^3)
      XXXX   -2248.3658   XXXY    -292.6910   XXYY    -401.9098
      XYYY    -209.0276   YYYY    -202.0763   XXXZ     -33.2500
      XXYZ     -19.8430   XYYZ       8.0306   YYYZ       8.1941
      XXZZ    -316.3884   XYZZ     -55.6280   YYZZ     -39.4792
      XZZZ      37.5354   YZZZ       7.1999   ZZZZ     -65.3814
 -----------------------------------------------------------------
 Calculating analytic gradient of the SCF energy
 Gradient of SCF Energy
            1           2           3           4           5           6
    1  -0.0001309   0.0001629   0.0000603  -0.0002545   0.0000357  -0.0000455
    2   0.0000170   0.0000475   0.0001065  -0.0001156  -0.0000052  -0.0001571
    3   0.0000079   0.0001030   0.0001271  -0.0000004   0.0000628  -0.0001297
            7           8           9          10          11          12
    1  -0.0000326   0.0000224   0.0000505   0.0000357   0.0000457   0.0000503
    2  -0.0000816   0.0000678   0.0000593  -0.0000063   0.0000589   0.0000087
    3  -0.0000080  -0.0000845   0.0000158  -0.0000150  -0.0000306  -0.0000485
 Max gradient component =       2.545E-04
 RMS gradient           =       8.405E-05
 Gradient time:  CPU 7.40 s  wall 0.65 s
 Geometry Optimization Parameters
   NAtoms,    NIC,     NZ,  NCons,   NDum,   NFix, NCnnct, MaxDiis
       12     331       0       1       0       0       0       0

 Cartesian Hessian Update
 Hessian Updated using BFGS Update


** CONSTRAINED OPTIMIZATION IN DELOCALIZED INTERNAL COORDINATES **
   Searching for a Minimum

   Optimization Cycle:  13

                       Coordinates (Angstroms)
     ATOM                X               Y               Z
      1  S         4.5177928163    1.0620504442   -0.1571857555
      2  C        -1.0505616561    0.2416060731   -0.0127305078
      3  C        -0.1632600977   -0.9578345134   -0.0237237103
      4  C        -2.5532745768   -0.1014766286    0.1280961437
      5  H        -0.7692239075    0.9074625066    0.8142588281
      6  H        -0.9123245724    0.8161521312   -0.9381394789
      7  H         0.1450952649   -1.4313404824    0.9031042666
      8  H         0.0469999259   -1.4871111250   -0.9478845594
      9  H        -2.7467156053   -0.6421656966    1.0599904873
     10  H        -3.1606348465    0.8105005729    0.1316322169
     11  H        -2.8910462412   -0.7314691499   -0.7008265011
     12  H         4.2497574964    1.4174268679   -1.4335844297
   Point Group: c1    Number of degrees of freedom:    30


   Energy is   -517.224266211

              Constraints and their Current Values
                                        Value     Constraint
   Distance(Angs):        1   3             5.100000     5.100000
 Hessian Updated using BFGS Update

 29 Hessian modes will be used to form the next step
  Hessian Eigenvalues:
     0.001410    0.006879    0.011796    0.041178    0.045260    0.045720
     0.048307    0.050423    0.053255    0.054788    0.057939    0.060574
     0.063824    0.077738    0.107488    0.113856    0.157470    0.158698
     0.160944    0.170344    0.194921    0.219192    0.221385    0.229507
     0.272679    0.300870    0.341798    0.342799    0.343682

 Minimum Search - Taking Simple RFO Step
 Searching for Lamda that Minimizes Along All modes
 Value Taken    Lamda =   0.00000000
 Step Taken.  Stepsize is  0.010254

                             Maximum     Tolerance    Cnvgd?
         Gradient           0.000136      0.000300     YES
         Displacement       0.004531      0.001200      NO
         Energy change     -0.000001      0.000001     YES


                       Distance Matrix (Angstroms)
             S (  1)   C (  2)   C (  3)   C (  4)   H (  5)   H (  6)
   C (  2)  5.630326
   C (  3)  5.100000  1.492006
   C (  4)  7.171832  1.547800  2.543338
   H (  5)  5.377746  1.098375  2.132777  2.161392
   H (  6)  5.491496  1.097996  2.131732  2.161393  1.760601
   H (  7)  5.144093  2.251022  1.085496  3.106505  2.512742  3.091850
   H (  8)  5.206863  2.251137  1.085549  3.136741  3.083075  2.495079
   H (  9)  7.560354  2.192880  2.819278  1.094619  2.524323  3.079644
   H ( 10)  7.687974  2.190180  3.483590  1.095720  2.488820  2.489848
   H ( 11)  7.642196  2.192655  2.819668  1.094574  3.079563  2.523250
   H ( 12)  1.351787  5.612020  5.206179  7.143330  5.522955  5.220545
             H (  7)   H (  8)   H (  9)   H ( 10)   H ( 11)
   H (  8)  1.854425
   H (  9)  3.001663  3.542646
   H ( 10)  4.068030  4.090635  1.772969
   H ( 11)  3.504364  3.043706  1.768978  1.772946
   H ( 12)  5.515781  5.131804  7.707819  7.598169  7.493048
 
 Final energy is   -517.224266210839     


 ******************************
 **  OPTIMIZATION CONVERGED  **
 ******************************

                       Coordinates (Angstroms)
     ATOM                X               Y               Z
      1  S         4.5177928163    1.0620504442   -0.1571857555
      2  C        -1.0505616561    0.2416060731   -0.0127305078
      3  C        -0.1632600977   -0.9578345134   -0.0237237103
      4  C        -2.5532745768   -0.1014766286    0.1280961437
      5  H        -0.7692239075    0.9074625066    0.8142588281
      6  H        -0.9123245724    0.8161521312   -0.9381394789
      7  H         0.1450952649   -1.4313404824    0.9031042666
      8  H         0.0469999259   -1.4871111250   -0.9478845594
      9  H        -2.7467156053   -0.6421656966    1.0599904873
     10  H        -3.1606348465    0.8105005729    0.1316322169
     11  H        -2.8910462412   -0.7314691499   -0.7008265011
     12  H         4.2497574964    1.4174268679   -1.4335844297

Z-matrix Print:
$molecule
0 3
C 
H  1 1.097996
H  1 1.098375 2 106.565481
C  1 1.492006 2 109.851182 3 -119.022519 0
H  4 1.085496 1 120.885302 2 156.067414 0
H  4 1.085549 1 120.891942 2 -35.006742 0
C  1 1.547800 2 108.354929 3 116.388187 0
H  7 1.094574 1 110.994149 2 62.361382 0
H  7 1.094619 1 111.009332 2 -177.747748 0
H  7 1.095720 1 110.729807 2 -57.688925 0
S  4 5.100000 1 103.158749 2 62.552568 0
H  11 1.351787 4 86.952503 1 -71.396438 0
$end

PES scan, value:    5.1000 energy: -517.2242662108
------- Summary of potential scan: ------ 
    5.1000      -517.2242662108
----------------------------------------- 
Archival summary:
1\1\hpc0250\JobtypUnspecified\ProcedureUnspecified\6-31G**\138(3)\knomura\WedMar1321:10:172019WedMar1321:10:172019\0\\#,JobtypUnspecified,ProcedureUnspecified,6-31G**,\\0,3\C\H,1,1.098\H,1,1.09837,2,106.565\C,1,1.49201,2,109.851,3,-119.023,0\H,4,1.0855,1,120.885,2,156.067,0\H,4,1.08555,1,120.892,2,-35.0067,0\C,1,1.5478,2,108.355,3,116.388,0\H,7,1.09457,1,110.994,2,62.3614,0\H,7,1.09462,1,111.009,2,-177.748,0\H,7,1.09572,1,110.73,2,-57.6889,0\S,4,5.1,1,103.159,2,62.5526,0\H,11,1.35179,4,86.9525,1,-71.3964,0\\\@

 Total job time:  44.19s(wall), 506.40s(cpu) 
 Wed Mar 13 21:10:17 2019

        *************************************************************
        *                                                           *
        *  Thank you very much for using Q-Chem.  Have a nice day.  *
        *                                                           *
        *************************************************************


