
Running Job 1 of 1 thiol/02/C-S.xyz.data/inputs/bond_singlet_2.4.in
qchem thiol/02/C-S.xyz.data/inputs/bond_singlet_2.4.in_18493.0 /staging/scratch/2868767/qchem18493/ 1
/usr/usc/qchem/5.1.1/exe/qcprog.exe_s thiol/02/C-S.xyz.data/inputs/bond_singlet_2.4.in_18493.0 /staging/scratch/2868767/qchem18493/
Check license passed

                  Welcome to Q-Chem
     A Quantum Leap Into The Future Of Chemistry


 Q-Chem 5.1, Q-Chem, Inc., Pleasanton, CA (2018)

 Yihan Shao,  Zhengting Gan,  E. Epifanovsky,  A. T. B. Gilbert,  M. Wormit,  
 J. Kussmann,  A. W. Lange,  A. Behn,  Jia Deng,  Xintian Feng,  D. Ghosh,  
 M. Goldey,  P. R. Horn,  L. D. Jacobson,  I. Kaliman,  T. Kus,  A. Landau,  
 Jie Liu,  E. I. Proynov,  R. M. Richard,  R. P. Steele,  E. J. Sundstrom,  
 H. L. Woodcock III,  P. M. Zimmerman,  D. Zuev,  B. Albrecht,  E. Alguire,  
 S. A. Baeppler,  D. Barton,  Z. Benda,  Y. A. Bernard,  E. J. Berquist,  
 K. B. Bravaya,  H. Burton,  D. Casanova,  Chun-Min Chang,  Yunqing Chen,  
 A. Chien,  K. D. Closser,  M. P. Coons,  S. Coriani,  S. Dasgupta,  
 A. L. Dempwolff,  M. Diedenhofen,  Hainam Do,  R. G. Edgar,  Po-Tung Fang,  
 S. Faraji,  S. Fatehi,  Qingguo Feng,  K. D. Fenk,  J. Fosso-Tande,  
 Qinghui Ge,  A. Ghysels,  G. Gidofalvi,  J. Gomes,  J. Gonthier,  A. Gunina,  
 D. Hait,  M. W. D. Hanson-Heine,  P. H. P. Harbach,  A. W. Hauser,  
 J. E. Herr,  E. G. Hohenstein,  Z. C. Holden,  Kerwin Hui,  B. C. Huynh,  
 T.-C. Jagau,  Hyunjun Ji,  B. Kaduk,  K. Khistyaev,  Jaehoon Kim,  
 P. Klunzinger,  K. Koh,  D. Kosenkov,  L. Koulias,  T. Kowalczyk,  
 C. M. Krauter,  A. Kunitsa,  Ka Un Lao,  A. Laurent,  K. V. Lawler,  
 Joonho Lee,  D. Lefrancois,  S. Lehtola,  D. S. Levine,  Yi-Pei Li,  
 You-Sheng Lin,  Fenglai Liu,  E. Livshits,  A. Luenser,  P. Manohar,  
 E. Mansoor,  S. F. Manzer,  Shan-Ping Mao,  Yuezhi Mao,  N. Mardirossian,  
 A. V. Marenich,  T. Markovich,  L. A. Martinez-Martinez,  S. A. Maurer,  
 N. J. Mayhall,  S. C. McKenzie,  J.-M. Mewes,  A. F. Morrison,  
 J. W. Mullinax,  K. Nanda,  T. S. Nguyen-Beck,  R. Olivares-Amaya,  
 J. A. Parkhill,  T. M. Perrine,  F. Plasser,  P. Pokhilko,  S. Prager,  
 A. Prociuk,  E. Ramos,  D. R. Rehn,  F. Rob,  M. Schneider,  N. Sergueev,  
 S. M. Sharada,  S. Sharma,  D. W. Small,  T. Stauch,  T. Stein,  
 Yu-Chuan Su,  A. J. W. Thom,  A. Tkatchenko,  T. Tsuchimochi,  N. M. Tubman,  
 L. Vogt,  M. L. Vidal,  O. Vydrov,  M. A. Watson,  J. Wenzel,  
 M. de Wergifosse,  T. A. Wesolowski,  A. White,  J. Witte,  A. Yamada,  
 Jun Yang,  K. Yao,  S. Yeganeh,  S. R. Yost,  Zhi-Qiang You,  A. Zech,  
 Igor Ying Zhang,  Xing Zhang,  Yan Zhao,  Ying Zhu,  B. R. Brooks,  
 G. K. L. Chan,  C. J. Cramer,  M. S. Gordon,  W. J. Hehre,  A. Klamt,  
 M. W. Schmidt,  C. D. Sherrill,  D. G. Truhlar,  A. Aspuru-Guzik,  R. Baer,  
 A. T. Bell,  N. A. Besley,  Jeng-Da Chai,  A. E. DePrince, III,  
 R. A. DiStasio Jr.,  A. Dreuw,  B. D. Dunietz,  T. R. Furlani,  
 Chao-Ping Hsu,  Yousung Jung,  Jing Kong,  D. S. Lambrecht,  WanZhen Liang,  
 C. Ochsenfeld,  V. A. Rassolov,  L. V. Slipchenko,  J. E. Subotnik,  
 T. Van Voorhis,  J. M. Herbert,  A. I. Krylov,  P. M. W. Gill,  M. Head-Gordon

 Contributors to earlier versions of Q-Chem not listed above: 
 R. D. Adamson,  B. Austin,  J. Baker,  G. J. O. Beran,  K. Brandhorst,  
 S. T. Brown,  E. F. C. Byrd,  A. K. Chakraborty,  C.-L. Cheng,  
 Siu Hung Chien,  D. M. Chipman,  D. L. Crittenden,  H. Dachsel,  
 R. J. Doerksen,  A. D. Dutoi,  L. Fusti-Molnar,  W. A. Goddard III,  
 A. Golubeva-Zadorozhnaya,  S. R. Gwaltney,  G. Hawkins,  A. Heyden,  
 S. Hirata,  G. Kedziora,  F. J. Keil,  C. Kelley,  Jihan Kim,  R. A. King,  
 R. Z. Khaliullin,  P. P. Korambath,  W. Kurlancheek,  A. M. Lee,  M. S. Lee,  
 S. V. Levchenko,  Ching Yeh Lin,  D. Liotard,  R. C. Lochan,  I. Lotan,  
 P. E. Maslen,  N. Nair,  D. P. O'Neill,  D. Neuhauser,  E. Neuscamman,  
 C. M. Oana,  R. Olson,  B. Peters,  R. Peverati,  P. A. Pieniazek,  
 Y. M. Rhee,  J. Ritchie,  M. A. Rohrdanz,  E. Rosta,  N. J. Russ,  
 H. F. Schaefer III,  N. E. Schultz,  N. Shenvi,  A. C. Simmonett,  A. Sodt,  
 D. Stuck,  K. S. Thanthiriwatte,  V. Vanovschi,  Tao Wang,  A. Warshel,  
 C. F. Williams,  Q. Wu,  X. Xu,  W. Zhang

 Please cite Q-Chem as follows:
 Y. Shao et al., Mol. Phys. 113, 184-215 (2015)
 DOI: 10.1080/00268976.2014.952696

 Q-Chem 5.1.1 for Intel X86 EM64T Linux

 Parts of Q-Chem use Armadillo 8.300.2 (Tropical Shenanigans).
 http://arma.sourceforge.net/

 Q-Chem begins on Wed Mar 13 19:22:56 2019  

Host: 
0

     Scratch files written to /staging/scratch/2868767/qchem18493//
 Aug318 |scratch|qcdevops|jenkins|workspace|build_RNUM 6013   
Processing $rem in /usr/usc/qchem/5.1.1/config/preferences.
 MEM_TOTAL  2000 
Input Ideriv = 2
Curr. Ideriv = -1
Max.  Ideriv = 2

Checking the input file for inconsistencies... 	...done.

--------------------------------------------------------------
User input:
--------------------------------------------------------------

$comment
potential surface scanner
$end

$rem
JOBTYPE  PES_SCAN
UNRESTRICTED TRUE
SYM_IGNORE  TRUE
GEOM_OPT_MAX_CYCLES 400
SCF_MAX_CYCLES 400
METHOD   B3LYP
BASIS   6-31G**
PDB_PRINT 2
SCF_CONVERGENCE 6
THRESH 14
SCF_PRINT 1
$end
$molecule
0 1
S 2.471742 0.262092 -0.002592
C -0.666902 0.475772 -0.009004
C 0.352339 -0.631188 -0.016160
C -2.095794 -0.102668 0.016820
H -0.507731 1.117067 0.862968
H -0.542873 1.104804 -0.896810
H 0.417315 -1.224244 0.893609
H 0.399106 -1.243520 -0.913776
H -2.262428 -0.713788 0.909957
H -2.833480 0.705817 0.021450
H -2.290386 -0.729103 -0.860036
H 2.271693 0.882758 -1.183424
$end
$scan
stre 1 3 2.400000 2.401000 0.100000
$end
--------------------------------------------------------------
 ----------------------------------------------------------------
             Standard Nuclear Orientation (Angstroms)
    I     Atom           X                Y                Z
 ----------------------------------------------------------------
    1      S       2.4717420000     0.2620920000    -0.0025920000
    2      C      -0.6669020000     0.4757720000    -0.0090040000
    3      C       0.3523390000    -0.6311880000    -0.0161600000
    4      C      -2.0957940000    -0.1026680000     0.0168200000
    5      H      -0.5077310000     1.1170670000     0.8629680000
    6      H      -0.5428730000     1.1048040000    -0.8968100000
    7      H       0.4173150000    -1.2242440000     0.8936090000
    8      H       0.3991060000    -1.2435200000    -0.9137760000
    9      H      -2.2624280000    -0.7137880000     0.9099570000
   10      H      -2.8334800000     0.7058170000     0.0214500000
   11      H      -2.2903860000    -0.7291030000    -0.8600360000
   12      H       2.2716930000     0.8827580000    -1.1834240000
 ----------------------------------------------------------------
 Nuclear Repulsion Energy =   151.8559312609 hartrees
 There are       21 alpha and       21 beta electrons
 Requested basis set is 6-31G(d,p)
 There are 41 shells and 104 basis functions

 Total QAlloc Memory Limit   2000 MB
 Mega-Array Size       188 MB
 MEM_STATIC part       192 MB
A total of 1 constraints
  
            1
    1   1.0100000
    2   1.0100000
    3   3.0100000
    4   2.4000000
    5   2.4010000
    6   0.1000000
    7   0.0000000
    8   0.0000000
    9   0.0000000
   10   0.0000000

                       Distance Matrix (Angstroms)
             S (  1)   C (  2)   C (  3)   C (  4)   H (  5)   H (  6)
   C (  2)  3.145916
   C (  3)  2.300001  1.504747
   C (  4)  4.582119  1.541750  2.504751
   H (  5)  3.218297  1.094043  2.137518  2.173859
   H (  6)  3.255410  1.095109  2.142573  2.168933  1.760172
   H (  7)  2.689431  2.209138  1.087942  2.888323  2.517615  3.090635
   H (  8)  2.718997  2.216066  1.087590  2.896908  3.090557  2.530264
   H (  9)  4.919091  2.192087  2.775162  1.094956  2.536375  3.086835
   H ( 10)  5.323800  2.178970  3.455205  1.094463  2.507267  2.499854
   H ( 11)  4.939184  2.193554  2.775916  1.095063  3.091107  2.533450
   H ( 12)  1.348929  3.190649  2.708959  4.635363  3.459454  2.837822
             H (  7)   H (  8)   H (  9)   H ( 10)   H ( 11)
   H (  8)  1.807580
   H (  9)  2.727976  3.269615
   H ( 10)  3.879879  3.888981  1.769413
   H ( 11)  3.263752  2.738773  1.770280  1.769453
   H ( 12)  3.491739  2.846111  5.243039  5.248411  4.849252
 
 A cutoff of  1.0D-14 yielded    817 shell pairs
 There are      5332 function pairs
 
 -------------------------------------------------------
 OpenMP Integral Computing Module                       
 Release: version 1.0, May 2013, Q-Chem Inc. Pittsburgh 
 -------------------------------------------------------
 Integral Job Info:
 Integral job number is                      11
 Integral operator is                         1
 short-range coefficients                     0
 long-range coefficients              100000000
 Omega coefficients                           0
 if combine SR and LR in K                    0
 Integral screening is                        0
 Integral computing path is                   2
 max size of driver memory is            800000
 size of driver memory is                593474
 size of scratch memory is             15267112
 max col of scratch BK array               1296
 max len of scratch array in speh3          155
 max len of scratch index in speh4           18
 max int batch size is                      520
 min int batch size is                       52
 fixed nKL is                                52
 max L of basis functions is                  2
 order of int derivative is                   0
 number of shells is                         41
 number of basis is                         104
 number of cartesian basis is               104
 number of contracted shell pairs           817
 number of primitive shell pairs           2940
 maxK2 (contraction) of shell pair           36
 max number of K2 of shell pair               1
 max number of CS2 of shell pair             73
 max number of PS2 of shell pair            258
 mem total for path MDJ                  513890
 -------------------------------------------------------
 Smallest overlap matrix eigenvalue = 5.89E-03

 Scale SEOQF with 1.000000e-01/1.000000e+00/1.000000e+00

 Standard Electronic Orientation quadrupole field applied
 Nucleus-field energy     =     0.0000000079 hartrees
 Guess from superposition of atomic densities
 Warning:  Energy on first SCF cycle will be non-variational
 SAD guess density has 42.000000 electrons

 -----------------------------------------------------------------------
  General SCF calculation program by
  Eric Jon Sundstrom, Paul Horn, Yuezhi Mao, Dmitri Zuev, Alec White,
  David Stuck, Shaama M.S., Shane Yost, Joonho Lee, David Small,
  Daniel Levine, Susi Lehtola, Hugh Burton, Evgeny Epifanovsky
 -----------------------------------------------------------------------
 Exchange:     0.2000 Hartree-Fock + 0.0800 Slater + 0.7200 B88
 Correlation:  0.1900 VWN1RPA + 0.8100 LYP
 Using SG-1 standard quadrature grid
 using 12 threads for integral computing
 -------------------------------------------------------
 OpenMP Integral computing Module                
 Release: version 1.0, May 2013, Q-Chem Inc. Pittsburgh 
 -------------------------------------------------------
 -------------------------------------------------------
 OpenMP BLAS3 based DFT computing Module                
 Release: version 1.0, May 2013, Q-Chem Inc. Pittsburgh 
 -------------------------------------------------------
 A unrestricted SCF calculation will be
 performed using DIIS
 SCF converges when DIIS error is below 1.0e-06
 Alpha HF Exchange    Energy =  -4.33212845366487
 Beta HF Exchange     Energy =  -4.33212845366487
 DFT Correlation      Energy =  -1.86613847161783
 DFT Exchange         Energy = -33.96670882019520
 One-Electron (alpha) Energy = -503.16549855237321
 One-Electron (beta)  Energy = -503.16549855237321
 Total Coulomb        Energy = 381.43947674206339
 ---------------------------------------
  Cycle       Energy         DIIS error
 ---------------------------------------
    1    -517.5326932929      2.87e-02  
 Alpha HF Exchange    Energy =  -4.35605519330473
 Beta HF Exchange     Energy =  -4.35605519330473
 DFT Correlation      Energy =  -1.89434449367782
 DFT Exchange         Energy = -34.56900696756166
 One-Electron (alpha) Energy = -506.74914267668123
 One-Electron (beta)  Energy = -506.74914267668146
 Total Coulomb        Energy = 389.57846393908545
    2    -517.2393519932      3.39e-03  
 Alpha HF Exchange    Energy =  -4.30336851611857
 Beta HF Exchange     Energy =  -4.30336851611858
 DFT Correlation      Energy =  -1.86880341065247
 DFT Exchange         Energy = -34.12123726925849
 One-Electron (alpha) Energy = -503.31146382375221
 One-Electron (beta)  Energy = -503.31146382375277
 Total Coulomb        Energy = 382.14170664292590
    3    -517.2220674478      3.83e-03  
 Alpha HF Exchange    Energy =  -4.32694486088511
 Beta HF Exchange     Energy =  -4.32694486088511
 DFT Correlation      Energy =  -1.88166025340128
 DFT Exchange         Energy = -34.32376488218222
 One-Electron (alpha) Energy = -504.92218723541799
 One-Electron (beta)  Energy = -504.92218723541816
 Total Coulomb        Energy = 385.54196328986842
    4    -517.3057947694      6.86e-04  
 Alpha HF Exchange    Energy =  -4.32880649538742
 Beta HF Exchange     Energy =  -4.32880649538741
 DFT Correlation      Energy =  -1.88174377290308
 DFT Exchange         Energy = -34.33613501958662
 One-Electron (alpha) Energy = -505.06568158595809
 One-Electron (beta)  Energy = -505.06568158595803
 Total Coulomb        Energy = 385.84211804871273
    5    -517.3088056376      2.67e-04  
 Alpha HF Exchange    Energy =  -4.32861328225414
 Beta HF Exchange     Energy =  -4.32861328225413
 DFT Correlation      Energy =  -1.88179523292781
 DFT Exchange         Energy = -34.33547859933408
 One-Electron (alpha) Energy = -505.04516778648042
 One-Electron (beta)  Energy = -505.04516778648008
 Total Coulomb        Energy = 385.79964986069655
    6    -517.3092548402      6.22e-05  
 Alpha HF Exchange    Energy =  -4.32839685599292
 Beta HF Exchange     Energy =  -4.32839685599293
 DFT Correlation      Energy =  -1.88170264702811
 DFT Exchange         Energy = -34.33356198572582
 One-Electron (alpha) Energy = -505.02591048726123
 One-Electron (beta)  Energy = -505.02591048726163
 Total Coulomb        Energy = 385.75867256856498
    7    -517.3092754818      1.28e-05  
 Alpha HF Exchange    Energy =  -4.32845433920866
 Beta HF Exchange     Energy =  -4.32845433920867
 DFT Correlation      Energy =  -1.88172675813577
 DFT Exchange         Energy = -34.33402909468013
 One-Electron (alpha) Energy = -505.03199422963331
 One-Electron (beta)  Energy = -505.03199422963337
 Total Coulomb        Energy = 385.77144523993292
    8    -517.3092764817      1.69e-06  
 Alpha HF Exchange    Energy =  -4.32845312544792
 Beta HF Exchange     Energy =  -4.32845312544792
 DFT Correlation      Energy =  -1.88172607346612
 DFT Exchange         Energy = -34.33401749108815
 One-Electron (alpha) Energy = -505.03164934788902
 One-Electron (beta)  Energy = -505.03164934788884
 Total Coulomb        Energy = 385.77074074097402
    9    -517.3092765014      4.07e-07  Convergence criterion met
 ---------------------------------------
 SCF time:   CPU 22.11s  wall 2.00s 
<S^2> =         -0.000000000
 Alpha HF Exchange    Energy =  -4.32845312544792
 Beta HF Exchange     Energy =  -4.32845312544792
 DFT Correlation      Energy =  -1.88172607346612
 DFT Exchange         Energy = -34.33401749108815
 One-Electron (alpha) Energy = -505.03164934788902
 One-Electron (beta)  Energy = -505.03164934788884
 Total Coulomb        Energy = 385.77074074097402
 Nuclear repulsion Energy = 151.85593126887997
 SCF   energy in the final basis set =     -517.3092765014
 Total energy in the final basis set =     -517.3092765014
 
 --------------------------------------------------------------
 
                    Orbital Energies (a.u.)
 --------------------------------------------------------------
 
 Alpha MOs
 -- Occupied --
-88.865 -10.245 -10.203 -10.193  -7.924  -5.889  -5.887  -5.879
 -0.802  -0.708  -0.665  -0.600  -0.484  -0.442  -0.412  -0.400
 -0.371  -0.364  -0.350  -0.283  -0.229
 -- Virtual --
 -0.048   0.059   0.095   0.127   0.131   0.145   0.167   0.172
  0.189   0.214   0.243   0.333   0.366   0.397   0.422   0.496
  0.517   0.521   0.560   0.564   0.630   0.672   0.680   0.706
  0.770   0.783   0.807   0.840   0.845   0.863   0.871   0.881
  0.913   0.917   0.940   0.986   1.114   1.144   1.284   1.339
  1.355   1.515   1.585   1.616   1.660   1.808   1.838   1.911
  2.003   2.038   2.038   2.056   2.099   2.105   2.113   2.128
  2.213   2.227   2.254   2.353   2.418   2.468   2.539   2.547
  2.671   2.725   2.733   2.753   2.805   2.828   2.868   2.902
  3.170   3.231   3.311   3.340   3.455   3.479   3.525   3.980
  4.253   4.443   4.612
 
 Beta MOs
 -- Occupied --
-88.865 -10.245 -10.203 -10.193  -7.924  -5.889  -5.887  -5.879
 -0.802  -0.708  -0.665  -0.600  -0.484  -0.442  -0.412  -0.400
 -0.371  -0.364  -0.350  -0.283  -0.229
 -- Virtual --
 -0.048   0.059   0.095   0.127   0.131   0.145   0.167   0.172
  0.189   0.214   0.243   0.333   0.366   0.397   0.422   0.496
  0.517   0.521   0.560   0.564   0.630   0.672   0.680   0.706
  0.770   0.783   0.807   0.840   0.845   0.863   0.871   0.881
  0.913   0.917   0.940   0.986   1.114   1.144   1.284   1.339
  1.355   1.515   1.585   1.616   1.660   1.808   1.838   1.911
  2.003   2.038   2.038   2.056   2.099   2.105   2.113   2.128
  2.213   2.227   2.254   2.353   2.418   2.468   2.539   2.547
  2.671   2.725   2.733   2.753   2.805   2.828   2.868   2.902
  3.170   3.231   3.311   3.340   3.455   3.479   3.525   3.980
  4.253   4.443   4.612
 --------------------------------------------------------------
 
          Ground-State Mulliken Net Atomic Charges

     Atom                 Charge (a.u.)    Spin (a.u.)
  --------------------------------------------------------
      1 S                    -0.202979      -0.000000
      2 C                    -0.171301      -0.000000
      3 C                    -0.237406       0.000000
      4 C                    -0.327162       0.000000
      5 H                     0.130205       0.000000
      6 H                     0.113290       0.000000
      7 H                     0.148915      -0.000000
      8 H                     0.149406      -0.000000
      9 H                     0.112768       0.000000
     10 H                     0.117790      -0.000000
     11 H                     0.110790       0.000000
     12 H                     0.055684       0.000000
  --------------------------------------------------------
  Sum of atomic charges =    -0.000000
  Sum of spin   charges =     0.000000

 -----------------------------------------------------------------
                    Cartesian Multipole Moments
 -----------------------------------------------------------------
    Charge (ESU x 10^10)
                 0.0000
    Dipole Moment (Debye)
         X      -2.8460      Y      -0.3337      Z      -0.7293
       Tot       2.9569
    Quadrupole Moments (Debye-Ang)
        XX     -41.1065     XY       0.2804     YY     -33.9839
        XZ      -1.6711     YZ      -1.6962     ZZ     -32.6538
    Octopole Moments (Debye-Ang^2)
       XXX     -69.9865    XXY       2.4744    XYY     -18.1651
       YYY      -7.1437    XXZ      -2.4546    XYZ      -4.2401
       YYZ      -0.1891    XZZ     -14.9354    YZZ      -2.5584
       ZZZ       1.9402
    Hexadecapole Moments (Debye-Ang^3)
      XXXX    -841.7625   XXXY     -12.1537   XXYY    -150.2936
      XYYY     -25.2512   YYYY    -100.3545   XXXZ      -0.1313
      XXYZ      -9.8620   XYYZ      -0.4337   YYYZ       0.3726
      XXZZ    -138.8499   XYZZ      -6.0421   YYZZ     -24.3400
      XZZZ       4.8591   YZZZ      -0.0518   ZZZZ     -62.7551
 -----------------------------------------------------------------
 Calculating analytic gradient of the SCF energy
 Gradient of SCF Energy
            1           2           3           4           5           6
    1   0.0463941   0.0000379  -0.0464226  -0.0000218  -0.0000107  -0.0000122
    2   0.0195278   0.0000131  -0.0195479  -0.0000104  -0.0000127   0.0000017
    3   0.0002845  -0.0000112  -0.0003096  -0.0000039   0.0000082  -0.0000007
            7           8           9          10          11          12
    1   0.0000095   0.0000248  -0.0000004   0.0000020   0.0000093  -0.0000097
    2   0.0000180  -0.0000074  -0.0000024  -0.0000105  -0.0000135   0.0000441
    3   0.0000133   0.0000121  -0.0000003  -0.0000140  -0.0000019   0.0000236
 Max gradient component =       4.642E-02
 RMS gradient           =       1.187E-02
 Gradient time:  CPU 8.07 s  wall 0.69 s
 Geometry Optimization Parameters
   NAtoms,    NIC,     NZ,  NCons,   NDum,   NFix, NCnnct, MaxDiis
       12      75       0       1       0       0       0       0


** CONSTRAINED OPTIMIZATION IN DELOCALIZED INTERNAL COORDINATES **
   Searching for a Minimum

   Optimization Cycle:   1

                       Coordinates (Angstroms)
     ATOM                X               Y               Z
      1  S         2.4717420000    0.2620920000   -0.0025920000
      2  C        -0.6669020000    0.4757720000   -0.0090040000
      3  C         0.3523390000   -0.6311880000   -0.0161600000
      4  C        -2.0957940000   -0.1026680000    0.0168200000
      5  H        -0.5077310000    1.1170670000    0.8629680000
      6  H        -0.5428730000    1.1048040000   -0.8968100000
      7  H         0.4173150000   -1.2242440000    0.8936090000
      8  H         0.3991060000   -1.2435200000   -0.9137760000
      9  H        -2.2624280000   -0.7137880000    0.9099570000
     10  H        -2.8334800000    0.7058170000    0.0214500000
     11  H        -2.2903860000   -0.7291030000   -0.8600360000
     12  H         2.2716930000    0.8827580000   -1.1834240000
   Point Group: c1    Number of degrees of freedom:    30


   Energy is   -517.309276501

              Constraints and their Current Values
                                        Value     Constraint
   Distance(Angs):        1   3             2.300001     2.400000

 Attempting to Generate Delocalized Internal Coordinates

   Using Lagrange Multiplier Algorithm


 31 Hessian modes will be used to form the next step
  Hessian Eigenvalues:
    -0.962258    0.045000    0.045000    0.045000    0.069765    0.074589
     0.078720    0.080066    0.082404    0.083318    0.101092    0.130180
     0.130600    0.141919    0.160000    0.160000    0.160000    0.160000
     0.219085    0.220543    0.257205    0.283645    0.318844    0.342288
     0.342340    0.342462    0.343019    0.343496    0.350516    0.350926
     1.039222

 Minimum Search - Taking P-RFO Step
 Searching for Lamda that Maximizes Along the Constraint modes Only
 Value Taken    Lamda =   0.02950841
 Searching for Lamda that Minimizes Along All other modes
 Value Taken    Lamda =  -0.00856931
 Step Taken.  Stepsize is  0.184770

                             Maximum     Tolerance    Cnvgd?
         Gradient            0.188972       0.000300      NO
         Displacement        0.184767       0.001200      NO
         Energy change     *********       0.000001      NO


 New Cartesian Coordinates Obtained by Inverse Iteration

 Displacement from previous Coordinates is:  0.234393
 ----------------------------------------------------------------
             Standard Nuclear Orientation (Angstroms)
    I     Atom           X                Y                Z
 ----------------------------------------------------------------
    1      S       2.5477607474     0.2866534778    -0.0094731330
    2      C      -0.6805665799     0.4702406234    -0.0093523588
    3      C       0.3359694395    -0.6392234096    -0.0169004614
    4      C      -2.1107794303    -0.1046491601     0.0207685676
    5      H      -0.5177963000     1.1126878609     0.8611081300
    6      H      -0.5569999142     1.0974203987    -0.8985309352
    7      H       0.4015182360    -1.2308644600     0.8937446910
    8      H       0.3790931209    -1.2532270723    -0.9135592411
    9      H      -2.2768264417    -0.7138662424     0.9153124767
   10      H      -2.8465006750     0.7056300963     0.0257648660
   11      H      -2.3089565314    -0.7320741202    -0.8545747154
   12      H       2.3466853287     0.9050710075    -1.1913058866
 ----------------------------------------------------------------
 Nuclear Repulsion Energy =   149.7897795976 hartrees
 There are       21 alpha and       21 beta electrons

                       Distance Matrix (Angstroms)
             S (  1)   C (  2)   C (  3)   C (  4)   H (  5)   H (  6)
   C (  2)  3.233543
   C (  3)  2.397775  1.504763
   C (  4)  4.675043  1.541724  2.504749
   H (  5)  3.292094  1.094045  2.137524  2.173862
   H (  6)  3.329761  1.095108  2.142568  2.168943  1.760142
   H (  7)  2.779392  2.209129  1.087939  2.888267  2.517626  3.090618
   H (  8)  2.809221  2.216035  1.087592  2.896837  3.090535  2.530225
   H (  9)  5.013273  2.192067  2.775121  1.094955  2.536420  3.086842
   H ( 10)  5.410623  2.178970  3.455223  1.094469  2.507261  2.499927
   H ( 11)  5.033856  2.193539  2.775960  1.095063  3.091111  2.533443
   H ( 12)  1.348926  3.278772  2.794110  4.728388  3.529981  2.924740
             H (  7)   H (  8)   H (  9)   H ( 10)   H ( 11)
   H (  8)  1.807581
   H (  9)  2.727871  3.269494
   H ( 10)  3.879823  3.888947  1.769405
   H ( 11)  3.263753  2.738739  1.770272  1.769448
   H ( 12)  3.562770  2.933737  5.332510  5.337623  4.946578
 
 Applying Cartesian multipole field
    Component          Value
    ---------          -----
     (2,0,0)        1.00000E-11
     (0,2,0)        2.00000E-10
     (0,0,2)       -3.00000E-10
 Nucleus-field energy     =     0.0000000084 hartrees
 Requested basis set is 6-31G(d,p)
 There are 41 shells and 104 basis functions
 A cutoff of  1.0D-14 yielded    817 shell pairs
 There are      5332 function pairs
 Smallest overlap matrix eigenvalue = 5.96E-03
 Guess from superposition of atomic densities
 Warning:  Energy on first SCF cycle will be non-variational
 SAD guess density has 42.000000 electrons

 -----------------------------------------------------------------------
  General SCF calculation program by
  Eric Jon Sundstrom, Paul Horn, Yuezhi Mao, Dmitri Zuev, Alec White,
  David Stuck, Shaama M.S., Shane Yost, Joonho Lee, David Small,
  Daniel Levine, Susi Lehtola, Hugh Burton, Evgeny Epifanovsky
 -----------------------------------------------------------------------
 Exchange:     0.2000 Hartree-Fock + 0.0800 Slater + 0.7200 B88
 Correlation:  0.1900 VWN1RPA + 0.8100 LYP
 Using SG-1 standard quadrature grid
 using 12 threads for integral computing
 -------------------------------------------------------
 OpenMP Integral computing Module                
 Release: version 1.0, May 2013, Q-Chem Inc. Pittsburgh 
 -------------------------------------------------------
 -------------------------------------------------------
 OpenMP BLAS3 based DFT computing Module                
 Release: version 1.0, May 2013, Q-Chem Inc. Pittsburgh 
 -------------------------------------------------------
 A unrestricted SCF calculation will be
 performed using DIIS
 SCF converges when DIIS error is below 1.0e-06
 Alpha HF Exchange    Energy =  -4.32885935294598
 Beta HF Exchange     Energy =  -4.32885935294598
 DFT Correlation      Energy =  -1.86453785533175
 DFT Exchange         Energy = -33.96055943601630
 One-Electron (alpha) Energy = -501.10257860662273
 One-Electron (beta)  Energy = -501.10257860662273
 Total Coulomb        Energy = 379.39270129497368
 ---------------------------------------
  Cycle       Energy         DIIS error
 ---------------------------------------
    1    -517.5054923095      2.85e-02  
 Alpha HF Exchange    Energy =  -4.35420324445166
 Beta HF Exchange     Energy =  -4.35420324445166
 DFT Correlation      Energy =  -1.89265582173903
 DFT Exchange         Energy = -34.55835664792377
 One-Electron (alpha) Energy = -504.66718269018509
 One-Electron (beta)  Energy = -504.66718269018531
 Total Coulomb        Energy = 387.47229987162359
    2    -517.2317048613      3.34e-03  
 Alpha HF Exchange    Energy =  -4.30166476260019
 Beta HF Exchange     Energy =  -4.30166476260020
 DFT Correlation      Energy =  -1.86747298071383
 DFT Exchange         Energy = -34.11274542429258
 One-Electron (alpha) Energy = -501.25191237425895
 One-Electron (beta)  Energy = -501.25191237425958
 Total Coulomb        Energy = 380.07955711745296
    3    -517.2180359553      3.72e-03  
 Alpha HF Exchange    Energy =  -4.32523321712523
 Beta HF Exchange     Energy =  -4.32523321712524
 DFT Correlation      Energy =  -1.88014236317915
 DFT Exchange         Energy = -34.31468887411923
 One-Electron (alpha) Energy = -502.84797323710580
 One-Electron (beta)  Energy = -502.84797323710598
 Total Coulomb        Energy = 383.45516633961188
    4    -517.2962982001      6.78e-04  
 Alpha HF Exchange    Energy =  -4.32706443021831
 Beta HF Exchange     Energy =  -4.32706443021831
 DFT Correlation      Energy =  -1.88014923321393
 DFT Exchange         Energy = -34.32631620449187
 One-Electron (alpha) Energy = -502.99270745390385
 One-Electron (beta)  Energy = -502.99270745390385
 Total Coulomb        Energy = 383.75707110520125
    5    -517.2991584947      3.09e-04  
 Alpha HF Exchange    Energy =  -4.32686129417941
 Beta HF Exchange     Energy =  -4.32686129417941
 DFT Correlation      Energy =  -1.88025156925413
 DFT Exchange         Energy = -34.32595168075532
 One-Electron (alpha) Energy = -502.97164240541099
 One-Electron (beta)  Energy = -502.97164240541105
 Total Coulomb        Energy = 383.71364256849347
    6    -517.2997884747      6.89e-05  
 Alpha HF Exchange    Energy =  -4.32662354543875
 Beta HF Exchange     Energy =  -4.32662354543875
 DFT Correlation      Energy =  -1.88014339481597
 DFT Exchange         Energy = -34.32380536798172
 One-Electron (alpha) Energy = -502.95036834115632
 One-Electron (beta)  Energy = -502.95036834115660
 Total Coulomb        Energy = 383.66833857421852
    7    -517.2998143558      1.31e-05  
 Alpha HF Exchange    Energy =  -4.32668169355403
 Beta HF Exchange     Energy =  -4.32668169355403
 DFT Correlation      Energy =  -1.88016804897958
 DFT Exchange         Energy = -34.32427889569914
 One-Electron (alpha) Energy = -502.95653531164982
 One-Electron (beta)  Energy = -502.95653531164982
 Total Coulomb        Energy = 383.68128594044663
    8    -517.2998154086      1.78e-06  
 Alpha HF Exchange    Energy =  -4.32668056059545
 Beta HF Exchange     Energy =  -4.32668056059545
 DFT Correlation      Energy =  -1.88016743485065
 DFT Exchange         Energy = -34.32426800667697
 One-Electron (alpha) Energy = -502.95617492666378
 One-Electron (beta)  Energy = -502.95617492666383
 Total Coulomb        Energy = 383.68055137944867
    9    -517.2998154306      4.49e-07  Convergence criterion met
 ---------------------------------------
 SCF time:   CPU 20.38s  wall 2.00s 
<S^2> =         -0.000000000
 Alpha HF Exchange    Energy =  -4.32668056059545
 Beta HF Exchange     Energy =  -4.32668056059545
 DFT Correlation      Energy =  -1.88016743485065
 DFT Exchange         Energy = -34.32426800667697
 One-Electron (alpha) Energy = -502.95617492666378
 One-Electron (beta)  Energy = -502.95617492666383
 Total Coulomb        Energy = 383.68055137944867
 Nuclear repulsion Energy = 149.78977960600980
 SCF   energy in the final basis set =     -517.2998154306
 Total energy in the final basis set =     -517.2998154306
 
 --------------------------------------------------------------
 
                    Orbital Energies (a.u.)
 --------------------------------------------------------------
 
 Alpha MOs
 -- Occupied --
-88.864 -10.249 -10.205 -10.195  -7.923  -5.887  -5.885  -5.877
 -0.804  -0.704  -0.668  -0.602  -0.485  -0.443  -0.413  -0.401
 -0.371  -0.365  -0.352  -0.277  -0.227
 -- Virtual --
 -0.063   0.062   0.093   0.126   0.130   0.143   0.166   0.170
  0.188   0.212   0.243   0.332   0.366   0.396   0.426   0.498
  0.517   0.523   0.560   0.563   0.630   0.663   0.682   0.706
  0.767   0.781   0.809   0.834   0.840   0.859   0.864   0.876
  0.906   0.914   0.938   0.976   1.103   1.144   1.282   1.320
  1.348   1.501   1.579   1.614   1.658   1.804   1.834   1.908
  1.999   2.036   2.036   2.053   2.100   2.103   2.112   2.125
  2.211   2.222   2.251   2.350   2.414   2.464   2.536   2.541
  2.668   2.725   2.730   2.752   2.802   2.825   2.865   2.900
  3.168   3.229   3.309   3.337   3.453   3.476   3.523   3.983
  4.248   4.437   4.606
 
 Beta MOs
 -- Occupied --
-88.864 -10.249 -10.205 -10.195  -7.923  -5.887  -5.885  -5.877
 -0.804  -0.704  -0.668  -0.602  -0.485  -0.443  -0.413  -0.401
 -0.371  -0.365  -0.352  -0.277  -0.227
 -- Virtual --
 -0.063   0.062   0.093   0.126   0.130   0.143   0.166   0.170
  0.188   0.212   0.243   0.332   0.366   0.396   0.426   0.498
  0.517   0.523   0.560   0.563   0.630   0.663   0.682   0.706
  0.767   0.781   0.809   0.834   0.840   0.859   0.864   0.876
  0.906   0.914   0.938   0.976   1.103   1.144   1.282   1.320
  1.348   1.501   1.579   1.614   1.658   1.804   1.834   1.908
  1.999   2.036   2.036   2.053   2.100   2.103   2.112   2.125
  2.211   2.222   2.251   2.350   2.414   2.464   2.536   2.541
  2.668   2.725   2.730   2.752   2.802   2.825   2.865   2.900
  3.168   3.229   3.309   3.337   3.453   3.476   3.523   3.983
  4.248   4.437   4.606
 --------------------------------------------------------------
 
          Ground-State Mulliken Net Atomic Charges

     Atom                 Charge (a.u.)    Spin (a.u.)
  --------------------------------------------------------
      1 S                    -0.229858      -0.000000
      2 C                    -0.176674       0.000000
      3 C                    -0.213374      -0.000000
      4 C                    -0.328163      -0.000000
      5 H                     0.132356      -0.000000
      6 H                     0.116307      -0.000000
      7 H                     0.149345       0.000000
      8 H                     0.149357       0.000000
      9 H                     0.113898       0.000000
     10 H                     0.120021       0.000000
     11 H                     0.111989       0.000000
     12 H                     0.054797       0.000000
  --------------------------------------------------------
  Sum of atomic charges =    -0.000000
  Sum of spin   charges =    -0.000000

 -----------------------------------------------------------------
                    Cartesian Multipole Moments
 -----------------------------------------------------------------
    Charge (ESU x 10^10)
                -0.0000
    Dipole Moment (Debye)
         X      -3.1164      Y      -0.3873      Z      -0.7270
       Tot       3.2234
    Quadrupole Moments (Debye-Ang)
        XX     -41.6098     XY       0.2434     YY     -33.9423
        XZ      -1.6993     YZ      -1.7174     ZZ     -32.6597
    Octopole Moments (Debye-Ang^2)
       XXX     -74.9930    XXY       2.2300    XYY     -19.2133
       YYY      -8.0283    XXZ      -2.5251    XYZ      -4.4144
       YYZ      -0.1960    XZZ     -15.8026    YZZ      -2.7735
       ZZZ       2.1511
    Hexadecapole Moments (Debye-Ang^3)
      XXXX    -883.8683   XXXY     -16.0111   XXYY    -156.8602
      XYYY     -29.2706   YYYY    -101.6968   XXXZ       0.5820
      XXYZ     -10.5172   XYYZ      -0.3071   YYYZ       0.4559
      XXZZ    -144.5486   XYZZ      -7.1253   YYZZ     -24.4891
      XZZZ       5.9157   YZZZ       0.0476   ZZZZ     -62.8284
 -----------------------------------------------------------------
 Calculating analytic gradient of the SCF energy
 Gradient of SCF Energy
            1           2           3           4           5           6
    1   0.0471287  -0.0031594  -0.0407069   0.0002029   0.0001384   0.0001226
    2   0.0200345  -0.0011227  -0.0181308   0.0010426   0.0000385   0.0000787
    3  -0.0002770   0.0002275  -0.0002225  -0.0000730  -0.0000248  -0.0000577
            7           8           9          10          11          12
    1  -0.0020346  -0.0020018   0.0000446  -0.0002605   0.0000311   0.0004950
    2  -0.0009293  -0.0009319  -0.0000232  -0.0001711  -0.0000493   0.0001640
    3  -0.0002115   0.0004476   0.0000251  -0.0000106  -0.0000268   0.0002037
 Max gradient component =       4.713E-02
 RMS gradient           =       1.134E-02
 Gradient time:  CPU 8.09 s  wall 0.68 s
 Geometry Optimization Parameters
   NAtoms,    NIC,     NZ,  NCons,   NDum,   NFix, NCnnct, MaxDiis
       12      75       0       1       0       0       0       0

 Cartesian Hessian Update
 Hessian Updated using BFGS Update


** CONSTRAINED OPTIMIZATION IN DELOCALIZED INTERNAL COORDINATES **
   Searching for a Minimum

   Optimization Cycle:   2

                       Coordinates (Angstroms)
     ATOM                X               Y               Z
      1  S         2.5477607474    0.2866534778   -0.0094731330
      2  C        -0.6805665799    0.4702406234   -0.0093523588
      3  C         0.3359694395   -0.6392234096   -0.0169004614
      4  C        -2.1107794303   -0.1046491601    0.0207685676
      5  H        -0.5177963000    1.1126878609    0.8611081300
      6  H        -0.5569999142    1.0974203987   -0.8985309352
      7  H         0.4015182360   -1.2308644600    0.8937446910
      8  H         0.3790931209   -1.2532270723   -0.9135592411
      9  H        -2.2768264417   -0.7138662424    0.9153124767
     10  H        -2.8465006750    0.7056300963    0.0257648660
     11  H        -2.3089565314   -0.7320741202   -0.8545747154
     12  H         2.3466853287    0.9050710075   -1.1913058866
   Point Group: c1    Number of degrees of freedom:    30


   Energy is   -517.299815431

              Constraints and their Current Values
                                        Value     Constraint
   Distance(Angs):        1   3             2.397775     2.400000
 Hessian Updated using BFGS Update

   Using Lagrange Multiplier Algorithm


 28 Hessian modes will be used to form the next step
  Hessian Eigenvalues:
    -0.996506    0.044999    0.045000    0.069765    0.078670    0.080009
     0.082365    0.083318    0.096372    0.101587    0.130180    0.140551
     0.141928    0.160000    0.172086    0.220383    0.230336    0.257388
     0.284127    0.336935    0.342334    0.342440    0.342554    0.343117
     0.343517    0.350811    0.351245    1.004100

 Minimum Search - Taking P-RFO Step
 Searching for Lamda that Maximizes Along the Constraint modes Only
 Value Taken    Lamda =   0.00001643
 Searching for Lamda that Minimizes Along All other modes
 Value Taken    Lamda =  -0.00020616
 Step Taken.  Stepsize is  0.026846

                             Maximum     Tolerance    Cnvgd?
         Gradient            0.009868       0.000300      NO
         Displacement        0.018751       0.001200      NO
         Energy change      0.009461       0.000001      NO


 New Cartesian Coordinates Obtained by Inverse Iteration

 Displacement from previous Coordinates is:  0.023902
 ----------------------------------------------------------------
             Standard Nuclear Orientation (Angstroms)
    I     Atom           X                Y                Z
 ----------------------------------------------------------------
    1      S       2.5452080782     0.2874032955    -0.0083370805
    2      C      -0.6794989699     0.4705369916    -0.0093179030
    3      C       0.3320588978    -0.6409821460    -0.0165442583
    4      C      -2.1100444887    -0.1045306860     0.0203170878
    5      H      -0.5165543616     1.1125574232     0.8613953473
    6      H      -0.5550426818     1.0976146093    -0.8983207055
    7      H       0.4052477188    -1.2307869570     0.8944821788
    8      H       0.3832358784    -1.2525917530    -0.9143231168
    9      H      -2.2770797943    -0.7137500883     0.9146438021
   10      H      -2.8442000781     0.7071006800     0.0252717266
   11      H      -2.3085962449    -0.7314303517    -0.8552774056
   12      H       2.3378670460     0.9026579824    -1.1909876730
 ----------------------------------------------------------------
 Nuclear Repulsion Energy =   149.8469504020 hartrees
 There are       21 alpha and       21 beta electrons

                       Distance Matrix (Angstroms)
             S (  1)   C (  2)   C (  3)   C (  4)   H (  5)   H (  6)
   C (  2)  3.229903
   C (  3)  2.399999  1.502923
   C (  4)  4.671810  1.542090  2.500602
   H (  5)  3.288115  1.094021  2.136779  2.174380
   H (  6)  3.325668  1.095008  2.141774  2.169580  1.760200
   H (  7)  2.774782  2.210890  1.087748  2.891248  2.518348  3.091562
   H (  8)  2.804732  2.217569  1.087517  2.899663  3.091396  2.530631
   H (  9)  5.010854  2.192831  2.771283  1.094929  2.537259  3.087603
   H ( 10)  5.405830  2.177864  3.450753  1.094420  2.506279  2.499153
   H ( 11)  5.031376  2.194158  2.772132  1.095030  3.091710  2.534208
   H ( 12)  1.349145  3.269185  2.790234  4.718644  3.521939  2.914205
             H (  7)   H (  8)   H (  9)   H ( 10)   H ( 11)
   H (  8)  1.809071
   H (  9)  2.731779  3.273034
   H ( 10)  3.881990  3.890961  1.769583
   H ( 11)  3.267409  2.742454  1.770290  1.769635
   H ( 12)  3.554686  2.922709  5.323926  5.326476  4.936858
 
 Applying Cartesian multipole field
    Component          Value
    ---------          -----
     (2,0,0)        1.00000E-11
     (0,2,0)        2.00000E-10
     (0,0,2)       -3.00000E-10
 Nucleus-field energy     =     0.0000000084 hartrees
 Requested basis set is 6-31G(d,p)
 There are 41 shells and 104 basis functions
 A cutoff of  1.0D-14 yielded    817 shell pairs
 There are      5332 function pairs
 Smallest overlap matrix eigenvalue = 5.95E-03
 Guess from superposition of atomic densities
 Warning:  Energy on first SCF cycle will be non-variational
 SAD guess density has 42.000000 electrons

 -----------------------------------------------------------------------
  General SCF calculation program by
  Eric Jon Sundstrom, Paul Horn, Yuezhi Mao, Dmitri Zuev, Alec White,
  David Stuck, Shaama M.S., Shane Yost, Joonho Lee, David Small,
  Daniel Levine, Susi Lehtola, Hugh Burton, Evgeny Epifanovsky
 -----------------------------------------------------------------------
 Exchange:     0.2000 Hartree-Fock + 0.0800 Slater + 0.7200 B88
 Correlation:  0.1900 VWN1RPA + 0.8100 LYP
 Using SG-1 standard quadrature grid
 using 12 threads for integral computing
 -------------------------------------------------------
 OpenMP Integral computing Module                
 Release: version 1.0, May 2013, Q-Chem Inc. Pittsburgh 
 -------------------------------------------------------
 -------------------------------------------------------
 OpenMP BLAS3 based DFT computing Module                
 Release: version 1.0, May 2013, Q-Chem Inc. Pittsburgh 
 -------------------------------------------------------
 A unrestricted SCF calculation will be
 performed using DIIS
 SCF converges when DIIS error is below 1.0e-06
 Alpha HF Exchange    Energy =  -4.32900748304124
 Beta HF Exchange     Energy =  -4.32900748304124
 DFT Correlation      Energy =  -1.86458338497890
 DFT Exchange         Energy = -33.96084997579518
 One-Electron (alpha) Energy = -501.15899063892175
 One-Electron (beta)  Energy = -501.15899063892175
 Total Coulomb        Energy = 379.44766542856064
 ---------------------------------------
  Cycle       Energy         DIIS error
 ---------------------------------------
    1    -517.5068137658      2.85e-02  
 Alpha HF Exchange    Energy =  -4.35428609401086
 Beta HF Exchange     Energy =  -4.35428609401086
 DFT Correlation      Energy =  -1.89270295014443
 DFT Exchange         Energy = -34.55903101106883
 One-Electron (alpha) Energy = -504.72804643655945
 One-Electron (beta)  Energy = -504.72804643655962
 Total Coulomb        Energy = 387.53780136901094
    2    -517.2316472430      3.34e-03  
 Alpha HF Exchange    Energy =  -4.30168690645669
 Beta HF Exchange     Energy =  -4.30168690645669
 DFT Correlation      Energy =  -1.86752979815883
 DFT Exchange         Energy = -34.11305321104462
 One-Electron (alpha) Energy = -501.30651546584488
 One-Electron (beta)  Energy = -501.30651546584488
 Total Coulomb        Energy = 380.13165059248195
    3    -517.2183867510      3.71e-03  
 Alpha HF Exchange    Energy =  -4.32529819304114
 Beta HF Exchange     Energy =  -4.32529819304114
 DFT Correlation      Energy =  -1.88019429339562
 DFT Exchange         Energy = -34.31526276099361
 One-Electron (alpha) Energy = -502.90676852615752
 One-Electron (beta)  Energy = -502.90676852615758
 Total Coulomb        Energy = 383.51641986082575
    4    -517.2962202216      6.73e-04  
 Alpha HF Exchange    Energy =  -4.32712128717984
 Beta HF Exchange     Energy =  -4.32712128717984
 DFT Correlation      Energy =  -1.88019424568092
 DFT Exchange         Energy = -34.32679699585925
 One-Electron (alpha) Energy = -503.05068901973345
 One-Electron (beta)  Energy = -503.05068901973357
 Total Coulomb        Energy = 383.81664063003586
    5    -517.2990208150      3.11e-04  
 Alpha HF Exchange    Energy =  -4.32691258524273
 Beta HF Exchange     Energy =  -4.32691258524273
 DFT Correlation      Energy =  -1.88029894168833
 DFT Exchange         Energy = -34.32641324079493
 One-Electron (alpha) Energy = -503.02924542380094
 One-Electron (beta)  Energy = -503.02924542380129
 Total Coulomb        Energy = 383.77241783152522
    6    -517.2996599587      6.90e-05  
 Alpha HF Exchange    Energy =  -4.32667636199710
 Beta HF Exchange     Energy =  -4.32667636199710
 DFT Correlation      Energy =  -1.88019080940249
 DFT Exchange         Energy = -34.32427600533318
 One-Electron (alpha) Energy = -503.00807354384364
 One-Electron (beta)  Energy = -503.00807354384318
 Total Coulomb        Energy = 383.72733029882374
    7    -517.2996859172      1.31e-05  
 Alpha HF Exchange    Energy =  -4.32673463201822
 Beta HF Exchange     Energy =  -4.32673463201822
 DFT Correlation      Energy =  -1.88021548368436
 DFT Exchange         Energy = -34.32475049215909
 One-Electron (alpha) Energy = -503.01425381633123
 One-Electron (beta)  Energy = -503.01425381633106
 Total Coulomb        Energy = 383.74030548854148
    8    -517.2996869737      1.79e-06  
 Alpha HF Exchange    Energy =  -4.32673346757011
 Beta HF Exchange     Energy =  -4.32673346757012
 DFT Correlation      Energy =  -1.88021486549142
 DFT Exchange         Energy = -34.32473936681065
 One-Electron (alpha) Energy = -503.01388836253523
 One-Electron (beta)  Energy = -503.01388836253568
 Total Coulomb        Energy = 383.73956048640042
    9    -517.2996869958      4.60e-07  Convergence criterion met
 ---------------------------------------
 SCF time:   CPU 21.14s  wall 2.00s 
<S^2> =         -0.000000000
 Alpha HF Exchange    Energy =  -4.32673346757011
 Beta HF Exchange     Energy =  -4.32673346757012
 DFT Correlation      Energy =  -1.88021486549142
 DFT Exchange         Energy = -34.32473936681065
 One-Electron (alpha) Energy = -503.01388836253523
 One-Electron (beta)  Energy = -503.01388836253568
 Total Coulomb        Energy = 383.73956048640042
 Nuclear repulsion Energy = 149.84695041034291
 SCF   energy in the final basis set =     -517.2996869958
 Total energy in the final basis set =     -517.2996869958
 
 --------------------------------------------------------------
 
                    Orbital Energies (a.u.)
 --------------------------------------------------------------
 
 Alpha MOs
 -- Occupied --
-88.863 -10.250 -10.205 -10.196  -7.922  -5.887  -5.885  -5.877
 -0.804  -0.704  -0.667  -0.602  -0.485  -0.444  -0.413  -0.401
 -0.371  -0.365  -0.353  -0.276  -0.226
 -- Virtual --
 -0.063   0.061   0.093   0.126   0.130   0.143   0.166   0.170
  0.189   0.212   0.243   0.332   0.366   0.396   0.427   0.498
  0.516   0.523   0.560   0.563   0.630   0.663   0.683   0.706
  0.767   0.781   0.808   0.834   0.840   0.859   0.864   0.876
  0.907   0.914   0.938   0.978   1.104   1.144   1.280   1.320
  1.351   1.500   1.580   1.611   1.658   1.805   1.835   1.910
  1.997   2.035   2.037   2.053   2.100   2.104   2.112   2.126
  2.210   2.221   2.252   2.353   2.413   2.465   2.538   2.538
  2.668   2.724   2.731   2.752   2.804   2.823   2.865   2.900
  3.168   3.229   3.309   3.339   3.453   3.476   3.521   3.983
  4.249   4.437   4.606
 
 Beta MOs
 -- Occupied --
-88.863 -10.250 -10.205 -10.196  -7.922  -5.887  -5.885  -5.877
 -0.804  -0.704  -0.667  -0.602  -0.485  -0.444  -0.413  -0.401
 -0.371  -0.365  -0.353  -0.276  -0.226
 -- Virtual --
 -0.063   0.061   0.093   0.126   0.130   0.143   0.166   0.170
  0.189   0.212   0.243   0.332   0.366   0.396   0.427   0.498
  0.516   0.523   0.560   0.563   0.630   0.663   0.683   0.706
  0.767   0.781   0.808   0.834   0.840   0.859   0.864   0.876
  0.907   0.914   0.938   0.978   1.104   1.144   1.280   1.320
  1.351   1.500   1.580   1.611   1.658   1.805   1.835   1.910
  1.997   2.035   2.037   2.053   2.100   2.104   2.112   2.126
  2.210   2.221   2.252   2.353   2.413   2.465   2.538   2.538
  2.668   2.724   2.731   2.752   2.804   2.823   2.865   2.900
  3.168   3.229   3.309   3.339   3.453   3.476   3.521   3.983
  4.249   4.437   4.606
 --------------------------------------------------------------
 
          Ground-State Mulliken Net Atomic Charges

     Atom                 Charge (a.u.)    Spin (a.u.)
  --------------------------------------------------------
      1 S                    -0.232091       0.000000
      2 C                    -0.176533      -0.000000
      3 C                    -0.213072      -0.000000
      4 C                    -0.328325       0.000000
      5 H                     0.132753       0.000000
      6 H                     0.116601       0.000000
      7 H                     0.150005       0.000000
      8 H                     0.149997      -0.000000
      9 H                     0.114065      -0.000000
     10 H                     0.119991       0.000000
     11 H                     0.112124      -0.000000
     12 H                     0.054484      -0.000000
  --------------------------------------------------------
  Sum of atomic charges =    -0.000000
  Sum of spin   charges =     0.000000

 -----------------------------------------------------------------
                    Cartesian Multipole Moments
 -----------------------------------------------------------------
    Charge (ESU x 10^10)
                -0.0000
    Dipole Moment (Debye)
         X      -3.1386      Y      -0.3969      Z      -0.7257
       Tot       3.2458
    Quadrupole Moments (Debye-Ang)
        XX     -41.6871     XY       0.2075     YY     -33.9375
        XZ      -1.6840     YZ      -1.7121     ZZ     -32.6486
    Octopole Moments (Debye-Ang^2)
       XXX     -75.1132    XXY       2.1182    XYY     -19.2025
       YYY      -8.0535    XXZ      -2.4693    XYZ      -4.3912
       YYZ      -0.2059    XZZ     -15.7747    YZZ      -2.7945
       ZZZ       2.1170
    Hexadecapole Moments (Debye-Ang^3)
      XXXX    -883.3980   XXXY     -16.2958   XXYY    -156.7007
      XYYY     -29.3822   YYYY    -101.7726   XXXZ       0.6622
      XXYZ     -10.4443   XYYZ      -0.3446   YYYZ       0.4448
      XXZZ    -144.3537   XYZZ      -7.1819   YYZZ     -24.4947
      XZZZ       5.7881   YZZZ       0.0424   ZZZZ     -62.8070
 -----------------------------------------------------------------
 Calculating analytic gradient of the SCF energy
 Gradient of SCF Energy
            1           2           3           4           5           6
    1   0.0468933  -0.0023166  -0.0425219   0.0003729   0.0001268   0.0001244
    2   0.0198378  -0.0007561  -0.0181730   0.0005706   0.0001045   0.0001229
    3   0.0000018   0.0001091  -0.0002613  -0.0000440  -0.0000338  -0.0000037
            7           8           9          10          11          12
    1  -0.0014022  -0.0014628  -0.0000118  -0.0000692  -0.0000026   0.0002698
    2  -0.0007866  -0.0008361  -0.0000622  -0.0000828  -0.0000771   0.0001380
    3  -0.0001654   0.0003189   0.0000145  -0.0000123  -0.0000115   0.0000878
 Max gradient component =       4.689E-02
 RMS gradient           =       1.148E-02
 Gradient time:  CPU 7.92 s  wall 0.66 s
 Geometry Optimization Parameters
   NAtoms,    NIC,     NZ,  NCons,   NDum,   NFix, NCnnct, MaxDiis
       12      75       0       1       0       0       0       0

 Cartesian Hessian Update
 Hessian Updated using BFGS Update


** CONSTRAINED OPTIMIZATION IN DELOCALIZED INTERNAL COORDINATES **
   Searching for a Minimum

   Optimization Cycle:   3

                       Coordinates (Angstroms)
     ATOM                X               Y               Z
      1  S         2.5452080782    0.2874032955   -0.0083370805
      2  C        -0.6794989699    0.4705369916   -0.0093179030
      3  C         0.3320588978   -0.6409821460   -0.0165442583
      4  C        -2.1100444887   -0.1045306860    0.0203170878
      5  H        -0.5165543616    1.1125574232    0.8613953473
      6  H        -0.5550426818    1.0976146093   -0.8983207055
      7  H         0.4052477188   -1.2307869570    0.8944821788
      8  H         0.3832358784   -1.2525917530   -0.9143231168
      9  H        -2.2770797943   -0.7137500883    0.9146438021
     10  H        -2.8442000781    0.7071006800    0.0252717266
     11  H        -2.3085962449   -0.7314303517   -0.8552774056
     12  H         2.3378670460    0.9026579824   -1.1909876730
   Point Group: c1    Number of degrees of freedom:    30


   Energy is   -517.299686996

              Constraints and their Current Values
                                        Value     Constraint
   Distance(Angs):        1   3             2.399999     2.400000
 Hessian Updated using BFGS Update

   Using Lagrange Multiplier Algorithm


 30 Hessian modes will be used to form the next step
  Hessian Eigenvalues:
    -0.993826    0.038328    0.045000    0.045001    0.045560    0.069769
     0.078688    0.080210    0.082495    0.083318    0.100990    0.128822
     0.130194    0.142061    0.158703    0.160000    0.164120    0.220388
     0.233089    0.257645    0.283490    0.318378    0.342259    0.342349
     0.342498    0.343166    0.343623    0.350440    0.351312    1.007064

 Minimum Search - Taking P-RFO Step
 Searching for Lamda that Maximizes Along the Constraint modes Only
 Value Taken    Lamda =   0.00000000
 Searching for Lamda that Minimizes Along All other modes
 Value Taken    Lamda =  -0.00016423
 Step Taken.  Stepsize is  0.063363

                             Maximum     Tolerance    Cnvgd?
         Gradient            0.001816       0.000300      NO
         Displacement        0.044664       0.001200      NO
         Energy change      0.000128       0.000001      NO


 New Cartesian Coordinates Obtained by Inverse Iteration

 Displacement from previous Coordinates is:  0.063526
 ----------------------------------------------------------------
             Standard Nuclear Orientation (Angstroms)
    I     Atom           X                Y                Z
 ----------------------------------------------------------------
    1      S       2.5364709665     0.2895750652    -0.0068832342
    2      C      -0.6765792500     0.4686493593    -0.0086855698
    3      C       0.3264355403    -0.6461998992    -0.0151400108
    4      C      -2.1107855095    -0.1024993474     0.0190337551
    5      H      -0.5136126980     1.1087538108     0.8631382828
    6      H      -0.5500662291     1.0949069999    -0.8976100404
    7      H       0.4175601828    -1.2299706806     0.8973516083
    8      H       0.3981977924    -1.2500979282    -0.9160257757
    9      H      -2.2804798482    -0.7113559623     0.9128583952
   10      H      -2.8418585887     0.7120597706     0.0238827874
   11      H      -2.3102874732    -0.7274144665    -0.8575526436
   12      H       2.3176061146     0.8973922784    -1.1913655544
 ----------------------------------------------------------------
 Nuclear Repulsion Energy =   150.0163507715 hartrees
 There are       21 alpha and       21 beta electrons

                       Distance Matrix (Angstroms)
             S (  1)   C (  2)   C (  3)   C (  4)   H (  5)   H (  6)
   C (  2)  3.218037
   C (  3)  2.400000  1.499656
   C (  4)  4.663838  1.543997  2.497364
   H (  5)  3.275821  1.093786  2.134693  2.174996
   H (  6)  3.311898  1.094710  2.139734  2.170222  1.761180
   H (  7)  2.759790  2.214352  1.087075  2.904336  2.517516  3.092450
   H (  8)  2.787355  2.220924  1.086940  2.913128  3.092087  2.529544
   H (  9)  5.005078  2.194118  2.767930  1.094726  2.537142  3.087833
   H ( 10)  5.394986  2.179161  3.447387  1.094531  2.506481  2.499607
   H ( 11)  5.024836  2.195483  2.769217  1.094862  3.091979  2.533937
   H ( 12)  1.349200  3.247722  2.780457  4.698457  3.504491  2.889437
             H (  7)   H (  8)   H (  9)   H ( 10)   H ( 11)
   H (  8)  1.813592
   H (  9)  2.747476  3.287913
   H ( 10)  3.893359  3.902750  1.769615
   H ( 11)  3.282286  2.759078  1.770735  1.769628
   H ( 12)  3.535334  2.893381  5.306432  5.303890  4.916180
 
 Applying Cartesian multipole field
    Component          Value
    ---------          -----
     (2,0,0)        1.00000E-11
     (0,2,0)        2.00000E-10
     (0,0,2)       -3.00000E-10
 Nucleus-field energy     =     0.0000000084 hartrees
 Requested basis set is 6-31G(d,p)
 There are 41 shells and 104 basis functions
 A cutoff of  1.0D-14 yielded    817 shell pairs
 There are      5332 function pairs
 Smallest overlap matrix eigenvalue = 5.93E-03
 Guess from superposition of atomic densities
 Warning:  Energy on first SCF cycle will be non-variational
 SAD guess density has 42.000000 electrons

 -----------------------------------------------------------------------
  General SCF calculation program by
  Eric Jon Sundstrom, Paul Horn, Yuezhi Mao, Dmitri Zuev, Alec White,
  David Stuck, Shaama M.S., Shane Yost, Joonho Lee, David Small,
  Daniel Levine, Susi Lehtola, Hugh Burton, Evgeny Epifanovsky
 -----------------------------------------------------------------------
 Exchange:     0.2000 Hartree-Fock + 0.0800 Slater + 0.7200 B88
 Correlation:  0.1900 VWN1RPA + 0.8100 LYP
 Using SG-1 standard quadrature grid
 using 12 threads for integral computing
 -------------------------------------------------------
 OpenMP Integral computing Module                
 Release: version 1.0, May 2013, Q-Chem Inc. Pittsburgh 
 -------------------------------------------------------
 -------------------------------------------------------
 OpenMP BLAS3 based DFT computing Module                
 Release: version 1.0, May 2013, Q-Chem Inc. Pittsburgh 
 -------------------------------------------------------
 A unrestricted SCF calculation will be
 performed using DIIS
 SCF converges when DIIS error is below 1.0e-06
 Alpha HF Exchange    Energy =  -4.32931471258900
 Beta HF Exchange     Energy =  -4.32931471258900
 DFT Correlation      Energy =  -1.86470713843586
 DFT Exchange         Energy = -33.96149400840318
 One-Electron (alpha) Energy = -501.32665532836950
 One-Electron (beta)  Energy = -501.32665532836950
 Total Coulomb        Energy = 379.61244383443596
 ---------------------------------------
  Cycle       Energy         DIIS error
 ---------------------------------------
    1    -517.5093466145      2.85e-02  
 Alpha HF Exchange    Energy =  -4.35451173345534
 Beta HF Exchange     Energy =  -4.35451173345534
 DFT Correlation      Energy =  -1.89283622346667
 DFT Exchange         Energy = -34.56070611051378
 One-Electron (alpha) Energy = -504.90417283896534
 One-Electron (beta)  Energy = -504.90417283896528
 Total Coulomb        Energy = 387.72269410520840
    2    -517.2318665938      3.33e-03  
 Alpha HF Exchange    Energy =  -4.30182074332105
 Beta HF Exchange     Energy =  -4.30182074332105
 DFT Correlation      Energy =  -1.86769195958943
 DFT Exchange         Energy = -34.11418450093988
 One-Electron (alpha) Energy = -501.47412676035111
 One-Electron (beta)  Energy = -501.47412676035117
 Total Coulomb        Energy = 380.29799839777593
    3    -517.2194222903      3.69e-03  
 Alpha HF Exchange    Energy =  -4.32548761489427
 Beta HF Exchange     Energy =  -4.32548761489426
 DFT Correlation      Energy =  -1.88033616180905
 DFT Exchange         Energy = -34.31670874604738
 One-Electron (alpha) Energy = -503.07999818334628
 One-Electron (beta)  Energy = -503.07999818334594
 Total Coulomb        Energy = 383.69524589592760
    4    -517.2964198286      6.62e-04  
 Alpha HF Exchange    Energy =  -4.32729728788203
 Beta HF Exchange     Energy =  -4.32729728788204
 DFT Correlation      Energy =  -1.88032616072715
 DFT Exchange         Energy = -34.32809852806669
 One-Electron (alpha) Energy = -503.22243532824746
 One-Electron (beta)  Energy = -503.22243532824774
 Total Coulomb        Energy = 383.99244321796738
    5    -517.2990959233      3.13e-04  
 Alpha HF Exchange    Energy =  -4.32707647241152
 Beta HF Exchange     Energy =  -4.32707647241153
 DFT Correlation      Energy =  -1.88043322158427
 DFT Exchange         Energy = -34.32765412141379
 One-Electron (alpha) Energy = -503.20009741404380
 One-Electron (beta)  Energy = -503.20009741404431
 Total Coulomb        Energy = 383.94633821985474
    6    -517.2997461162      6.90e-05  
 Alpha HF Exchange    Energy =  -4.32684446096171
 Beta HF Exchange     Energy =  -4.32684446096171
 DFT Correlation      Energy =  -1.88032592963694
 DFT Exchange         Energy = -34.32554693578464
 One-Electron (alpha) Energy = -503.17924632242136
 One-Electron (beta)  Energy = -503.17924632242148
 Total Coulomb        Energy = 383.90193162568221
    7    -517.2997720267      1.32e-05  
 Alpha HF Exchange    Energy =  -4.32690296169706
 Beta HF Exchange     Energy =  -4.32690296169705
 DFT Correlation      Energy =  -1.88035063577338
 DFT Exchange         Energy = -34.32602322596400
 One-Electron (alpha) Energy = -503.18544913109275
 One-Electron (beta)  Energy = -503.18544913109253
 Total Coulomb        Energy = 383.91495418131160
    8    -517.2997730862      1.81e-06  
 Alpha HF Exchange    Energy =  -4.32690173234653
 Beta HF Exchange     Energy =  -4.32690173234653
 DFT Correlation      Energy =  -1.88035000433391
 DFT Exchange         Energy = -34.32601160179294
 One-Electron (alpha) Energy = -503.18507407619057
 One-Electron (beta)  Energy = -503.18507407619092
 Total Coulomb        Energy = 383.91418933482709
    9    -517.2997731086      4.85e-07  Convergence criterion met
 ---------------------------------------
 SCF time:   CPU 21.07s  wall 1.00s 
<S^2> =         -0.000000000
 Alpha HF Exchange    Energy =  -4.32690173234653
 Beta HF Exchange     Energy =  -4.32690173234653
 DFT Correlation      Energy =  -1.88035000433391
 DFT Exchange         Energy = -34.32601160179294
 One-Electron (alpha) Energy = -503.18507407619057
 One-Electron (beta)  Energy = -503.18507407619092
 Total Coulomb        Energy = 383.91418933482709
 Nuclear repulsion Energy = 150.01635077981391
 SCF   energy in the final basis set =     -517.2997731086
 Total energy in the final basis set =     -517.2997731086
 
 --------------------------------------------------------------
 
                    Orbital Energies (a.u.)
 --------------------------------------------------------------
 
 Alpha MOs
 -- Occupied --
-88.862 -10.250 -10.206 -10.196  -7.921  -5.886  -5.884  -5.876
 -0.805  -0.704  -0.667  -0.602  -0.486  -0.445  -0.414  -0.401
 -0.371  -0.365  -0.353  -0.275  -0.226
 -- Virtual --
 -0.063   0.061   0.094   0.125   0.129   0.143   0.166   0.169
  0.190   0.211   0.243   0.333   0.367   0.397   0.427   0.497
  0.516   0.523   0.561   0.563   0.629   0.663   0.686   0.705
  0.767   0.781   0.804   0.835   0.840   0.859   0.865   0.875
  0.908   0.913   0.937   0.982   1.106   1.146   1.278   1.320
  1.357   1.499   1.583   1.604   1.656   1.805   1.837   1.913
  1.990   2.035   2.037   2.052   2.100   2.104   2.114   2.126
  2.210   2.221   2.254   2.359   2.412   2.465   2.532   2.542
  2.668   2.722   2.733   2.752   2.806   2.820   2.864   2.900
  3.169   3.230   3.311   3.342   3.453   3.477   3.520   3.984
  4.250   4.437   4.606
 
 Beta MOs
 -- Occupied --
-88.862 -10.250 -10.206 -10.196  -7.921  -5.886  -5.884  -5.876
 -0.805  -0.704  -0.667  -0.602  -0.486  -0.445  -0.414  -0.401
 -0.371  -0.365  -0.353  -0.275  -0.226
 -- Virtual --
 -0.063   0.061   0.094   0.125   0.129   0.143   0.166   0.169
  0.190   0.211   0.243   0.333   0.367   0.397   0.427   0.497
  0.516   0.523   0.561   0.563   0.629   0.663   0.686   0.705
  0.767   0.781   0.804   0.835   0.840   0.859   0.865   0.875
  0.908   0.913   0.937   0.982   1.106   1.146   1.278   1.320
  1.357   1.499   1.583   1.604   1.656   1.805   1.837   1.913
  1.990   2.035   2.037   2.052   2.100   2.104   2.114   2.126
  2.210   2.221   2.254   2.359   2.412   2.465   2.532   2.542
  2.668   2.722   2.733   2.752   2.806   2.820   2.864   2.900
  3.169   3.230   3.311   3.342   3.453   3.477   3.520   3.984
  4.250   4.437   4.606
 --------------------------------------------------------------
 
          Ground-State Mulliken Net Atomic Charges

     Atom                 Charge (a.u.)    Spin (a.u.)
  --------------------------------------------------------
      1 S                    -0.235554      -0.000000
      2 C                    -0.176152       0.000000
      3 C                    -0.213707      -0.000000
      4 C                    -0.328590      -0.000000
      5 H                     0.133458      -0.000000
      6 H                     0.117039       0.000000
      7 H                     0.151542      -0.000000
      8 H                     0.151662       0.000000
      9 H                     0.114253       0.000000
     10 H                     0.119857      -0.000000
     11 H                     0.112274       0.000000
     12 H                     0.053918       0.000000
  --------------------------------------------------------
  Sum of atomic charges =    -0.000000
  Sum of spin   charges =    -0.000000

 -----------------------------------------------------------------
                    Cartesian Multipole Moments
 -----------------------------------------------------------------
    Charge (ESU x 10^10)
                -0.0000
    Dipole Moment (Debye)
         X      -3.1649      Y      -0.4187      Z      -0.7232
       Tot       3.2733
    Quadrupole Moments (Debye-Ang)
        XX     -41.8127     XY       0.1215     YY     -33.9455
        XZ      -1.6554     YZ      -1.7010     ZZ     -32.6119
    Octopole Moments (Debye-Ang^2)
       XXX     -75.1425    XXY       1.8980    XYY     -19.1044
       YYY      -8.1002    XXZ      -2.3582    XYZ      -4.3374
       YYZ      -0.2195    XZZ     -15.6507    YZZ      -2.8371
       ZZZ       2.0643
    Hexadecapole Moments (Debye-Ang^3)
      XXXX    -881.0830   XXXY     -16.8446   XXYY    -156.1775
      XYYY     -29.5325   YYYY    -101.8894   XXXZ       0.8723
      XXYZ     -10.2669   XYYZ      -0.4018   YYYZ       0.4313
      XXZZ    -143.7664   XYZZ      -7.2733   YYZZ     -24.4989
      XZZZ       5.5908   YZZZ       0.0449   ZZZZ     -62.7546
 -----------------------------------------------------------------
 Calculating analytic gradient of the SCF energy
 Gradient of SCF Energy
            1           2           3           4           5           6
    1   0.0461784   0.0001116  -0.0460734   0.0000792   0.0000103   0.0000077
    2   0.0195122  -0.0001171  -0.0190008  -0.0001419   0.0000294   0.0000334
    3   0.0002620  -0.0000173  -0.0002749   0.0000044  -0.0000285   0.0000368
            7           8           9          10          11          12
    1  -0.0000199  -0.0001169  -0.0000078  -0.0000745  -0.0000027  -0.0000918
    2  -0.0001297  -0.0002114   0.0000194  -0.0000107   0.0000046   0.0000125
    3  -0.0000686   0.0000870  -0.0000205  -0.0000169   0.0000052   0.0000313
 Max gradient component =       4.618E-02
 RMS gradient           =       1.178E-02
 Gradient time:  CPU 7.91 s  wall 0.66 s
 Geometry Optimization Parameters
   NAtoms,    NIC,     NZ,  NCons,   NDum,   NFix, NCnnct, MaxDiis
       12      75       0       1       0       0       0       0

 Cartesian Hessian Update
 Hessian Updated using BFGS Update


** CONSTRAINED OPTIMIZATION IN DELOCALIZED INTERNAL COORDINATES **
   Searching for a Minimum

   Optimization Cycle:   4

                       Coordinates (Angstroms)
     ATOM                X               Y               Z
      1  S         2.5364709665    0.2895750652   -0.0068832342
      2  C        -0.6765792500    0.4686493593   -0.0086855698
      3  C         0.3264355403   -0.6461998992   -0.0151400108
      4  C        -2.1107855095   -0.1024993474    0.0190337551
      5  H        -0.5136126980    1.1087538108    0.8631382828
      6  H        -0.5500662291    1.0949069999   -0.8976100404
      7  H         0.4175601828   -1.2299706806    0.8973516083
      8  H         0.3981977924   -1.2500979282   -0.9160257757
      9  H        -2.2804798482   -0.7113559623    0.9128583952
     10  H        -2.8418585887    0.7120597706    0.0238827874
     11  H        -2.3102874732   -0.7274144665   -0.8575526436
     12  H         2.3176061146    0.8973922784   -1.1913655544
   Point Group: c1    Number of degrees of freedom:    30


   Energy is   -517.299773109

              Constraints and their Current Values
                                        Value     Constraint
   Distance(Angs):        1   3             2.400000     2.400000
 Hessian Updated using BFGS Update

 29 Hessian modes will be used to form the next step
  Hessian Eigenvalues:
     0.034689    0.045000    0.045001    0.045669    0.069769    0.078691
     0.080318    0.082498    0.083318    0.100997    0.130039    0.130257
     0.142083    0.159780    0.160000    0.160376    0.164557    0.220355
     0.235419    0.257674    0.283784    0.321871    0.342261    0.342350
     0.342502    0.343160    0.343623    0.350425    0.351324

 Minimum Search - Taking Simple RFO Step
 Searching for Lamda that Minimizes Along All modes
 Value Taken    Lamda =  -0.00000220
 Step Taken.  Stepsize is  0.006413

                             Maximum     Tolerance    Cnvgd?
         Gradient           0.000253      0.000300     YES
         Displacement       0.003841      0.001200      NO
         Energy change     -0.000086      0.000001      NO


 New Cartesian Coordinates Obtained by Inverse Iteration

 Displacement from previous Coordinates is:  0.008022
 ----------------------------------------------------------------
             Standard Nuclear Orientation (Angstroms)
    I     Atom           X                Y                Z
 ----------------------------------------------------------------
    1      S       2.5357065546     0.2904127303    -0.0073206099
    2      C      -0.6767196633     0.4678781709    -0.0083759972
    3      C       0.3264092571    -0.6471109170    -0.0146965920
    4      C      -2.1113600907    -0.1021860050     0.0189129256
    5      H      -0.5138928502     1.1077025876     0.8636735332
    6      H      -0.5499084456     1.0940212019    -0.8973423571
    7      H       0.4187657318    -1.2300026261     0.8981816685
    8      H       0.4002105618    -1.2497649422    -0.9161443553
    9      H      -2.2817673515    -0.7110978531     0.9126079181
   10      H      -2.8413491743     0.7132397211     0.0237466697
   11      H      -2.3111277555    -0.7267629614    -0.8578818585
   12      H       2.3176342258     0.8974698930    -1.1923589451
 ----------------------------------------------------------------
 Nuclear Repulsion Energy =   150.0174195368 hartrees
 There are       21 alpha and       21 beta electrons

                       Distance Matrix (Angstroms)
             S (  1)   C (  2)   C (  3)   C (  4)   H (  5)   H (  6)
   C (  2)  3.217325
   C (  3)  2.400000  1.499836
   C (  4)  4.663695  1.543992  2.498158
   H (  5)  3.275156  1.093782  2.134716  2.174707
   H (  6)  3.310430  1.094713  2.139752  2.169923  1.761437
   H (  7)  2.759173  2.214663  1.087032  2.906307  2.517123  3.092462
   H (  8)  2.785400  2.221288  1.086852  2.915348  3.092085  2.529113
   H (  9)  5.005731  2.194168  2.768858  1.094762  2.536890  3.087671
   H ( 10)  5.393744  2.178728  3.447713  1.094453  2.505620  2.498820
   H ( 11)  5.024928  2.195477  2.770182  1.094885  3.091775  2.533516
   H ( 12)  1.349218  3.248464  2.781653  4.699200  3.505569  2.889372
             H (  7)   H (  8)   H (  9)   H ( 10)   H ( 11)
   H (  8)  1.814529
   H (  9)  2.749973  3.290517
   H ( 10)  3.894763  3.904420  1.769730
   H ( 11)  3.284711  2.761934  1.770802  1.769749
   H ( 12)  3.535845  2.891959  5.307812  5.303580  4.916853
 
 Applying Cartesian multipole field
    Component          Value
    ---------          -----
     (2,0,0)        1.00000E-11
     (0,2,0)        2.00000E-10
     (0,0,2)       -3.00000E-10
 Nucleus-field energy     =     0.0000000083 hartrees
 Requested basis set is 6-31G(d,p)
 There are 41 shells and 104 basis functions
 A cutoff of  1.0D-14 yielded    817 shell pairs
 There are      5332 function pairs
 Smallest overlap matrix eigenvalue = 5.93E-03
 Guess from superposition of atomic densities
 Warning:  Energy on first SCF cycle will be non-variational
 SAD guess density has 42.000000 electrons

 -----------------------------------------------------------------------
  General SCF calculation program by
  Eric Jon Sundstrom, Paul Horn, Yuezhi Mao, Dmitri Zuev, Alec White,
  David Stuck, Shaama M.S., Shane Yost, Joonho Lee, David Small,
  Daniel Levine, Susi Lehtola, Hugh Burton, Evgeny Epifanovsky
 -----------------------------------------------------------------------
 Exchange:     0.2000 Hartree-Fock + 0.0800 Slater + 0.7200 B88
 Correlation:  0.1900 VWN1RPA + 0.8100 LYP
 Using SG-1 standard quadrature grid
 using 12 threads for integral computing
 -------------------------------------------------------
 OpenMP Integral computing Module                
 Release: version 1.0, May 2013, Q-Chem Inc. Pittsburgh 
 -------------------------------------------------------
 -------------------------------------------------------
 OpenMP BLAS3 based DFT computing Module                
 Release: version 1.0, May 2013, Q-Chem Inc. Pittsburgh 
 -------------------------------------------------------
 A unrestricted SCF calculation will be
 performed using DIIS
 SCF converges when DIIS error is below 1.0e-06
 Alpha HF Exchange    Energy =  -4.32929805023822
 Beta HF Exchange     Energy =  -4.32929805023822
 DFT Correlation      Energy =  -1.86470344734516
 DFT Exchange         Energy = -33.96146823772209
 One-Electron (alpha) Energy = -501.32773405500603
 One-Electron (beta)  Energy = -501.32773405500603
 Total Coulomb        Energy = 379.61363260049575
 ---------------------------------------
  Cycle       Energy         DIIS error
 ---------------------------------------
    1    -517.5091837499      2.85e-02  
 Alpha HF Exchange    Energy =  -4.35451649199354
 Beta HF Exchange     Energy =  -4.35451649199354
 DFT Correlation      Energy =  -1.89283408215125
 DFT Exchange         Energy = -34.56073285400808
 One-Electron (alpha) Energy = -504.90578492429233
 One-Electron (beta)  Energy = -504.90578492429222
 Total Coulomb        Energy = 387.72487973492923
    2    -517.2318704886      3.33e-03  
 Alpha HF Exchange    Energy =  -4.30182024634300
 Beta HF Exchange     Energy =  -4.30182024634300
 DFT Correlation      Energy =  -1.86769430812692
 DFT Exchange         Energy = -34.11419730239213
 One-Electron (alpha) Energy = -501.47547630425311
 One-Electron (beta)  Energy = -501.47547630425311
 Total Coulomb        Energy = 380.29955082851296
    3    -517.2195143380      3.69e-03  
 Alpha HF Exchange    Energy =  -4.32549160254724
 Beta HF Exchange     Energy =  -4.32549160254724
 DFT Correlation      Energy =  -1.88033446722174
 DFT Exchange         Energy = -34.31673366729148
 One-Electron (alpha) Energy = -503.08162282887923
 One-Electron (beta)  Energy = -503.08162282887906
 Total Coulomb        Energy = 383.69743402921313
    4    -517.2964434230      6.60e-04  
 Alpha HF Exchange    Energy =  -4.32729966374326
 Beta HF Exchange     Energy =  -4.32729966374326
 DFT Correlation      Energy =  -1.88032416241690
 DFT Exchange         Energy = -34.32811012273910
 One-Electron (alpha) Energy = -503.22391633068361
 One-Electron (beta)  Energy = -503.22391633068310
 Total Coulomb        Energy = 383.99435127777815
    5    -517.2990954510      3.13e-04  
 Alpha HF Exchange    Energy =  -4.32707739989982
 Beta HF Exchange     Energy =  -4.32707739989982
 DFT Correlation      Energy =  -1.88043161088631
 DFT Exchange         Energy = -34.32765872903973
 One-Electron (alpha) Energy = -503.20145240944174
 One-Electron (beta)  Energy = -503.20145240944180
 Total Coulomb        Energy = 383.94798290949137
    6    -517.2997475039      6.90e-05  
 Alpha HF Exchange    Energy =  -4.32684569492472
 Beta HF Exchange     Energy =  -4.32684569492471
 DFT Correlation      Energy =  -1.88032428814815
 DFT Exchange         Energy = -34.32555327728917
 One-Electron (alpha) Energy = -503.18063246371122
 One-Electron (beta)  Energy = -503.18063246371111
 Total Coulomb        Energy = 383.90364087667331
    7    -517.2997734608      1.32e-05  
 Alpha HF Exchange    Energy =  -4.32690419223602
 Beta HF Exchange     Energy =  -4.32690419223602
 DFT Correlation      Energy =  -1.88034900090624
 DFT Exchange         Energy = -34.32602957764099
 One-Electron (alpha) Energy = -503.18683356279644
 One-Electron (beta)  Energy = -503.18683356279638
 Total Coulomb        Energy = 383.91666002362763
    8    -517.2997745198      1.81e-06  
 Alpha HF Exchange    Energy =  -4.32690296219362
 Beta HF Exchange     Energy =  -4.32690296219361
 DFT Correlation      Energy =  -1.88034836857362
 DFT Exchange         Energy = -34.32601794627189
 One-Electron (alpha) Energy = -503.18645837294633
 One-Electron (beta)  Energy = -503.18645837294611
 Total Coulomb        Energy = 383.91589489776470
    9    -517.2997745422      4.85e-07  Convergence criterion met
 ---------------------------------------
 SCF time:   CPU 20.22s  wall 2.00s 
<S^2> =         -0.000000000
 Alpha HF Exchange    Energy =  -4.32690296219362
 Beta HF Exchange     Energy =  -4.32690296219361
 DFT Correlation      Energy =  -1.88034836857362
 DFT Exchange         Energy = -34.32601794627189
 One-Electron (alpha) Energy = -503.18645837294633
 One-Electron (beta)  Energy = -503.18645837294611
 Total Coulomb        Energy = 383.91589489776470
 Nuclear repulsion Energy = 150.01741954519090
 SCF   energy in the final basis set =     -517.2997745422
 Total energy in the final basis set =     -517.2997745422
 
 --------------------------------------------------------------
 
                    Orbital Energies (a.u.)
 --------------------------------------------------------------
 
 Alpha MOs
 -- Occupied --
-88.862 -10.250 -10.206 -10.196  -7.921  -5.886  -5.884  -5.876
 -0.805  -0.704  -0.667  -0.602  -0.486  -0.445  -0.414  -0.401
 -0.371  -0.365  -0.353  -0.275  -0.226
 -- Virtual --
 -0.063   0.061   0.094   0.125   0.129   0.143   0.166   0.169
  0.190   0.211   0.243   0.333   0.367   0.397   0.427   0.497
  0.516   0.523   0.561   0.563   0.629   0.663   0.686   0.705
  0.767   0.781   0.803   0.835   0.840   0.859   0.865   0.875
  0.909   0.913   0.937   0.982   1.106   1.145   1.278   1.320
  1.357   1.500   1.583   1.603   1.656   1.805   1.837   1.914
[...]
     0.140706    0.150964    0.160000    0.160753    0.164138    0.219438
     0.222934    0.257615    0.283753    0.313273    0.342269    0.342363
     0.342549    0.343400    0.343765    0.350211    0.350752

 Minimum Search - Taking Simple RFO Step
 Searching for Lamda that Minimizes Along All modes
 Value Taken    Lamda =   0.00000000
 Step Taken.  Stepsize is  0.003204

                             Maximum     Tolerance    Cnvgd?
         Gradient           0.000119      0.000300     YES
         Displacement       0.001517      0.001200      NO
         Energy change     -0.000001      0.000001      NO


 New Cartesian Coordinates Obtained by Inverse Iteration

 Displacement from previous Coordinates is:  0.004706
 ----------------------------------------------------------------
             Standard Nuclear Orientation (Angstroms)
    I     Atom           X                Y                Z
 ----------------------------------------------------------------
    1      S       2.5354526213     0.2910992621    -0.0075935730
    2      C      -0.6769033566     0.4674627060    -0.0081260802
    3      C       0.3265796059    -0.6474280419    -0.0143792286
    4      C      -2.1117309569    -0.1020848258     0.0188416501
    5      H      -0.5140968327     1.1071219129     0.8640491944
    6      H      -0.5497866364     1.0936035417    -0.8970442653
    7      H       0.4191617581    -1.2299566749     0.8986755479
    8      H       0.4010622043    -1.2494151712    -0.9161551930
    9      H      -2.2825775548    -0.7111645163     0.9123490076
   10      H      -2.8412596796     0.7137248613     0.0237663158
   11      H      -2.3116724838    -0.7264080609    -0.8580987675
   12      H       2.3183723113     0.8972440069    -1.1932826083
 ----------------------------------------------------------------
 Nuclear Repulsion Energy =   150.0133721926 hartrees
 There are       21 alpha and       21 beta electrons

                       Distance Matrix (Angstroms)
             S (  1)   C (  2)   C (  3)   C (  4)   H (  5)   H (  6)
   C (  2)  3.217194
   C (  3)  2.400000  1.500000
   C (  4)  4.663862  1.543970  2.498772
   H (  5)  3.274967  1.093782  2.134671  2.174624
   H (  6)  3.309658  1.094708  2.139698  2.169836  1.761507
   H (  7)  2.759279  2.214696  1.087005  2.907167  2.516765  3.092313
   H (  8)  2.784653  2.221305  1.086801  2.916285  3.091911  2.528679
   H (  9)  5.006420  2.194226  2.769583  1.094770  2.536932  3.087662
   H ( 10)  5.393388  2.178555  3.448101  1.094432  2.505299  2.498609
   H ( 11)  5.025266  2.195507  2.771006  1.094888  3.091748  2.533417
   H ( 12)  1.349220  3.249767  2.782636  4.700396  3.507071  2.890095
             H (  7)   H (  8)   H (  9)   H ( 10)   H ( 11)
   H (  8)  1.815025
   H (  9)  2.751132  3.291666
   H ( 10)  3.895345  3.905128  1.769750
   H ( 11)  3.285920  2.763302  1.770752  1.769783
   H ( 12)  3.536704  2.891543  5.309369  5.304403  4.917917
 
 Applying Cartesian multipole field
    Component          Value
    ---------          -----
     (2,0,0)        1.00000E-11
     (0,2,0)        2.00000E-10
     (0,0,2)       -3.00000E-10
 Nucleus-field energy     =     0.0000000083 hartrees
 Requested basis set is 6-31G(d,p)
 There are 41 shells and 104 basis functions
 A cutoff of  1.0D-14 yielded    817 shell pairs
 There are      5332 function pairs
 Smallest overlap matrix eigenvalue = 5.93E-03
 Guess from superposition of atomic densities
 Warning:  Energy on first SCF cycle will be non-variational
 SAD guess density has 42.000000 electrons

 -----------------------------------------------------------------------
  General SCF calculation program by
  Eric Jon Sundstrom, Paul Horn, Yuezhi Mao, Dmitri Zuev, Alec White,
  David Stuck, Shaama M.S., Shane Yost, Joonho Lee, David Small,
  Daniel Levine, Susi Lehtola, Hugh Burton, Evgeny Epifanovsky
 -----------------------------------------------------------------------
 Exchange:     0.2000 Hartree-Fock + 0.0800 Slater + 0.7200 B88
 Correlation:  0.1900 VWN1RPA + 0.8100 LYP
 Using SG-1 standard quadrature grid
 using 12 threads for integral computing
 -------------------------------------------------------
 OpenMP Integral computing Module                
 Release: version 1.0, May 2013, Q-Chem Inc. Pittsburgh 
 -------------------------------------------------------
 -------------------------------------------------------
 OpenMP BLAS3 based DFT computing Module                
 Release: version 1.0, May 2013, Q-Chem Inc. Pittsburgh 
 -------------------------------------------------------
 A unrestricted SCF calculation will be
 performed using DIIS
 SCF converges when DIIS error is below 1.0e-06
 Alpha HF Exchange    Energy =  -4.32928253786533
 Beta HF Exchange     Energy =  -4.32928253786533
 DFT Correlation      Energy =  -1.86469816524746
 DFT Exchange         Energy = -33.96144241633641
 One-Electron (alpha) Energy = -501.32370591295023
 One-Electron (beta)  Energy = -501.32370591295023
 Total Coulomb        Energy = 379.60970770518412
 ---------------------------------------
  Cycle       Energy         DIIS error
 ---------------------------------------
    1    -517.5090375770      2.85e-02  
 Alpha HF Exchange    Energy =  -4.35451556891301
 Beta HF Exchange     Energy =  -4.35451556891301
 DFT Correlation      Energy =  -1.89282999233861
 DFT Exchange         Energy = -34.56072112346045
 One-Electron (alpha) Energy = -504.90186097397861
 One-Electron (beta)  Energy = -504.90186097397878
 Total Coulomb        Energy = 387.72106300161715
    2    -517.2318689990      3.33e-03  
 Alpha HF Exchange    Energy =  -4.30181914158055
 Beta HF Exchange     Energy =  -4.30181914158056
 DFT Correlation      Energy =  -1.86769193396658
 DFT Exchange         Energy = -34.11419215403635
 One-Electron (alpha) Energy = -501.47166448511484
 One-Electron (beta)  Energy = -501.47166448511513
 Total Coulomb        Energy = 380.29593867746604
    3    -517.2195404629      3.69e-03  
 Alpha HF Exchange    Energy =  -4.32549077038319
 Beta HF Exchange     Energy =  -4.32549077038319
 DFT Correlation      Energy =  -1.88033037292118
 DFT Exchange         Energy = -34.31672318474882
 One-Electron (alpha) Energy = -503.07777298246526
 One-Electron (beta)  Energy = -503.07777298246486
 Total Coulomb        Energy = 383.69375684674611
    4    -517.2964520156      6.59e-04  
 Alpha HF Exchange    Energy =  -4.32729856560841
 Beta HF Exchange     Energy =  -4.32729856560841
 DFT Correlation      Energy =  -1.88032016878371
 DFT Exchange         Energy = -34.32809766797729
 One-Electron (alpha) Energy = -503.22004430498390
 One-Electron (beta)  Energy = -503.22004430498401
 Total Coulomb        Energy = 383.99063638330404
    5    -517.2990949937      3.13e-04  
 Alpha HF Exchange    Energy =  -4.32707571649000
 Beta HF Exchange     Energy =  -4.32707571649000
 DFT Correlation      Energy =  -1.88042770074672
 DFT Exchange         Energy = -34.32764312251491
 One-Electron (alpha) Energy = -503.19752402341999
 One-Electron (beta)  Energy = -503.19752402341982
 Total Coulomb        Energy = 383.94415033069947
    6    -517.2997477714      6.91e-05  
 Alpha HF Exchange    Energy =  -4.32684409184306
 Beta HF Exchange     Energy =  -4.32684409184307
 DFT Correlation      Energy =  -1.88032035646898
 DFT Exchange         Energy = -34.32553805354647
 One-Electron (alpha) Energy = -503.17671476146955
 One-Electron (beta)  Energy = -503.17671476147001
 Total Coulomb        Energy = 383.89983016361901
    7    -517.2997737520      1.31e-05  
 Alpha HF Exchange    Energy =  -4.32690258817008
 Beta HF Exchange     Energy =  -4.32690258817008
 DFT Correlation      Energy =  -1.88034507450994
 DFT Exchange         Energy = -34.32601436851719
 One-Electron (alpha) Energy = -503.18291506276455
 One-Electron (beta)  Energy = -503.18291506276449
 Total Coulomb        Energy = 383.91284773314931
    8    -517.2997748108      1.81e-06  
 Alpha HF Exchange    Energy =  -4.32690135911167
 Beta HF Exchange     Energy =  -4.32690135911168
 DFT Correlation      Energy =  -1.88034444187971
 DFT Exchange         Energy = -34.32600274347743
 One-Electron (alpha) Energy = -503.18253997502916
 One-Electron (beta)  Energy = -503.18253997502933
 Total Coulomb        Energy = 383.91208281951572
    9    -517.2997748331      4.84e-07  Convergence criterion met
 ---------------------------------------
 SCF time:   CPU 23.28s  wall 3.00s 
<S^2> =         -0.000000000
 Alpha HF Exchange    Energy =  -4.32690135911167
 Beta HF Exchange     Energy =  -4.32690135911168
 DFT Correlation      Energy =  -1.88034444187971
 DFT Exchange         Energy = -34.32600274347743
 One-Electron (alpha) Energy = -503.18253997502916
 One-Electron (beta)  Energy = -503.18253997502933
 Total Coulomb        Energy = 383.91208281951572
 Nuclear repulsion Energy = 150.01337220098526
 SCF   energy in the final basis set =     -517.2997748331
 Total energy in the final basis set =     -517.2997748331
 
 --------------------------------------------------------------
 
                    Orbital Energies (a.u.)
 --------------------------------------------------------------
 
 Alpha MOs
 -- Occupied --
-88.862 -10.250 -10.206 -10.196  -7.921  -5.886  -5.884  -5.876
 -0.805  -0.704  -0.667  -0.602  -0.486  -0.445  -0.414  -0.401
 -0.371  -0.365  -0.353  -0.275  -0.226
 -- Virtual --
 -0.063   0.061   0.094   0.126   0.129   0.143   0.166   0.169
  0.190   0.211   0.243   0.333   0.367   0.397   0.427   0.497
  0.516   0.523   0.561   0.563   0.629   0.663   0.686   0.705
  0.767   0.781   0.803   0.835   0.840   0.859   0.865   0.875
  0.908   0.913   0.936   0.982   1.106   1.145   1.278   1.320
  1.357   1.500   1.583   1.603   1.656   1.805   1.837   1.914
  1.989   2.035   2.037   2.052   2.100   2.104   2.113   2.126
  2.210   2.221   2.255   2.360   2.412   2.466   2.530   2.542
  2.667   2.722   2.732   2.752   2.806   2.819   2.864   2.900
  3.169   3.230   3.312   3.342   3.453   3.477   3.520   3.985
  4.250   4.437   4.606
 
 Beta MOs
 -- Occupied --
-88.862 -10.250 -10.206 -10.196  -7.921  -5.886  -5.884  -5.876
 -0.805  -0.704  -0.667  -0.602  -0.486  -0.445  -0.414  -0.401
 -0.371  -0.365  -0.353  -0.275  -0.226
 -- Virtual --
 -0.063   0.061   0.094   0.126   0.129   0.143   0.166   0.169
  0.190   0.211   0.243   0.333   0.367   0.397   0.427   0.497
  0.516   0.523   0.561   0.563   0.629   0.663   0.686   0.705
  0.767   0.781   0.803   0.835   0.840   0.859   0.865   0.875
  0.908   0.913   0.936   0.982   1.106   1.145   1.278   1.320
  1.357   1.500   1.583   1.603   1.656   1.805   1.837   1.914
  1.989   2.035   2.037   2.052   2.100   2.104   2.113   2.126
  2.210   2.221   2.255   2.360   2.412   2.466   2.530   2.542
  2.667   2.722   2.732   2.752   2.806   2.819   2.864   2.900
  3.169   3.230   3.312   3.342   3.453   3.477   3.520   3.985
  4.250   4.437   4.606
 --------------------------------------------------------------
 
          Ground-State Mulliken Net Atomic Charges

     Atom                 Charge (a.u.)    Spin (a.u.)
  --------------------------------------------------------
      1 S                    -0.235911       0.000000
      2 C                    -0.176121      -0.000000
      3 C                    -0.213716      -0.000000
      4 C                    -0.328516      -0.000000
      5 H                     0.133454      -0.000000
      6 H                     0.117058       0.000000
      7 H                     0.151670      -0.000000
      8 H                     0.151894      -0.000000
      9 H                     0.114192       0.000000
     10 H                     0.119879       0.000000
     11 H                     0.112239       0.000000
     12 H                     0.053879       0.000000
  --------------------------------------------------------
  Sum of atomic charges =    -0.000000
  Sum of spin   charges =    -0.000000

 -----------------------------------------------------------------
                    Cartesian Multipole Moments
 -----------------------------------------------------------------
    Charge (ESU x 10^10)
                -0.0000
    Dipole Moment (Debye)
         X      -3.1642      Y      -0.4231      Z      -0.7236
       Tot       3.2734
    Quadrupole Moments (Debye-Ang)
        XX     -41.8209     XY       0.1106     YY     -33.9524
        XZ      -1.6604     YZ      -1.7008     ZZ     -32.5995
    Octopole Moments (Debye-Ang^2)
       XXX     -75.1068    XXY       1.8744    XYY     -19.0939
       YYY      -8.1391    XXZ      -2.3700    XYZ      -4.3332
       YYZ      -0.2165    XZZ     -15.6132    YZZ      -2.8488
       ZZZ       2.0725
    Hexadecapole Moments (Debye-Ang^3)
      XXXX    -881.0985   XXXY     -16.9867   XXYY    -156.1575
      XYYY     -29.6758   YYYY    -101.9677   XXXZ       0.8931
      XXYZ     -10.2522   XYYZ      -0.3872   YYYZ       0.4421
      XXZZ    -143.7002   XYZZ      -7.3066   YYZZ     -24.5066
      XZZZ       5.6572   YZZZ       0.0603   ZZZZ     -62.7551
 -----------------------------------------------------------------
 Calculating analytic gradient of the SCF energy
 Gradient of SCF Energy
            1           2           3           4           5           6
    1   0.0459906   0.0000371  -0.0460138  -0.0000228  -0.0000131  -0.0000152
    2   0.0195236   0.0000168  -0.0195368  -0.0000143  -0.0000106  -0.0000023
    3   0.0001402  -0.0000071  -0.0001552  -0.0000042   0.0000059  -0.0000042
            7           8           9          10          11          12
    1   0.0000088   0.0000274  -0.0000004   0.0000026   0.0000110  -0.0000121
    2   0.0000184  -0.0000030  -0.0000074  -0.0000145  -0.0000162   0.0000462
    3   0.0000129   0.0000107  -0.0000042  -0.0000165  -0.0000056   0.0000273
 Max gradient component =       4.601E-02
 RMS gradient           =       1.178E-02
 Gradient time:  CPU 8.33 s  wall 0.70 s
 Geometry Optimization Parameters
   NAtoms,    NIC,     NZ,  NCons,   NDum,   NFix, NCnnct, MaxDiis
       12      75       0       1       0       0       0       0

 Cartesian Hessian Update
 Hessian Updated using BFGS Update


** CONSTRAINED OPTIMIZATION IN DELOCALIZED INTERNAL COORDINATES **
   Searching for a Minimum

   Optimization Cycle:   6

                       Coordinates (Angstroms)
     ATOM                X               Y               Z
      1  S         2.5354526213    0.2910992621   -0.0075935730
      2  C        -0.6769033566    0.4674627060   -0.0081260802
      3  C         0.3265796059   -0.6474280419   -0.0143792286
      4  C        -2.1117309569   -0.1020848258    0.0188416501
      5  H        -0.5140968327    1.1071219129    0.8640491944
      6  H        -0.5497866364    1.0936035417   -0.8970442653
      7  H         0.4191617581   -1.2299566749    0.8986755479
      8  H         0.4010622043   -1.2494151712   -0.9161551930
      9  H        -2.2825775548   -0.7111645163    0.9123490076
     10  H        -2.8412596796    0.7137248613    0.0237663158
     11  H        -2.3116724838   -0.7264080609   -0.8580987675
     12  H         2.3183723113    0.8972440069   -1.1932826083
   Point Group: c1    Number of degrees of freedom:    30


   Energy is   -517.299774833

              Constraints and their Current Values
                                        Value     Constraint
   Distance(Angs):        1   3             2.400000     2.400000
 Hessian Updated using BFGS Update

 29 Hessian modes will be used to form the next step
  Hessian Eigenvalues:
     0.022050    0.044978    0.045000    0.047054    0.069772    0.077392
     0.079372    0.082488    0.083318    0.100655    0.124936    0.130213
     0.141652    0.157588    0.160001    0.161307    0.163931    0.220103
     0.227757    0.257583    0.283947    0.314372    0.342267    0.342364
     0.342554    0.343523    0.343772    0.350219    0.350954

 Minimum Search - Taking Simple RFO Step
 Searching for Lamda that Minimizes Along All modes
 Value Taken    Lamda =   0.00000000
 Step Taken.  Stepsize is  0.001916

                             Maximum     Tolerance    Cnvgd?
         Gradient           0.000031      0.000300     YES
         Displacement       0.001191      0.001200     YES
         Energy change     -0.000000      0.000001     YES


                       Distance Matrix (Angstroms)
             S (  1)   C (  2)   C (  3)   C (  4)   H (  5)   H (  6)
   C (  2)  3.217194
   C (  3)  2.400000  1.500000
   C (  4)  4.663862  1.543970  2.498772
   H (  5)  3.274967  1.093782  2.134671  2.174624
   H (  6)  3.309658  1.094708  2.139698  2.169836  1.761507
   H (  7)  2.759279  2.214696  1.087005  2.907167  2.516765  3.092313
   H (  8)  2.784653  2.221305  1.086801  2.916285  3.091911  2.528679
   H (  9)  5.006420  2.194226  2.769583  1.094770  2.536932  3.087662
   H ( 10)  5.393388  2.178555  3.448101  1.094432  2.505299  2.498609
   H ( 11)  5.025266  2.195507  2.771006  1.094888  3.091748  2.533417
   H ( 12)  1.349220  3.249767  2.782636  4.700396  3.507071  2.890095
             H (  7)   H (  8)   H (  9)   H ( 10)   H ( 11)
   H (  8)  1.815025
   H (  9)  2.751132  3.291666
   H ( 10)  3.895345  3.905128  1.769750
   H ( 11)  3.285920  2.763302  1.770752  1.769783
   H ( 12)  3.536704  2.891543  5.309369  5.304403  4.917917
 
 Final energy is   -517.299774833138     


 ******************************
 **  OPTIMIZATION CONVERGED  **
 ******************************

                       Coordinates (Angstroms)
     ATOM                X               Y               Z
      1  S         2.5354526213    0.2910992621   -0.0075935730
      2  C        -0.6769033566    0.4674627060   -0.0081260802
      3  C         0.3265796059   -0.6474280419   -0.0143792286
      4  C        -2.1117309569   -0.1020848258    0.0188416501
      5  H        -0.5140968327    1.1071219129    0.8640491944
      6  H        -0.5497866364    1.0936035417   -0.8970442653
      7  H         0.4191617581   -1.2299566749    0.8986755479
      8  H         0.4010622043   -1.2494151712   -0.9161551930
      9  H        -2.2825775548   -0.7111645163    0.9123490076
     10  H        -2.8412596796    0.7137248613    0.0237663158
     11  H        -2.3116724838   -0.7264080609   -0.8580987675
     12  H         2.3183723113    0.8972440069   -1.1932826083

Z-matrix Print:
$molecule
0 1
S 
H  1 1.349220
C  1 2.400000 2 91.439300
H  3 1.086801 1 98.967674 2 61.364660 0
H  3 1.087005 1 97.400390 2 176.390124 0
C  3 1.500000 1 108.968420 2 -61.848010 0
H  6 1.093782 3 109.780415 1 -57.515220 0
H  6 1.094708 3 110.124155 1 60.290160 0
C  6 1.543970 3 110.340194 1 -178.767784 0
H  9 1.094432 6 110.155344 3 179.976431 0
H  9 1.094770 6 111.377532 3 60.314114 0
H  9 1.094888 6 111.472804 3 -60.306648 0
$end

PES scan, value:    2.4000 energy: -517.2997748331
------- Summary of potential scan: ------ 
    2.4000      -517.2997748331
----------------------------------------- 
Archival summary:
1\1\hpc0250\JobtypUnspecified\ProcedureUnspecified\6-31G**\138\knomura\WedMar1319:23:142019WedMar1319:23:142019\0\\#,JobtypUnspecified,ProcedureUnspecified,6-31G**,\\0,1\S\H,1,1.34922\C,1,2.4,2,91.4393\H,3,1.0868,1,98.9677,2,61.3647,0\H,3,1.08701,1,97.4004,2,176.39,0\C,3,1.5,1,108.968,2,-61.848,0\H,6,1.09378,3,109.78,1,-57.5152,0\H,6,1.09471,3,110.124,1,60.2902,0\C,6,1.54397,3,110.34,1,-178.768,0\H,9,1.09443,6,110.155,3,179.976,0\H,9,1.09477,6,111.378,3,60.3141,0\H,9,1.09489,6,111.473,3,-60.3066,0\\\@

 Total job time:  18.06s(wall), 201.15s(cpu) 
 Wed Mar 13 19:23:14 2019

        *************************************************************
        *                                                           *
        *  Thank you very much for using Q-Chem.  Have a nice day.  *
        *                                                           *
        *************************************************************


