
Running Job 1 of 1 thiol/02/C-S.xyz.data/inputs/bond_triplet_2.8.in
qchem thiol/02/C-S.xyz.data/inputs/bond_triplet_2.8.in_22163.0 /staging/scratch/2868767/qchem22163/ 1
/usr/usc/qchem/5.1.1/exe/qcprog.exe_s thiol/02/C-S.xyz.data/inputs/bond_triplet_2.8.in_22163.0 /staging/scratch/2868767/qchem22163/
Check license passed

                  Welcome to Q-Chem
     A Quantum Leap Into The Future Of Chemistry


 Q-Chem 5.1, Q-Chem, Inc., Pleasanton, CA (2018)

 Yihan Shao,  Zhengting Gan,  E. Epifanovsky,  A. T. B. Gilbert,  M. Wormit,  
 J. Kussmann,  A. W. Lange,  A. Behn,  Jia Deng,  Xintian Feng,  D. Ghosh,  
 M. Goldey,  P. R. Horn,  L. D. Jacobson,  I. Kaliman,  T. Kus,  A. Landau,  
 Jie Liu,  E. I. Proynov,  R. M. Richard,  R. P. Steele,  E. J. Sundstrom,  
 H. L. Woodcock III,  P. M. Zimmerman,  D. Zuev,  B. Albrecht,  E. Alguire,  
 S. A. Baeppler,  D. Barton,  Z. Benda,  Y. A. Bernard,  E. J. Berquist,  
 K. B. Bravaya,  H. Burton,  D. Casanova,  Chun-Min Chang,  Yunqing Chen,  
 A. Chien,  K. D. Closser,  M. P. Coons,  S. Coriani,  S. Dasgupta,  
 A. L. Dempwolff,  M. Diedenhofen,  Hainam Do,  R. G. Edgar,  Po-Tung Fang,  
 S. Faraji,  S. Fatehi,  Qingguo Feng,  K. D. Fenk,  J. Fosso-Tande,  
 Qinghui Ge,  A. Ghysels,  G. Gidofalvi,  J. Gomes,  J. Gonthier,  A. Gunina,  
 D. Hait,  M. W. D. Hanson-Heine,  P. H. P. Harbach,  A. W. Hauser,  
 J. E. Herr,  E. G. Hohenstein,  Z. C. Holden,  Kerwin Hui,  B. C. Huynh,  
 T.-C. Jagau,  Hyunjun Ji,  B. Kaduk,  K. Khistyaev,  Jaehoon Kim,  
 P. Klunzinger,  K. Koh,  D. Kosenkov,  L. Koulias,  T. Kowalczyk,  
 C. M. Krauter,  A. Kunitsa,  Ka Un Lao,  A. Laurent,  K. V. Lawler,  
 Joonho Lee,  D. Lefrancois,  S. Lehtola,  D. S. Levine,  Yi-Pei Li,  
 You-Sheng Lin,  Fenglai Liu,  E. Livshits,  A. Luenser,  P. Manohar,  
 E. Mansoor,  S. F. Manzer,  Shan-Ping Mao,  Yuezhi Mao,  N. Mardirossian,  
 A. V. Marenich,  T. Markovich,  L. A. Martinez-Martinez,  S. A. Maurer,  
 N. J. Mayhall,  S. C. McKenzie,  J.-M. Mewes,  A. F. Morrison,  
 J. W. Mullinax,  K. Nanda,  T. S. Nguyen-Beck,  R. Olivares-Amaya,  
 J. A. Parkhill,  T. M. Perrine,  F. Plasser,  P. Pokhilko,  S. Prager,  
 A. Prociuk,  E. Ramos,  D. R. Rehn,  F. Rob,  M. Schneider,  N. Sergueev,  
 S. M. Sharada,  S. Sharma,  D. W. Small,  T. Stauch,  T. Stein,  
 Yu-Chuan Su,  A. J. W. Thom,  A. Tkatchenko,  T. Tsuchimochi,  N. M. Tubman,  
 L. Vogt,  M. L. Vidal,  O. Vydrov,  M. A. Watson,  J. Wenzel,  
 M. de Wergifosse,  T. A. Wesolowski,  A. White,  J. Witte,  A. Yamada,  
 Jun Yang,  K. Yao,  S. Yeganeh,  S. R. Yost,  Zhi-Qiang You,  A. Zech,  
 Igor Ying Zhang,  Xing Zhang,  Yan Zhao,  Ying Zhu,  B. R. Brooks,  
 G. K. L. Chan,  C. J. Cramer,  M. S. Gordon,  W. J. Hehre,  A. Klamt,  
 M. W. Schmidt,  C. D. Sherrill,  D. G. Truhlar,  A. Aspuru-Guzik,  R. Baer,  
 A. T. Bell,  N. A. Besley,  Jeng-Da Chai,  A. E. DePrince, III,  
 R. A. DiStasio Jr.,  A. Dreuw,  B. D. Dunietz,  T. R. Furlani,  
 Chao-Ping Hsu,  Yousung Jung,  Jing Kong,  D. S. Lambrecht,  WanZhen Liang,  
 C. Ochsenfeld,  V. A. Rassolov,  L. V. Slipchenko,  J. E. Subotnik,  
 T. Van Voorhis,  J. M. Herbert,  A. I. Krylov,  P. M. W. Gill,  M. Head-Gordon

 Contributors to earlier versions of Q-Chem not listed above: 
 R. D. Adamson,  B. Austin,  J. Baker,  G. J. O. Beran,  K. Brandhorst,  
 S. T. Brown,  E. F. C. Byrd,  A. K. Chakraborty,  C.-L. Cheng,  
 Siu Hung Chien,  D. M. Chipman,  D. L. Crittenden,  H. Dachsel,  
 R. J. Doerksen,  A. D. Dutoi,  L. Fusti-Molnar,  W. A. Goddard III,  
 A. Golubeva-Zadorozhnaya,  S. R. Gwaltney,  G. Hawkins,  A. Heyden,  
 S. Hirata,  G. Kedziora,  F. J. Keil,  C. Kelley,  Jihan Kim,  R. A. King,  
 R. Z. Khaliullin,  P. P. Korambath,  W. Kurlancheek,  A. M. Lee,  M. S. Lee,  
 S. V. Levchenko,  Ching Yeh Lin,  D. Liotard,  R. C. Lochan,  I. Lotan,  
 P. E. Maslen,  N. Nair,  D. P. O'Neill,  D. Neuhauser,  E. Neuscamman,  
 C. M. Oana,  R. Olson,  B. Peters,  R. Peverati,  P. A. Pieniazek,  
 Y. M. Rhee,  J. Ritchie,  M. A. Rohrdanz,  E. Rosta,  N. J. Russ,  
 H. F. Schaefer III,  N. E. Schultz,  N. Shenvi,  A. C. Simmonett,  A. Sodt,  
 D. Stuck,  K. S. Thanthiriwatte,  V. Vanovschi,  Tao Wang,  A. Warshel,  
 C. F. Williams,  Q. Wu,  X. Xu,  W. Zhang

 Please cite Q-Chem as follows:
 Y. Shao et al., Mol. Phys. 113, 184-215 (2015)
 DOI: 10.1080/00268976.2014.952696

 Q-Chem 5.1.1 for Intel X86 EM64T Linux

 Parts of Q-Chem use Armadillo 8.300.2 (Tropical Shenanigans).
 http://arma.sourceforge.net/

 Q-Chem begins on Wed Mar 13 21:32:22 2019  

Host: 
0

     Scratch files written to /staging/scratch/2868767/qchem22163//
 Aug318 |scratch|qcdevops|jenkins|workspace|build_RNUM 6013   
Processing $rem in /usr/usc/qchem/5.1.1/config/preferences.
 MEM_TOTAL  2000 
Input Ideriv = 2
Curr. Ideriv = -1
Max.  Ideriv = 2

Checking the input file for inconsistencies... 	...done.

--------------------------------------------------------------
User input:
--------------------------------------------------------------

$comment
potential surface scanner
$end

$rem
JOBTYPE  PES_SCAN
UNRESTRICTED TRUE
SYM_IGNORE  TRUE
GEOM_OPT_MAX_CYCLES 400
SCF_MAX_CYCLES 400
METHOD   B3LYP
BASIS   6-31G**
PDB_PRINT 2
SCF_CONVERGENCE 6
THRESH 14
SCF_PRINT 1
$end
$molecule
0 3
S 3.074208 -1.154639 -0.811981
C -0.850440 0.675469 0.155061
C 0.537837 0.096713 -0.170936
C -1.980428 -0.338326 -0.037609
H -0.853360 1.041127 1.189649
H -1.030796 1.552818 -0.479313
H 0.750539 -0.760637 0.478833
H 0.566393 -0.248872 -1.210173
H -1.852141 -1.206451 0.619121
H -2.956944 0.104552 0.184365
H -2.008765 -0.707634 -1.069102
H 1.316503 0.849678 -0.024909
$end
$scan
stre 1 3 2.800000 2.801000 0.100000
$end
--------------------------------------------------------------
 ----------------------------------------------------------------
             Standard Nuclear Orientation (Angstroms)
    I     Atom           X                Y                Z
 ----------------------------------------------------------------
    1      S       3.0742080000    -1.1546390000    -0.8119810000
    2      C      -0.8504400000     0.6754690000     0.1550610000
    3      C       0.5378370000     0.0967130000    -0.1709360000
    4      C      -1.9804280000    -0.3383260000    -0.0376090000
    5      H      -0.8533600000     1.0411270000     1.1896490000
    6      H      -1.0307960000     1.5528180000    -0.4793130000
    7      H       0.7505390000    -0.7606370000     0.4788330000
    8      H       0.5663930000    -0.2488720000    -1.2101730000
    9      H      -1.8521410000    -1.2064510000     0.6191210000
   10      H      -2.9569440000     0.1045520000     0.1843650000
   11      H      -2.0087650000    -0.7076340000    -1.0691020000
   12      H       1.3165030000     0.8496780000    -0.0249090000
 ----------------------------------------------------------------
 Nuclear Repulsion Energy =   138.4765024375 hartrees
 There are       22 alpha and       20 beta electrons
 Requested basis set is 6-31G(d,p)
 There are 41 shells and 104 basis functions

 Total QAlloc Memory Limit   2000 MB
 Mega-Array Size       188 MB
 MEM_STATIC part       192 MB
A total of 1 constraints
  
            1
    1   1.0100000
    2   1.0100000
    3   3.0100000
    4   2.8000000
    5   2.8010000
    6   0.1000000
    7   0.0000000
    8   0.0000000
    9   0.0000000
   10   0.0000000

                       Distance Matrix (Angstroms)
             S (  1)   C (  2)   C (  3)   C (  4)   H (  5)   H (  6)
   C (  2)  4.437040
   C (  3)  2.900000  1.539008
   C (  4)  5.178355  1.530286  2.559042
   H (  5)  4.924805  1.097309  2.162993  2.163177
   H (  6)  4.928697  1.097588  2.162394  2.161788  1.754635
   H (  7)  2.687169  2.174940  1.096581  2.811270  2.514777  3.072991
   H (  8)  2.695943  2.173864  1.095563  2.805210  3.072286  2.516199
   H (  9)  5.130268  2.181829  2.834505  1.096081  2.524811  3.081352
   H ( 10)  6.241239  2.182697  3.512804  1.094987  2.512535  2.499598
   H ( 11)  5.109064  2.180199  2.817598  1.095979  3.081409  2.532571
   H ( 12)  2.779622  2.181371  1.092978  3.504464  2.494015  2.492128
             H (  7)   H (  8)   H (  9)   H ( 10)   H ( 11)
   H (  8)  1.774417
   H (  9)  2.644310  3.180028
   H ( 10)  3.818467  3.805726  1.768709
   H ( 11)  3.164280  2.619504  1.767327  1.769144
   H ( 12)  1.779659  1.781664  3.831807  4.342966  3.817456
 
 A cutoff of  1.0D-14 yielded    813 shell pairs
 There are      5223 function pairs
 
 -------------------------------------------------------
 OpenMP Integral Computing Module                       
 Release: version 1.0, May 2013, Q-Chem Inc. Pittsburgh 
 -------------------------------------------------------
 Integral Job Info:
 Integral job number is                      11
 Integral operator is                         1
 short-range coefficients                     0
 long-range coefficients              100000000
 Omega coefficients                           0
 if combine SR and LR in K                    0
 Integral screening is                        0
 Integral computing path is                   2
 max size of driver memory is            800000
 size of driver memory is                593474
 size of scratch memory is             15267112
 max col of scratch BK array               1296
 max len of scratch array in speh3          155
 max len of scratch index in speh4           18
 max int batch size is                      520
 min int batch size is                       52
 fixed nKL is                                52
 max L of basis functions is                  2
 order of int derivative is                   0
 number of shells is                         41
 number of basis is                         104
 number of cartesian basis is               104
 number of contracted shell pairs           813
 number of primitive shell pairs           2883
 maxK2 (contraction) of shell pair           36
 max number of K2 of shell pair               1
 max number of CS2 of shell pair             74
 max number of PS2 of shell pair            246
 mem total for path MDJ                  513036
 -------------------------------------------------------
 Smallest overlap matrix eigenvalue = 5.39E-03

 Scale SEOQF with 1.000000e-01/1.000000e-01/1.000000e+00

 Standard Electronic Orientation quadrupole field applied
 Nucleus-field energy     =    -0.0000000074 hartrees
 Guess from superposition of atomic densities
 Warning:  Energy on first SCF cycle will be non-variational
 SAD guess density has 42.000000 electrons

 -----------------------------------------------------------------------
  General SCF calculation program by
  Eric Jon Sundstrom, Paul Horn, Yuezhi Mao, Dmitri Zuev, Alec White,
  David Stuck, Shaama M.S., Shane Yost, Joonho Lee, David Small,
  Daniel Levine, Susi Lehtola, Hugh Burton, Evgeny Epifanovsky
 -----------------------------------------------------------------------
 Exchange:     0.2000 Hartree-Fock + 0.0800 Slater + 0.7200 B88
 Correlation:  0.1900 VWN1RPA + 0.8100 LYP
 Using SG-1 standard quadrature grid
 using 12 threads for integral computing
 -------------------------------------------------------
 OpenMP Integral computing Module                
 Release: version 1.0, May 2013, Q-Chem Inc. Pittsburgh 
 -------------------------------------------------------
 -------------------------------------------------------
 OpenMP BLAS3 based DFT computing Module                
 Release: version 1.0, May 2013, Q-Chem Inc. Pittsburgh 
 -------------------------------------------------------
 A unrestricted SCF calculation will be
 performed using DIIS
 SCF converges when DIIS error is below 1.0e-06
 Alpha HF Exchange    Energy =  -4.32648312735069
 Beta HF Exchange     Energy =  -4.32648312735069
 DFT Correlation      Energy =  -1.86135269327301
 DFT Exchange         Energy = -33.95021269742463
 One-Electron (alpha) Energy = -489.79982562959981
 One-Electron (beta)  Energy = -489.79982562959981
 Total Coulomb        Energy = 368.14529253488115
 ---------------------------------------
  Cycle       Energy         DIIS error
 ---------------------------------------
    1    -517.4423879397      2.82e-02  
 Alpha HF Exchange    Energy =  -4.45737390047277
 Beta HF Exchange     Energy =  -4.27459429221073
 DFT Correlation      Energy =  -1.87693485809959
 DFT Exchange         Energy = -34.61324804396151
 One-Electron (alpha) Energy = -505.24493974757672
 One-Electron (beta)  Energy = -480.91292575247485
 Total Coulomb        Energy = 375.74812234067355
    2    -517.1553918241      4.09e-03  
 Alpha HF Exchange    Energy =  -4.40650616505283
 Beta HF Exchange     Energy =  -4.20509891670032
 DFT Correlation      Energy =  -1.85070280373226
 DFT Exchange         Energy = -34.12843370830554
 One-Electron (alpha) Energy = -502.14235594066122
 One-Electron (beta)  Energy = -477.37150726154221
 Total Coulomb        Energy = 368.53195743195420
    3    -517.0961449340      5.07e-03  
 Alpha HF Exchange    Energy =  -4.43221493686798
 Beta HF Exchange     Energy =  -4.24307810740653
 DFT Correlation      Energy =  -1.86326582127120
 DFT Exchange         Energy = -34.37383967990737
 One-Electron (alpha) Energy = -503.87112536319472
 One-Electron (beta)  Energy = -479.16663902036572
 Total Coulomb        Energy = 372.21898299822362
    4    -517.2546775008      4.83e-04  
 Alpha HF Exchange    Energy =  -4.43456700984987
 Beta HF Exchange     Energy =  -4.24339492828857
 DFT Correlation      Energy =  -1.86354033520160
 DFT Exchange         Energy = -34.38446537263202
 One-Electron (alpha) Energy = -503.98456797998188
 One-Electron (beta)  Energy = -479.16794387134217
 Total Coulomb        Energy = 372.34604008750415
    5    -517.2559369798      1.91e-04  
 Alpha HF Exchange    Energy =  -4.43443536715263
 Beta HF Exchange     Energy =  -4.24318923233166
 DFT Correlation      Energy =  -1.86334378937442
 DFT Exchange         Energy = -34.38268152796689
 One-Electron (alpha) Energy = -503.98446385084418
 One-Electron (beta)  Energy = -479.14770117051324
 Total Coulomb        Energy = 372.32318432992122
    6    -517.2561281783      5.74e-05  
 Alpha HF Exchange    Energy =  -4.43419828435260
 Beta HF Exchange     Energy =  -4.24302009861560
 DFT Correlation      Energy =  -1.86324569037238
 DFT Exchange         Energy = -34.38091098301634
 One-Electron (alpha) Energy = -503.97109193642558
 One-Electron (beta)  Energy = -479.13287036297061
 Total Coulomb        Energy = 372.29268786899013
    7    -517.2561470568      7.30e-06  
 Alpha HF Exchange    Energy =  -4.43428603511397
 Beta HF Exchange     Energy =  -4.24307335862351
 DFT Correlation      Energy =  -1.86325969759301
 DFT Exchange         Energy = -34.38143835099620
 One-Electron (alpha) Energy = -503.97684709624815
 One-Electron (beta)  Energy = -479.13484451641369
 Total Coulomb        Energy = 372.30109909209580
    8    -517.2561475329      2.21e-06  
 Alpha HF Exchange    Energy =  -4.43427820452854
 Beta HF Exchange     Energy =  -4.24307021700657
 DFT Correlation      Energy =  -1.86325570771428
 DFT Exchange         Energy = -34.38138643506518
 One-Electron (alpha) Energy = -503.97637538174325
 One-Electron (beta)  Energy = -479.13420211645462
 Total Coulomb        Energy = 372.29991804296543
    9    -517.2561475895      1.18e-06  
 Alpha HF Exchange    Energy =  -4.43427654787107
 Beta HF Exchange     Energy =  -4.24306934170422
 DFT Correlation      Energy =  -1.86325473962899
 DFT Exchange         Energy = -34.38137474992966
 One-Electron (alpha) Energy = -503.97629413751952
 One-Electron (beta)  Energy = -479.13407730802157
 Total Coulomb        Energy = 372.29969677966949
   10    -517.2561476150      5.32e-07  Convergence criterion met
 ---------------------------------------
 SCF time:   CPU 24.39s  wall 2.00s 
<S^2> =          2.002359861
 Alpha HF Exchange    Energy =  -4.43427654787107
 Beta HF Exchange     Energy =  -4.24306934170422
 DFT Correlation      Energy =  -1.86325473962899
 DFT Exchange         Energy = -34.38137474992966
 One-Electron (alpha) Energy = -503.97629413751952
 One-Electron (beta)  Energy = -479.13407730802157
 Total Coulomb        Energy = 372.29969677966949
 Nuclear repulsion Energy = 138.47650243000572
 SCF   energy in the final basis set =     -517.2561476150
 Total energy in the final basis set =     -517.2561476150
 
 --------------------------------------------------------------
 
                    Orbital Energies (a.u.)
 --------------------------------------------------------------
 
 Alpha MOs
 -- Occupied --
-88.919 -10.187 -10.181 -10.175  -7.979  -5.948  -5.948  -5.929
 -0.783  -0.715  -0.682  -0.588  -0.460  -0.440  -0.405  -0.387
 -0.350  -0.343  -0.335  -0.317  -0.300  -0.272
 -- Virtual --
  0.089   0.142   0.145   0.146   0.166   0.184   0.189   0.191
  0.220   0.255   0.292   0.347   0.370   0.405   0.503   0.527
  0.536   0.556   0.565   0.641   0.680   0.687   0.705   0.723
  0.734   0.737   0.762   0.844   0.855   0.872   0.906   0.907
  0.928   0.935   0.950   0.976   1.065   1.298   1.304   1.371
  1.530   1.557   1.662   1.689   1.837   1.852   1.930   2.037
  2.047   2.062   2.078   2.098   2.105   2.110   2.244   2.265
  2.291   2.332   2.419   2.464   2.532   2.649   2.695   2.710
  2.733   2.806   2.864   2.901   2.902   2.907   3.152   3.222
  3.308   3.332   3.420   3.476   3.495   3.562   3.848   4.291
  4.489   4.634
 
 Beta MOs
 -- Occupied --
-88.908 -10.186 -10.180 -10.175  -7.968  -5.927  -5.927  -5.923
 -0.782  -0.686  -0.621  -0.584  -0.459  -0.439  -0.401  -0.385
 -0.342  -0.339  -0.331  -0.246
 -- Virtual --
 -0.165  -0.156   0.089   0.143   0.145   0.147   0.168   0.185
  0.190   0.192   0.224   0.258   0.319   0.380   0.389   0.438
  0.504   0.531   0.537   0.568   0.591   0.655   0.686   0.701
  0.749   0.784   0.787   0.799   0.804   0.851   0.858   0.874
  0.909   0.914   0.938   0.942   0.957   0.981   1.079   1.299
  1.305   1.371   1.531   1.558   1.662   1.690   1.838   1.853
  1.932   2.038   2.048   2.062   2.079   2.099   2.105   2.110
  2.245   2.266   2.292   2.333   2.420   2.464   2.533   2.650
  2.695   2.711   2.734   2.807   2.865   2.902   2.903   2.908
  3.153   3.223   3.308   3.333   3.421   3.476   3.496   3.562
  3.883   4.292   4.490   4.635
 --------------------------------------------------------------
 
          Ground-State Mulliken Net Atomic Charges

     Atom                 Charge (a.u.)    Spin (a.u.)
  --------------------------------------------------------
      1 S                    -0.036217       1.951375
      2 C                    -0.183560       0.025505
      3 C                    -0.338829       0.022082
      4 C                    -0.311125      -0.000467
      5 H                     0.100111       0.000786
      6 H                     0.100048       0.001087
      7 H                     0.115302      -0.000615
      8 H                     0.118401      -0.000537
      9 H                     0.104079       0.000234
     10 H                     0.103037       0.001024
     11 H                     0.104232       0.000237
     12 H                     0.124522      -0.000710
  --------------------------------------------------------
  Sum of atomic charges =     0.000000
  Sum of spin   charges =     2.000000

 -----------------------------------------------------------------
                    Cartesian Multipole Moments
 -----------------------------------------------------------------
    Charge (ESU x 10^10)
                 0.0000
    Dipole Moment (Debye)
         X      -0.6784      Y       0.3499      Z       0.1728
       Tot       0.7826
    Quadrupole Moments (Debye-Ang)
        XX     -36.3381     XY      -0.1741     YY     -35.4945
        XZ       0.1644     YZ      -1.1506     ZZ     -33.6481
    Octopole Moments (Debye-Ang^2)
       XXX     -75.5829    XXY       9.7211    XYY     -24.7532
       YYY      40.9161    XXZ      10.2548    XYZ      -2.0045
       YYZ      14.3295    XZZ     -21.7958    YZZ      13.0109
       ZZZ      31.5406
    Hexadecapole Moments (Debye-Ang^3)
      XXXX   -1029.2379   XXXY     106.9055   XXYY    -200.2174
      XYYY     139.0396   YYYY    -202.2812   XXXZ      90.1875
      XXYZ     -15.0458   XYYZ      40.2940   YYYZ     -47.9911
      XXZZ    -181.4311   XYZZ      45.3793   YYZZ     -53.7697
      XZZZ      95.7531   YZZZ     -39.4726   ZZZZ    -109.2012
 -----------------------------------------------------------------
 Calculating analytic gradient of the SCF energy
 Gradient of SCF Energy
            1           2           3           4           5           6
    1  -0.0085930  -0.0000052   0.0085150  -0.0000036   0.0000217  -0.0000386
    2   0.0042618   0.0000387  -0.0043115  -0.0000283   0.0000129  -0.0000216
    3   0.0021829  -0.0000134  -0.0022426   0.0000395  -0.0000137  -0.0000212
            7           8           9          10          11          12
    1  -0.0000091   0.0000227  -0.0000024  -0.0000037   0.0000215   0.0000747
    2   0.0000331   0.0000214   0.0000138  -0.0000067  -0.0000392   0.0000257
    3   0.0000095   0.0000064   0.0000306  -0.0000312   0.0000114   0.0000419
 Max gradient component =       8.593E-03
 RMS gradient           =       2.315E-03
 Gradient time:  CPU 7.97 s  wall 0.68 s
 Geometry Optimization Parameters
   NAtoms,    NIC,     NZ,  NCons,   NDum,   NFix, NCnnct, MaxDiis
       12     114       0       1       0       0       0       0


** CONSTRAINED OPTIMIZATION IN DELOCALIZED INTERNAL COORDINATES **
   Searching for a Minimum

   Optimization Cycle:   1

                       Coordinates (Angstroms)
     ATOM                X               Y               Z
      1  S         3.0742080000   -1.1546390000   -0.8119810000
      2  C        -0.8504400000    0.6754690000    0.1550610000
      3  C         0.5378370000    0.0967130000   -0.1709360000
      4  C        -1.9804280000   -0.3383260000   -0.0376090000
      5  H        -0.8533600000    1.0411270000    1.1896490000
      6  H        -1.0307960000    1.5528180000   -0.4793130000
      7  H         0.7505390000   -0.7606370000    0.4788330000
      8  H         0.5663930000   -0.2488720000   -1.2101730000
      9  H        -1.8521410000   -1.2064510000    0.6191210000
     10  H        -2.9569440000    0.1045520000    0.1843650000
     11  H        -2.0087650000   -0.7076340000   -1.0691020000
     12  H         1.3165030000    0.8496780000   -0.0249090000
   Point Group: c1    Number of degrees of freedom:    30


   Energy is   -517.256147615

              Constraints and their Current Values
                                        Value     Constraint
   Distance(Angs):        1   3             2.900000     2.800000

 Attempting to Generate Delocalized Internal Coordinates

   Using Lagrange Multiplier Algorithm


 31 Hessian modes will be used to form the next step
  Hessian Eigenvalues:
    -0.986117    0.045000    0.045055    0.055224    0.056278    0.061558
     0.068239    0.076164    0.076785    0.077285    0.082430    0.082690
     0.096473    0.124343    0.128438    0.132538    0.160000    0.160000
     0.160000    0.218516    0.285980    0.293970    0.294189    0.296064
     0.313888    0.339502    0.339815    0.341193    0.341308    0.342426
     1.014078

 Minimum Search - Taking P-RFO Step
 Searching for Lamda that Maximizes Along the Constraint modes Only
 Value Taken    Lamda =   0.01988936
 Searching for Lamda that Minimizes Along All other modes
 Value Taken    Lamda =  -0.01534667
 Step Taken.  Stepsize is  0.185669

                             Maximum     Tolerance    Cnvgd?
         Gradient            0.188972       0.000300      NO
         Displacement        0.185665       0.001200      NO
         Energy change     *********       0.000001      NO


 New Cartesian Coordinates Obtained by Inverse Iteration

 Displacement from previous Coordinates is:  0.185140
 ----------------------------------------------------------------
             Standard Nuclear Orientation (Angstroms)
    I     Atom           X                Y                Z
 ----------------------------------------------------------------
    1      S       2.9991844154    -1.1289236189    -0.7962435155
    2      C      -0.8340115610     0.6692384693     0.1514755772
    3      C       0.5526856649     0.0871771508    -0.1753202994
    4      C      -1.9665644340    -0.3418594456    -0.0401616096
    5      H      -0.8354098611     1.0351795603     1.1859667118
    6      H      -1.0126984287     1.5468498305    -0.4830225538
    7      H       0.7328369399    -0.7585160609     0.4851375189
    8      H       0.5479742531    -0.2450062227    -1.2107989082
    9      H      -1.8398156692    -1.2102357845     0.6165410222
   10      H      -2.9418105770     0.1033986283     0.1826419865
   11      H      -1.9966980466    -0.7111987301    -1.0715873149
   12      H       1.3069333044     0.8576942234    -0.0216226154
 ----------------------------------------------------------------
 Nuclear Repulsion Energy =   140.0399626666 hartrees
 There are       22 alpha and       20 beta electrons

                       Distance Matrix (Angstroms)
             S (  1)   C (  2)   C (  3)   C (  4)   H (  5)   H (  6)
   C (  2)  4.338773
   C (  3)  2.801750  1.539000
   C (  4)  5.084269  1.530268  2.559094
   H (  5)  4.828728  1.097309  2.163012  2.163131
   H (  6)  4.832502  1.097597  2.162349  2.161761  1.754640
   H (  7)  2.629728  2.145886  1.088051  2.781422  2.483526  3.049416
   H (  8)  2.638484  2.145115  1.087467  2.775370  3.049117  2.485177
   H (  9)  5.041676  2.181823  2.834499  1.096084  2.524870  3.081345
   H ( 10)  6.145914  2.182650  3.512820  1.094989  2.512330  2.499627
   H ( 11)  5.020871  2.180213  2.817810  1.095974  3.081392  2.532478
   H ( 12)  2.722205  2.156183  1.089132  3.486411  2.465645  2.463436
             H (  7)   H (  8)   H (  9)   H ( 10)   H ( 11)
   H (  8)  1.781591
   H (  9)  2.615312  3.157908
   H ( 10)  3.786481  3.773813  1.768699
   H ( 11)  3.142609  2.590767  1.767322  1.769152
   H ( 12)  1.788443  1.790561  3.819112  4.320013  3.804975
 
 Applying Cartesian multipole field
    Component          Value
    ---------          -----
     (2,0,0)        1.00000E-11
     (0,2,0)        2.00000E-11
     (0,0,2)       -3.00000E-10
 Nucleus-field energy     =    -0.0000000074 hartrees
 Requested basis set is 6-31G(d,p)
 There are 41 shells and 104 basis functions
 A cutoff of  1.0D-14 yielded    814 shell pairs
 There are      5227 function pairs
 Smallest overlap matrix eigenvalue = 5.25E-03
 Guess from superposition of atomic densities
 Warning:  Energy on first SCF cycle will be non-variational
 SAD guess density has 42.000000 electrons

 -----------------------------------------------------------------------
  General SCF calculation program by
  Eric Jon Sundstrom, Paul Horn, Yuezhi Mao, Dmitri Zuev, Alec White,
  David Stuck, Shaama M.S., Shane Yost, Joonho Lee, David Small,
  Daniel Levine, Susi Lehtola, Hugh Burton, Evgeny Epifanovsky
 -----------------------------------------------------------------------
 Exchange:     0.2000 Hartree-Fock + 0.0800 Slater + 0.7200 B88
 Correlation:  0.1900 VWN1RPA + 0.8100 LYP
 Using SG-1 standard quadrature grid
 using 12 threads for integral computing
 -------------------------------------------------------
 OpenMP Integral computing Module                
 Release: version 1.0, May 2013, Q-Chem Inc. Pittsburgh 
 -------------------------------------------------------
 -------------------------------------------------------
 OpenMP BLAS3 based DFT computing Module                
 Release: version 1.0, May 2013, Q-Chem Inc. Pittsburgh 
 -------------------------------------------------------
 A unrestricted SCF calculation will be
 performed using DIIS
 SCF converges when DIIS error is below 1.0e-06
 Alpha HF Exchange    Energy =  -4.32923133195991
 Beta HF Exchange     Energy =  -4.32923133195991
 DFT Correlation      Energy =  -1.86258030070834
 DFT Exchange         Energy = -33.95547279865721
 One-Electron (alpha) Energy = -491.35220070368331
 One-Electron (beta)  Energy = -491.35220070368331
 Total Coulomb        Energy = 369.67918388508292
 ---------------------------------------
  Cycle       Energy         DIIS error
 ---------------------------------------
    1    -517.4617706263      2.84e-02  
 Alpha HF Exchange    Energy =  -4.45916359710293
 Beta HF Exchange     Energy =  -4.27511806463935
 DFT Correlation      Energy =  -1.87838203817717
 DFT Exchange         Energy = -34.62276061124572
 One-Electron (alpha) Energy = -506.92197433341585
 One-Electron (beta)  Energy = -482.40302652971718
 Total Coulomb        Energy = 377.36769242137854
    2    -517.1527700937      4.10e-03  
 Alpha HF Exchange    Energy =  -4.40793123367920
 Beta HF Exchange     Energy =  -4.20542912128262
 DFT Correlation      Energy =  -1.85222765824189
 DFT Exchange         Energy = -34.13580565807982
 One-Electron (alpha) Energy = -503.78910954468495
 One-Electron (beta)  Energy = -478.85488349939209
 Total Coulomb        Energy = 370.11271336536510
    3    -517.0927106908      5.09e-03  
 Alpha HF Exchange    Energy =  -4.43353703917245
 Beta HF Exchange     Energy =  -4.24345302842375
 DFT Correlation      Energy =  -1.86461827370536
 DFT Exchange         Energy = -34.38074373502962
 One-Electron (alpha) Energy = -505.51278635135009
 One-Electron (beta)  Energy = -480.63742074057967
 Total Coulomb        Energy = 373.78060803564108
    4    -517.2519884734      5.08e-04  
 Alpha HF Exchange    Energy =  -4.43609052394601
 Beta HF Exchange     Energy =  -4.24377711943294
 DFT Correlation      Energy =  -1.86497234453645
 DFT Exchange         Energy = -34.39238917890503
 One-Electron (alpha) Energy = -505.64062961943591
 One-Electron (beta)  Energy = -480.64730978028848
 Total Coulomb        Energy = 373.93179118057071
    5    -517.2534147267      1.91e-04  
 Alpha HF Exchange    Energy =  -4.43595646016621
 Beta HF Exchange     Energy =  -4.24356734846007
 DFT Correlation      Energy =  -1.86476070492733
 DFT Exchange         Energy = -34.39052594812965
 One-Electron (alpha) Energy = -505.64002591469233
 One-Electron (beta)  Energy = -480.62498289022551
 Total Coulomb        Energy = 373.90625108786088
    6    -517.2536055195      5.99e-05  
 Alpha HF Exchange    Energy =  -4.43570484618362
 Beta HF Exchange     Energy =  -4.24339480772346
 DFT Correlation      Energy =  -1.86465482576481
 DFT Exchange         Energy = -34.38866225404972
 One-Electron (alpha) Energy = -505.62558086969085
 One-Electron (beta)  Energy = -480.60906200467394
 Total Coulomb        Energy = 373.87347084581404
    7    -517.2536261030      7.68e-06  
 Alpha HF Exchange    Energy =  -4.43579735522393
 Beta HF Exchange     Energy =  -4.24344976885414
 DFT Correlation      Energy =  -1.86466885179481
 DFT Exchange         Energy = -34.38921144381541
 One-Electron (alpha) Energy = -505.63175582604657
 One-Electron (beta)  Energy = -480.61112333184940
 Total Coulomb        Energy = 373.88241728223204
    8    -517.2536266361      2.07e-06  
 Alpha HF Exchange    Energy =  -4.43578795047026
 Beta HF Exchange     Energy =  -4.24344626522545
 DFT Correlation      Energy =  -1.86466399285343
 DFT Exchange         Energy = -34.38914981109806
 One-Electron (alpha) Energy = -505.63116095885039
 One-Electron (beta)  Energy = -480.61034845644002
 Total Coulomb        Energy = 373.88096808961700
    9    -517.2536266861      1.01e-06  
 Alpha HF Exchange    Energy =  -4.43578709379514
 Beta HF Exchange     Energy =  -4.24344580065387
 DFT Correlation      Energy =  -1.86466330111431
 DFT Exchange         Energy = -34.38914320496595
 One-Electron (alpha) Energy = -505.63114132780834
 One-Electron (beta)  Energy = -480.61027374121238
 Total Coulomb        Energy = 373.88086510629142
   10    -517.2536267040      4.90e-07  Convergence criterion met
 ---------------------------------------
 SCF time:   CPU 22.67s  wall 2.00s 
<S^2> =          2.002412975
 Alpha HF Exchange    Energy =  -4.43578709379514
 Beta HF Exchange     Energy =  -4.24344580065387
 DFT Correlation      Energy =  -1.86466330111431
 DFT Exchange         Energy = -34.38914320496595
 One-Electron (alpha) Energy = -505.63114132780834
 One-Electron (beta)  Energy = -480.61027374121238
 Total Coulomb        Energy = 373.88086510629142
 Nuclear repulsion Energy = 140.03996265924164
 SCF   energy in the final basis set =     -517.2536267040
 Total energy in the final basis set =     -517.2536267040
 
 --------------------------------------------------------------
 
                    Orbital Energies (a.u.)
 --------------------------------------------------------------
 
 Alpha MOs
 -- Occupied --
-88.915 -10.187 -10.181 -10.176  -7.975  -5.945  -5.944  -5.925
 -0.786  -0.714  -0.683  -0.589  -0.463  -0.443  -0.407  -0.391
 -0.351  -0.345  -0.336  -0.314  -0.293  -0.269
 -- Virtual --
  0.086   0.142   0.144   0.146   0.167   0.183   0.190   0.191
  0.221   0.253   0.295   0.349   0.372   0.406   0.502   0.526
  0.536   0.551   0.561   0.646   0.682   0.683   0.710   0.718
  0.736   0.740   0.766   0.847   0.854   0.873   0.905   0.910
  0.937   0.941   0.954   0.976   1.081   1.295   1.301   1.375
  1.532   1.559   1.664   1.692   1.839   1.858   1.934   2.030
  2.046   2.063   2.074   2.088   2.102   2.110   2.249   2.272
  2.299   2.339   2.424   2.472   2.541   2.658   2.672   2.704
  2.737   2.808   2.869   2.903   2.908   2.915   3.160   3.239
  3.310   3.330   3.420   3.475   3.495   3.568   3.851   4.292
  4.491   4.636
 
 Beta MOs
 -- Occupied --
-88.905 -10.187 -10.180 -10.176  -7.964  -5.924  -5.923  -5.919
 -0.784  -0.688  -0.620  -0.583  -0.462  -0.441  -0.403  -0.388
 -0.344  -0.338  -0.333  -0.243
 -- Virtual --
 -0.163  -0.151   0.087   0.143   0.144   0.147   0.168   0.184
  0.191   0.192   0.225   0.257   0.322   0.382   0.391   0.441
  0.503   0.530   0.538   0.565   0.586   0.658   0.690   0.696
  0.739   0.788   0.790   0.804   0.809   0.852   0.857   0.875
  0.908   0.916   0.943   0.949   0.966   0.982   1.099   1.296
  1.303   1.376   1.533   1.560   1.665   1.693   1.841   1.859
  1.936   2.031   2.046   2.064   2.075   2.089   2.102   2.110
  2.249   2.272   2.300   2.340   2.425   2.473   2.543   2.659
  2.673   2.704   2.738   2.809   2.869   2.904   2.909   2.916
  3.161   3.240   3.310   3.331   3.421   3.475   3.496   3.569
  3.886   4.293   4.491   4.637
 --------------------------------------------------------------
 
          Ground-State Mulliken Net Atomic Charges

     Atom                 Charge (a.u.)    Spin (a.u.)
  --------------------------------------------------------
      1 S                    -0.043992       1.939623
      2 C                    -0.187362       0.032257
      3 C                    -0.344972       0.023455
      4 C                    -0.311528      -0.000584
      5 H                     0.099981       0.000916
      6 H                     0.099939       0.001250
      7 H                     0.121424       0.000611
      8 H                     0.124388       0.000619
      9 H                     0.104006       0.000282
     10 H                     0.103805       0.001241
     11 H                     0.104144       0.000289
     12 H                     0.130168       0.000040
  --------------------------------------------------------
  Sum of atomic charges =    -0.000000
  Sum of spin   charges =     2.000000

 -----------------------------------------------------------------
                    Cartesian Multipole Moments
 -----------------------------------------------------------------
    Charge (ESU x 10^10)
                -0.0000
    Dipole Moment (Debye)
         X      -0.8191      Y       0.4167      Z       0.2080
       Tot       0.9422
    Quadrupole Moments (Debye-Ang)
        XX     -36.8967     XY       0.0832     YY     -35.5505
        XZ       0.3472     YZ      -1.1944     ZZ     -33.5832
    Octopole Moments (Debye-Ang^2)
       XXX     -75.6122    XXY      10.3195    XYY     -24.3203
       YYY      40.4660    XXZ      10.7818    XYZ      -2.0694
       YYZ      14.1797    XZZ     -21.2493    YZZ      12.7542
       ZZZ      31.0813
    Hexadecapole Moments (Debye-Ang^3)
      XXXX    -999.1559   XXXY     103.9957   XXYY    -194.3726
      XYYY     133.0216   YYYY    -197.6887   XXXZ      88.7457
      XXYZ     -14.8825   XYYZ      38.7251   YYYZ     -46.3162
      XXZZ    -175.7008   XYZZ      43.1837   YYZZ     -52.4895
      XZZZ      91.8098   YZZZ     -37.9393   ZZZZ    -107.1107
 -----------------------------------------------------------------
 Calculating analytic gradient of the SCF energy
 Gradient of SCF Energy
            1           2           3           4           5           6
    1  -0.0114809   0.0031182   0.0183197  -0.0000374   0.0001625   0.0001145
    2   0.0057317  -0.0012852  -0.0120365  -0.0002585  -0.0000445  -0.0000984
    3   0.0029403  -0.0007538  -0.0053452  -0.0000356  -0.0000814  -0.0000331
            7           8           9          10          11          12
    1  -0.0038543  -0.0030482   0.0000280   0.0000154   0.0000553  -0.0033928
    2   0.0044008   0.0026306   0.0000715   0.0000426  -0.0000008   0.0008469
    3  -0.0013471   0.0039869   0.0000061  -0.0000160   0.0000705   0.0006085
 Max gradient component =       1.832E-02
 RMS gradient           =       4.640E-03
 Gradient time:  CPU 8.02 s  wall 0.68 s
 Geometry Optimization Parameters
   NAtoms,    NIC,     NZ,  NCons,   NDum,   NFix, NCnnct, MaxDiis
       12     114       0       1       0       0       0       0

 Cartesian Hessian Update
 Hessian Updated using BFGS Update


** CONSTRAINED OPTIMIZATION IN DELOCALIZED INTERNAL COORDINATES **
   Searching for a Minimum

   Optimization Cycle:   2

                       Coordinates (Angstroms)
     ATOM                X               Y               Z
      1  S         2.9991844154   -1.1289236189   -0.7962435155
      2  C        -0.8340115610    0.6692384693    0.1514755772
      3  C         0.5526856649    0.0871771508   -0.1753202994
      4  C        -1.9665644340   -0.3418594456   -0.0401616096
      5  H        -0.8354098611    1.0351795603    1.1859667118
      6  H        -1.0126984287    1.5468498305   -0.4830225538
      7  H         0.7328369399   -0.7585160609    0.4851375189
      8  H         0.5479742531   -0.2450062227   -1.2107989082
      9  H        -1.8398156692   -1.2102357845    0.6165410222
     10  H        -2.9418105770    0.1033986283    0.1826419865
     11  H        -1.9966980466   -0.7111987301   -1.0715873149
     12  H         1.3069333044    0.8576942234   -0.0216226154
   Point Group: c1    Number of degrees of freedom:    30


   Energy is   -517.253626704

              Constraints and their Current Values
                                        Value     Constraint
   Distance(Angs):        1   3             2.801750     2.800000
 Hessian Updated using BFGS Update

   Using Lagrange Multiplier Algorithm


 30 Hessian modes will be used to form the next step
  Hessian Eigenvalues:
    -0.980533    0.044999    0.045054    0.055225    0.056278    0.061559
     0.068239    0.076628    0.076785    0.082430    0.082690    0.084532
     0.096517    0.124343    0.128459    0.132539    0.160000    0.160006
     0.218520    0.289510    0.293970    0.294348    0.299349    0.339485
     0.339800    0.341184    0.341294    0.342426    0.348739    1.022164

 Minimum Search - Taking P-RFO Step
 Searching for Lamda that Maximizes Along the Constraint modes Only
 Value Taken    Lamda =   0.00001867
 Searching for Lamda that Minimizes Along All other modes
 Value Taken    Lamda =  -0.00029457
 Step Taken.  Stepsize is  0.043162

                             Maximum     Tolerance    Cnvgd?
         Gradient            0.004807       0.000300      NO
         Displacement        0.036196       0.001200      NO
         Energy change      0.002521       0.000001      NO


 New Cartesian Coordinates Obtained by Inverse Iteration

 Displacement from previous Coordinates is:  0.039382
 ----------------------------------------------------------------
             Standard Nuclear Orientation (Angstroms)
    I     Atom           X                Y                Z
 ----------------------------------------------------------------
    1      S       3.0005580663    -1.1261129182    -0.7955966862
    2      C      -0.8378743754     0.6705726867     0.1523654260
    3      C       0.5545478380     0.0873112633    -0.1754054173
    4      C      -1.9701654042    -0.3406843188    -0.0394843021
    5      H      -0.8404660234     1.0366942757     1.1868978657
    6      H      -1.0175468059     1.5481568939    -0.4820894273
    7      H       0.7426433983    -0.7638964876     0.4853726339
    8      H       0.5564849630    -0.2490880991    -1.2152561354
    9      H      -1.8434705995    -1.2093111063     0.6170118267
   10      H      -2.9456048868     0.1041285994     0.1833479840
   11      H      -2.0004018282    -0.7099246535    -1.0710319507
   12      H       1.3139016578     0.8559518644    -0.0231258172
 ----------------------------------------------------------------
 Nuclear Repulsion Energy =   139.8904571227 hartrees
 There are       22 alpha and       20 beta electrons

                       Distance Matrix (Angstroms)
             S (  1)   C (  2)   C (  3)   C (  4)   H (  5)   H (  6)
   C (  2)  4.342842
   C (  3)  2.800000  1.544819
   C (  4)  5.088880  1.530206  2.564338
   H (  5)  4.833372  1.097410  2.168701  2.162731
   H (  6)  4.836856  1.097711  2.167858  2.161273  1.754557
   H (  7)  2.621118  2.160239  1.093875  2.795338  2.498099  3.062653
   H (  8)  2.630357  2.158797  1.092913  2.788331  3.061871  2.499040
   H (  9)  5.046484  2.181991  2.838952  1.096153  2.524941  3.081202
   H ( 10)  6.150502  2.182738  3.518530  1.094986  2.511653  2.499086
   H ( 11)  5.025801  2.180354  2.822322  1.096058  3.081295  2.532151
   H ( 12)  2.714793  2.166865  1.091153  3.495326  2.477524  2.474964
             H (  7)   H (  8)   H (  9)   H ( 10)   H ( 11)
   H (  8)  1.786567
   H (  9)  2.627491  3.168441
   H ( 10)  3.801034  3.787544  1.768584
   H ( 11)  3.154299  2.602084  1.767344  1.769056
   H ( 12)  1.791317  1.793312  3.826759  4.330273  3.812438
 
 Applying Cartesian multipole field
    Component          Value
    ---------          -----
     (2,0,0)        1.00000E-11
     (0,2,0)        2.00000E-11
     (0,0,2)       -3.00000E-10
 Nucleus-field energy     =    -0.0000000074 hartrees
 Requested basis set is 6-31G(d,p)
 There are 41 shells and 104 basis functions
 A cutoff of  1.0D-14 yielded    814 shell pairs
 There are      5227 function pairs
 Smallest overlap matrix eigenvalue = 5.32E-03
 Guess from superposition of atomic densities
 Warning:  Energy on first SCF cycle will be non-variational
 SAD guess density has 42.000000 electrons

 -----------------------------------------------------------------------
  General SCF calculation program by
  Eric Jon Sundstrom, Paul Horn, Yuezhi Mao, Dmitri Zuev, Alec White,
  David Stuck, Shaama M.S., Shane Yost, Joonho Lee, David Small,
  Daniel Levine, Susi Lehtola, Hugh Burton, Evgeny Epifanovsky
 -----------------------------------------------------------------------
 Exchange:     0.2000 Hartree-Fock + 0.0800 Slater + 0.7200 B88
 Correlation:  0.1900 VWN1RPA + 0.8100 LYP
 Using SG-1 standard quadrature grid
 using 12 threads for integral computing
 -------------------------------------------------------
 OpenMP Integral computing Module                
 Release: version 1.0, May 2013, Q-Chem Inc. Pittsburgh 
 -------------------------------------------------------
 -------------------------------------------------------
 OpenMP BLAS3 based DFT computing Module                
 Release: version 1.0, May 2013, Q-Chem Inc. Pittsburgh 
 -------------------------------------------------------
 A unrestricted SCF calculation will be
 performed using DIIS
 SCF converges when DIIS error is below 1.0e-06
 Alpha HF Exchange    Energy =  -4.32771792447312
 Beta HF Exchange     Energy =  -4.32771792447312
 DFT Correlation      Energy =  -1.86227525852415
 DFT Exchange         Energy = -33.95245184569210
 One-Electron (alpha) Energy = -491.21194552384054
 One-Electron (beta)  Energy = -491.21194552384054
 Total Coulomb        Energy = 369.55332743819639
 ---------------------------------------
  Cycle       Energy         DIIS error
 ---------------------------------------
    1    -517.4502694473      2.83e-02  
 Alpha HF Exchange    Energy =  -4.45821235492066
 Beta HF Exchange     Energy =  -4.27407266656969
 DFT Correlation      Energy =  -1.87798131837313
 DFT Exchange         Energy = -34.61561014805628
 One-Electron (alpha) Energy = -506.76470336118985
 One-Electron (beta)  Energy = -482.24476171816730
 Total Coulomb        Energy = 377.19082184018572
    2    -517.1540626117      4.07e-03  
 Alpha HF Exchange    Energy =  -4.40738244202016
 Beta HF Exchange     Energy =  -4.20499871183379
 DFT Correlation      Energy =  -1.85193877047930
 DFT Exchange         Energy = -34.13220537094958
 One-Electron (alpha) Energy = -503.65581090770638
 One-Electron (beta)  Energy = -478.72346716572372
 Total Coulomb        Energy = 369.99031584964717
    3    -517.0950304037      5.05e-03  
 Alpha HF Exchange    Energy =  -4.43282135598597
 Beta HF Exchange     Energy =  -4.24266385096494
 DFT Correlation      Energy =  -1.86428486264717
 DFT Exchange         Energy = -34.37542884498707
 One-Electron (alpha) Energy = -505.36899522338047
 One-Electron (beta)  Energy = -480.49138824531730
 Total Coulomb        Energy = 373.63295660341157
    4    -517.2521686645      5.03e-04  
 Alpha HF Exchange    Energy =  -4.43534336832539
 Beta HF Exchange     Energy =  -4.24297090126889
 DFT Correlation      Energy =  -1.86462802153580
 DFT Exchange         Energy = -34.38686897817157
 One-Electron (alpha) Energy = -505.49479964543815
 One-Electron (beta)  Energy = -480.50023648037268
 Total Coulomb        Energy = 373.78082116442533
    5    -517.2535691153      1.90e-04  
 Alpha HF Exchange    Energy =  -4.43521392179384
 Beta HF Exchange     Energy =  -4.24277013740676
 DFT Correlation      Energy =  -1.86441889378678
 DFT Exchange         Energy = -34.38506019159472
 One-Electron (alpha) Energy = -505.49438607446342
 One-Electron (beta)  Energy = -480.47819395835864
 Total Coulomb        Energy = 373.75582794554845
    6    -517.2537581165      5.94e-05  
 Alpha HF Exchange    Energy =  -4.43496640881692
 Beta HF Exchange     Energy =  -4.24259899456466
 DFT Correlation      Energy =  -1.86431394716784
 DFT Exchange         Energy = -34.38321829064760
 One-Electron (alpha) Energy = -505.48021051576143
 One-Electron (beta)  Energy = -480.46238799597148
 Total Coulomb        Energy = 373.72346065694632
    7    -517.2537783806      7.63e-06  
 Alpha HF Exchange    Energy =  -4.43505858047676
 Beta HF Exchange     Energy =  -4.24265338830484
 DFT Correlation      Energy =  -1.86432799170870
 DFT Exchange         Energy = -34.38376455124354
 One-Electron (alpha) Energy = -505.48636884898241
 One-Electron (beta)  Energy = -480.46443321788246
 Total Coulomb        Energy = 373.73237055308857
    8    -517.2537789102      2.07e-06  
 Alpha HF Exchange    Energy =  -4.43504919860052
 Beta HF Exchange     Energy =  -4.24264978557728
 DFT Correlation      Energy =  -1.86432310977288
 DFT Exchange         Energy = -34.38370261045764
 One-Electron (alpha) Energy = -505.48577580656149
 One-Electron (beta)  Energy = -480.46365328281291
 Total Coulomb        Energy = 373.73091771534689
    9    -517.2537789631      1.03e-06  
 Alpha HF Exchange    Energy =  -4.43504837803939
 Beta HF Exchange     Energy =  -4.24264932758143
 DFT Correlation      Energy =  -1.86432243271127
 DFT Exchange         Energy = -34.38369621128658
 One-Electron (alpha) Energy = -505.48575795824530
 One-Electron (beta)  Energy = -480.46357779658427
 Total Coulomb        Energy = 373.73081600609601
   10    -517.2537789830      5.11e-07  Convergence criterion met
 ---------------------------------------
 SCF time:   CPU 22.75s  wall 2.00s 
<S^2> =          2.002418759
 Alpha HF Exchange    Energy =  -4.43504837803939
 Beta HF Exchange     Energy =  -4.24264932758143
 DFT Correlation      Energy =  -1.86432243271127
 DFT Exchange         Energy = -34.38369621128658
 One-Electron (alpha) Energy = -505.48575795824530
 One-Electron (beta)  Energy = -480.46357779658427
 Total Coulomb        Energy = 373.73081600609601
 Nuclear repulsion Energy = 139.89045711535559
 SCF   energy in the final basis set =     -517.2537789830
 Total energy in the final basis set =     -517.2537789830
 
 --------------------------------------------------------------
 
                    Orbital Energies (a.u.)
 --------------------------------------------------------------
 
 Alpha MOs
 -- Occupied --
-88.915 -10.188 -10.183 -10.176  -7.975  -5.945  -5.944  -5.925
 -0.785  -0.715  -0.682  -0.589  -0.462  -0.442  -0.407  -0.390
 -0.351  -0.345  -0.336  -0.314  -0.293  -0.269
 -- Virtual --
  0.086   0.141   0.144   0.145   0.166   0.182   0.189   0.191
  0.220   0.252   0.295   0.349   0.372   0.406   0.501   0.526
  0.535   0.552   0.562   0.644   0.682   0.683   0.709   0.718
  0.736   0.740   0.766   0.846   0.854   0.872   0.906   0.910
  0.937   0.939   0.954   0.975   1.081   1.296   1.302   1.372
  1.530   1.558   1.663   1.690   1.835   1.855   1.930   2.030
  2.044   2.060   2.074   2.087   2.102   2.110   2.247   2.269
  2.295   2.336   2.421   2.470   2.538   2.654   2.674   2.702
  2.735   2.806   2.865   2.900   2.902   2.909   3.155   3.230
  3.308   3.328   3.418   3.471   3.492   3.563   3.851   4.290
  4.489   4.633
 
 Beta MOs
 -- Occupied --
-88.904 -10.187 -10.182 -10.176  -7.964  -5.924  -5.923  -5.919
 -0.783  -0.688  -0.620  -0.583  -0.461  -0.440  -0.403  -0.388
 -0.344  -0.338  -0.333  -0.243
 -- Virtual --
 -0.162  -0.151   0.087   0.142   0.144   0.146   0.168   0.183
  0.190   0.191   0.225   0.256   0.322   0.382   0.391   0.441
  0.503   0.530   0.537   0.565   0.586   0.656   0.688   0.696
  0.740   0.787   0.789   0.803   0.809   0.850   0.857   0.875
  0.909   0.916   0.942   0.947   0.964   0.981   1.099   1.297
  1.303   1.373   1.531   1.558   1.664   1.691   1.837   1.856
  1.932   2.031   2.045   2.061   2.074   2.088   2.103   2.110
  2.247   2.270   2.296   2.337   2.422   2.470   2.539   2.654
  2.675   2.703   2.736   2.806   2.866   2.901   2.903   2.910
  3.156   3.231   3.308   3.329   3.419   3.471   3.493   3.564
  3.886   4.291   4.490   4.634
 --------------------------------------------------------------
 
          Ground-State Mulliken Net Atomic Charges

     Atom                 Charge (a.u.)    Spin (a.u.)
  --------------------------------------------------------
      1 S                    -0.044475       1.938847
      2 C                    -0.186694       0.032660
      3 C                    -0.345807       0.024214
      4 C                    -0.311353      -0.000618
      5 H                     0.100446       0.000932
      6 H                     0.100406       0.001248
      7 H                     0.120904       0.000471
      8 H                     0.123740       0.000493
      9 H                     0.104213       0.000288
     10 H                     0.103816       0.001256
     11 H                     0.104316       0.000296
     12 H                     0.130488      -0.000087
  --------------------------------------------------------
  Sum of atomic charges =    -0.000000
  Sum of spin   charges =     2.000000

 -----------------------------------------------------------------
                    Cartesian Multipole Moments
 -----------------------------------------------------------------
    Charge (ESU x 10^10)
                -0.0000
    Dipole Moment (Debye)
         X      -0.8277      Y       0.4205      Z       0.2102
       Tot       0.9519
    Quadrupole Moments (Debye-Ang)
        XX     -36.8874     XY       0.0700     YY     -35.5870
        XZ       0.3599     YZ      -1.1702     ZZ     -33.5807
    Octopole Moments (Debye-Ang^2)
       XXX     -75.6693    XXY      10.2897    XYY     -24.4391
       YYY      40.4331    XXZ      10.8894    XYZ      -2.0398
       YYZ      14.1468    XZZ     -21.2246    YZZ      12.6561
       ZZZ      31.0041
    Hexadecapole Moments (Debye-Ang^3)
      XXXX   -1000.9188   XXXY     103.8251   XXYY    -194.8874
      XYYY     133.1473   YYYY    -197.5434   XXXZ      89.3149
      XXYZ     -14.7997   XYYZ      38.7069   YYYZ     -46.1757
      XXZZ    -175.9831   XYZZ      42.9952   YYZZ     -52.3400
      XZZZ      91.7560   YZZZ     -37.7018   ZZZZ    -107.0175
 -----------------------------------------------------------------
 Calculating analytic gradient of the SCF energy
 Gradient of SCF Energy
            1           2           3           4           5           6
    1  -0.0116712   0.0006625   0.0179161  -0.0002157  -0.0001763  -0.0002284
    2   0.0058266  -0.0001270  -0.0096530   0.0000591   0.0000868   0.0000479
    3   0.0029935  -0.0001292  -0.0048081   0.0000786   0.0000231   0.0000073
            7           8           9          10          11          12
    1  -0.0023154  -0.0021733   0.0000200  -0.0000161   0.0000424  -0.0018445
    2   0.0013302   0.0012470   0.0000152  -0.0000420  -0.0000326   0.0012418
    3   0.0005142   0.0007270   0.0000381  -0.0000349   0.0000022   0.0005881
 Max gradient component =       1.792E-02
 RMS gradient           =       4.205E-03
 Gradient time:  CPU 8.17 s  wall 0.69 s
 Geometry Optimization Parameters
   NAtoms,    NIC,     NZ,  NCons,   NDum,   NFix, NCnnct, MaxDiis
       12     114       0       1       0       0       0       0

 Cartesian Hessian Update
 Hessian Updated using BFGS Update


** CONSTRAINED OPTIMIZATION IN DELOCALIZED INTERNAL COORDINATES **
   Searching for a Minimum

   Optimization Cycle:   3

                       Coordinates (Angstroms)
     ATOM                X               Y               Z
      1  S         3.0005580663   -1.1261129182   -0.7955966862
      2  C        -0.8378743754    0.6705726867    0.1523654260
      3  C         0.5545478380    0.0873112633   -0.1754054173
      4  C        -1.9701654042   -0.3406843188   -0.0394843021
      5  H        -0.8404660234    1.0366942757    1.1868978657
      6  H        -1.0175468059    1.5481568939   -0.4820894273
      7  H         0.7426433983   -0.7638964876    0.4853726339
      8  H         0.5564849630   -0.2490880991   -1.2152561354
      9  H        -1.8434705995   -1.2093111063    0.6170118267
     10  H        -2.9456048868    0.1041285994    0.1833479840
     11  H        -2.0004018282   -0.7099246535   -1.0710319507
     12  H         1.3139016578    0.8559518644   -0.0231258172
   Point Group: c1    Number of degrees of freedom:    30


   Energy is   -517.253778983

              Constraints and their Current Values
                                        Value     Constraint
   Distance(Angs):        1   3             2.800000     2.800000
 Hessian Updated using BFGS Update

 29 Hessian modes will be used to form the next step
  Hessian Eigenvalues:
     0.043083    0.045020    0.045431    0.055261    0.056279    0.061561
     0.068244    0.076683    0.076786    0.082430    0.082694    0.097375
     0.124343    0.128497    0.132532    0.159981    0.160000    0.160051
     0.218552    0.289765    0.293909    0.294398    0.301994    0.339216
     0.339713    0.341175    0.341289    0.342425    0.387821

 Minimum Search - Taking Simple RFO Step
 Searching for Lamda that Minimizes Along All modes
 Value Taken    Lamda =  -0.00017700
 Step Taken.  Stepsize is  0.062697

                             Maximum     Tolerance    Cnvgd?
         Gradient           0.002651      0.000300      NO
         Displacement       0.060096      0.001200      NO
         Energy change     -0.000152      0.000001      NO


 New Cartesian Coordinates Obtained by Inverse Iteration

 Displacement from previous Coordinates is:  0.033877
 ----------------------------------------------------------------
             Standard Nuclear Orientation (Angstroms)
    I     Atom           X                Y                Z
 ----------------------------------------------------------------
    1      S       2.9986484923    -1.1227845942    -0.7943978082
    2      C      -0.8417259019     0.6718684079     0.1533047296
    3      C       0.5518893213     0.0892191047    -0.1743832241
    4      C      -1.9727163139    -0.3402116240    -0.0391642178
    5      H      -0.8428914695     1.0378364644     1.1877249362
    6      H      -1.0196451945     1.5491723225    -0.4817692042
    7      H       0.7518736543    -0.7667928766     0.4831359795
    8      H       0.5648172187    -0.2529196623    -1.2161743275
    9      H      -1.8459481415    -1.2091134212     0.6169304691
   10      H      -2.9481834543     0.1044568499     0.1839267950
   11      H      -2.0030741498    -0.7090960080    -1.0708227628
   12      H       1.3195619387     0.8521630368    -0.0253053649
 ----------------------------------------------------------------
 Nuclear Repulsion Energy =   139.8635550191 hartrees
 There are       22 alpha and       20 beta electrons

                       Distance Matrix (Angstroms)
             S (  1)   C (  2)   C (  3)   C (  4)   H (  5)   H (  6)
   C (  2)  4.343661
   C (  3)  2.800000  1.545646
   C (  4)  5.088936  1.529866  2.564435
   H (  5)  4.832652  1.097251  2.168093  2.163511
   H (  6)  4.835677  1.097559  2.166950  2.161947  1.754969
   H (  7)  2.608988  2.172118  1.097762  2.806806  2.509265  3.071322
   H (  8)  2.618796  2.170039  1.096611  2.798580  3.070249  2.509464
   H (  9)  5.046723  2.182087  2.839273  1.096139  2.526007  3.081892
   H ( 10)  6.150451  2.181755  3.518398  1.095005  2.512183  2.499923
   H ( 11)  5.026408  2.180431  2.822897  1.096046  3.082018  2.532566
   H ( 12)  2.703933  2.176137  1.092533  3.501578  2.486387  2.483158
             H (  7)   H (  8)   H (  9)   H ( 10)   H ( 11)
   H (  8)  1.785136
   H (  9)  2.638603  3.175904
   H ( 10)  3.813007  3.798575  1.768582
   H ( 11)  3.163519  2.612143  1.767263  1.769038
   H ( 12)  1.789358  1.791373  3.831681  4.337798  3.817139
 
 Applying Cartesian multipole field
    Component          Value
    ---------          -----
     (2,0,0)        1.00000E-11
     (0,2,0)        2.00000E-11
     (0,0,2)       -3.00000E-10
 Nucleus-field energy     =    -0.0000000073 hartrees
 Requested basis set is 6-31G(d,p)
 There are 41 shells and 104 basis functions
 A cutoff of  1.0D-14 yielded    814 shell pairs
 There are      5227 function pairs
 Smallest overlap matrix eigenvalue = 5.34E-03
 Guess from superposition of atomic densities
 Warning:  Energy on first SCF cycle will be non-variational
 SAD guess density has 42.000000 electrons

 -----------------------------------------------------------------------
  General SCF calculation program by
  Eric Jon Sundstrom, Paul Horn, Yuezhi Mao, Dmitri Zuev, Alec White,
  David Stuck, Shaama M.S., Shane Yost, Joonho Lee, David Small,
  Daniel Levine, Susi Lehtola, Hugh Burton, Evgeny Epifanovsky
 -----------------------------------------------------------------------
 Exchange:     0.2000 Hartree-Fock + 0.0800 Slater + 0.7200 B88
 Correlation:  0.1900 VWN1RPA + 0.8100 LYP
 Using SG-1 standard quadrature grid
 using 12 threads for integral computing
 -------------------------------------------------------
 OpenMP Integral computing Module                
 Release: version 1.0, May 2013, Q-Chem Inc. Pittsburgh 
 -------------------------------------------------------
 -------------------------------------------------------
 OpenMP BLAS3 based DFT computing Module                
 Release: version 1.0, May 2013, Q-Chem Inc. Pittsburgh 
 -------------------------------------------------------
 A unrestricted SCF calculation will be
 performed using DIIS
 SCF converges when DIIS error is below 1.0e-06
 Alpha HF Exchange    Energy =  -4.32714208722853
 Beta HF Exchange     Energy =  -4.32714208722853
 DFT Correlation      Energy =  -1.86218426407524
 DFT Exchange         Energy = -33.95128448519736
 One-Electron (alpha) Energy = -491.18959632706924
 One-Electron (beta)  Energy = -491.18959632706924
 Total Coulomb        Energy = 369.53699130070521
 ---------------------------------------
  Cycle       Energy         DIIS error
 ---------------------------------------
    1    -517.4463992655      2.82e-02  
 Alpha HF Exchange    Energy =  -4.45775134235696
 Beta HF Exchange     Energy =  -4.27356614055993
 DFT Correlation      Energy =  -1.87782967922811
 DFT Exchange         Energy = -34.61213087508714
 One-Electron (alpha) Energy = -506.73408236268023
 One-Electron (beta)  Energy = -482.20936794216436
 Total Coulomb        Energy = 377.14655534999798
    2    -517.1546179804      4.06e-03  
 Alpha HF Exchange    Energy =  -4.40714321559436
 Beta HF Exchange     Energy =  -4.20478017221020
 DFT Correlation      Energy =  -1.85182991170687
 DFT Exchange         Energy = -34.13051111296348
 One-Electron (alpha) Energy = -503.63706420406203
 One-Electron (beta)  Energy = -478.69996309986163
 Total Coulomb        Energy = 369.97192153790547
    3    -517.0958151668      5.04e-03  
 Alpha HF Exchange    Energy =  -4.43250692374422
 Beta HF Exchange     Energy =  -4.24228971383703
 DFT Correlation      Energy =  -1.86416664068629
 DFT Exchange         Energy = -34.37298933266707
 One-Electron (alpha) Energy = -505.34666627580600
 One-Electron (beta)  Energy = -480.46217982794036
 Total Coulomb        Energy = 373.60494012466091
    4    -517.2523035783      4.99e-04  
 Alpha HF Exchange    Energy =  -4.43501129497340
 Beta HF Exchange     Energy =  -4.24259190687419
 DFT Correlation      Energy =  -1.86450162813394
 DFT Exchange         Energy = -34.38432518327936
 One-Electron (alpha) Energy = -505.47111210249204
 One-Electron (beta)  Energy = -480.47027079478232
 Total Coulomb        Energy = 373.75057558448486
    5    -517.2536823143      1.90e-04  
 Alpha HF Exchange    Energy =  -4.43487999602227
 Beta HF Exchange     Energy =  -4.24239402965538
 DFT Correlation      Energy =  -1.86429307099335
 DFT Exchange         Energy = -34.38252206589742
 One-Electron (alpha) Energy = -505.47054816900300
 One-Electron (beta)  Energy = -480.44827518951797
 Total Coulomb        Energy = 373.72548687514961
    6    -517.2538706342      5.90e-05  
 Alpha HF Exchange    Energy =  -4.43463667685621
 Beta HF Exchange     Energy =  -4.24222446533834
 DFT Correlation      Energy =  -1.86418968095997
 DFT Exchange         Energy = -34.38070525403572
 One-Electron (alpha) Energy = -505.45666411059642
 One-Electron (beta)  Energy = -480.43264715747586
 Total Coulomb        Energy = 373.69362169628715
    7    -517.2538906373      7.62e-06  
 Alpha HF Exchange    Energy =  -4.43472826892529
 Beta HF Exchange     Energy =  -4.24227832432237
 DFT Correlation      Energy =  -1.86420368462145
 DFT Exchange         Energy = -34.38124774411150
 One-Electron (alpha) Energy = -505.46278580343545
 One-Electron (beta)  Energy = -480.43466919909980
 Total Coulomb        Energy = 373.70246685177767
    8    -517.2538911610      2.16e-06  
 Alpha HF Exchange    Energy =  -4.43471951445710
 Beta HF Exchange     Energy =  -4.24227486727361
 DFT Correlation      Energy =  -1.86419903124731
 DFT Exchange         Energy = -34.38118924947220
 One-Electron (alpha) Energy = -505.46223540218972
 One-Electron (beta)  Energy = -480.43391457838123
 Total Coulomb        Energy = 373.70108641504459
    9    -517.2538912163      1.13e-06  
 Alpha HF Exchange    Energy =  -4.43471836715086
 Beta HF Exchange     Energy =  -4.24227424603432
 DFT Correlation      Energy =  -1.86419822176854
 DFT Exchange         Energy = -34.38118072795734
 One-Electron (alpha) Energy = -505.46219426708791
 One-Electron (beta)  Energy = -480.43381642083824
 Total Coulomb        Energy = 373.70093600074466
   10    -517.2538912384      5.17e-07  Convergence criterion met
 ---------------------------------------
 SCF time:   CPU 24.00s  wall 2.00s 
<S^2> =          2.002421803
 Alpha HF Exchange    Energy =  -4.43471836715086
 Beta HF Exchange     Energy =  -4.24227424603432
 DFT Correlation      Energy =  -1.86419822176854
 DFT Exchange         Energy = -34.38118072795734
 One-Electron (alpha) Energy = -505.46219426708791
 One-Electron (beta)  Energy = -480.43381642083824
 Total Coulomb        Energy = 373.70093600074466
 Nuclear repulsion Energy = 139.86355501170470
 SCF   energy in the final basis set =     -517.2538912384
 Total energy in the final basis set =     -517.2538912384
 
 --------------------------------------------------------------
 
                    Orbital Energies (a.u.)
 --------------------------------------------------------------
 
 Alpha MOs
 -- Occupied --
-88.915 -10.188 -10.184 -10.176  -7.975  -5.945  -5.944  -5.926
 -0.784  -0.715  -0.682  -0.589  -0.462  -0.442  -0.407  -0.390
 -0.351  -0.345  -0.336  -0.314  -0.293  -0.270
 -- Virtual --
  0.086   0.141   0.144   0.145   0.166   0.182   0.189   0.190
  0.220   0.253   0.294   0.349   0.372   0.407   0.501   0.525
  0.535   0.551   0.563   0.643   0.681   0.684   0.708   0.719
  0.736   0.740   0.766   0.845   0.854   0.872   0.906   0.910
  0.935   0.938   0.953   0.976   1.082   1.297   1.302   1.370
  1.530   1.557   1.661   1.688   1.834   1.853   1.929   2.031
  2.044   2.059   2.074   2.089   2.103   2.109   2.244   2.267
  2.292   2.335   2.419   2.466   2.536   2.650   2.683   2.703
  2.734   2.804   2.863   2.897   2.899   2.907   3.151   3.223
  3.307   3.327   3.417   3.470   3.491   3.560   3.851   4.289
  4.488   4.632
 
 Beta MOs
 -- Occupied --
-88.905 -10.188 -10.183 -10.176  -7.964  -5.924  -5.923  -5.919
 -0.782  -0.688  -0.620  -0.583  -0.460  -0.440  -0.403  -0.387
 -0.344  -0.339  -0.333  -0.243
 -- Virtual --
 -0.163  -0.152   0.087   0.142   0.144   0.146   0.168   0.183
  0.190   0.191   0.224   0.256   0.322   0.382   0.391   0.442
  0.502   0.529   0.536   0.566   0.586   0.656   0.688   0.698
  0.742   0.786   0.788   0.803   0.809   0.850   0.857   0.875
  0.909   0.916   0.941   0.947   0.963   0.982   1.101   1.298
  1.304   1.371   1.530   1.557   1.662   1.689   1.836   1.854
  1.930   2.032   2.045   2.060   2.075   2.091   2.104   2.110
  2.245   2.267   2.292   2.336   2.420   2.467   2.537   2.651
  2.684   2.704   2.735   2.805   2.863   2.898   2.900   2.907
  3.152   3.224   3.307   3.328   3.418   3.471   3.492   3.561
  3.886   4.290   4.489   4.633
 --------------------------------------------------------------
 
          Ground-State Mulliken Net Atomic Charges

     Atom                 Charge (a.u.)    Spin (a.u.)
  --------------------------------------------------------
      1 S                    -0.044472       1.938609
      2 C                    -0.185580       0.032312
      3 C                    -0.346473       0.025489
      4 C                    -0.311229      -0.000632
      5 H                     0.100902       0.000971
      6 H                     0.100868       0.001280
      7 H                     0.120052       0.000200
      8 H                     0.122804       0.000243
      9 H                     0.104484       0.000290
     10 H                     0.103745       0.001240
     11 H                     0.104563       0.000297
     12 H                     0.130338      -0.000299
  --------------------------------------------------------
  Sum of atomic charges =     0.000000
  Sum of spin   charges =     2.000000

 -----------------------------------------------------------------
                    Cartesian Multipole Moments
 -----------------------------------------------------------------
    Charge (ESU x 10^10)
                -0.0000
    Dipole Moment (Debye)
         X      -0.8268      Y       0.4197      Z       0.2098
       Tot       0.9506
    Quadrupole Moments (Debye-Ang)
        XX     -36.8448     XY       0.0477     YY     -35.6090
        XZ       0.3599     YZ      -1.1470     ZZ     -33.5836
    Octopole Moments (Debye-Ang^2)
       XXX     -75.3999    XXY      10.1971    XYY     -24.4636
       YYY      40.3210    XXZ      10.9189    XYZ      -2.0049
       YYZ      14.0932    XZZ     -21.1503    YZZ      12.5657
       ZZZ      30.9201
    Hexadecapole Moments (Debye-Ang^3)
      XXXX   -1000.3002   XXXY     103.3462   XXYY    -194.9454
      XYYY     132.9041   YYYY    -197.1785   XXXZ      89.4585
      XXYZ     -14.6846   XYYZ      38.5995   YYYZ     -45.9841
      XXZZ    -175.9039   XYZZ      42.7544   YYZZ     -52.1589
      XZZZ      91.5285   YZZZ     -37.4550   ZZZZ    -106.8451
 -----------------------------------------------------------------
 Calculating analytic gradient of the SCF energy
 Gradient of SCF Energy
            1           2           3           4           5           6
    1  -0.0119072  -0.0010101   0.0150024   0.0000086  -0.0000743  -0.0001095
    2   0.0059510   0.0005814  -0.0069234   0.0000545   0.0000715   0.0000134
    3   0.0030608   0.0002769  -0.0037700   0.0000486  -0.0000124  -0.0000070
            7           8           9          10          11          12
    1  -0.0006439  -0.0008844  -0.0000259   0.0000174  -0.0000061  -0.0003669
    2  -0.0006512   0.0000951  -0.0000378   0.0000032  -0.0000831   0.0009256
    3   0.0011937  -0.0011272   0.0000254  -0.0000241  -0.0000145   0.0003498
 Max gradient component =       1.500E-02
 RMS gradient           =       3.654E-03
 Gradient time:  CPU 8.19 s  wall 0.70 s
 Geometry Optimization Parameters
   NAtoms,    NIC,     NZ,  NCons,   NDum,   NFix, NCnnct, MaxDiis
       12     114       0       1       0       0       0       0

 Cartesian Hessian Update
 Hessian Updated using BFGS Update


** CONSTRAINED OPTIMIZATION IN DELOCALIZED INTERNAL COORDINATES **
   Searching for a Minimum

   Optimization Cycle:   4

                       Coordinates (Angstroms)
     ATOM                X               Y               Z
      1  S         2.9986484923   -1.1227845942   -0.7943978082
      2  C        -0.8417259019    0.6718684079    0.1533047296
      3  C         0.5518893213    0.0892191047   -0.1743832241
      4  C        -1.9727163139   -0.3402116240   -0.0391642178
      5  H        -0.8428914695    1.0378364644    1.1877249362
      6  H        -1.0196451945    1.5491723225   -0.4817692042
      7  H         0.7518736543   -0.7667928766    0.4831359795
      8  H         0.5648172187   -0.2529196623   -1.2161743275
      9  H        -1.8459481415   -1.2091134212    0.6169304691
     10  H        -2.9481834543    0.1044568499    0.1839267950
     11  H        -2.0030741498   -0.7090960080   -1.0708227628
     12  H         1.3195619387    0.8521630368   -0.0253053649
   Point Group: c1    Number of degrees of freedom:    30


   Energy is   -517.253891238

              Constraints and their Current Values
                                        Value     Constraint
   Distance(Angs):        1   3             2.800000     2.800000
 Hessian Updated using BFGS Update

 29 Hessian modes will be used to form the next step
  Hessian Eigenvalues:
     0.026864    0.045015    0.045134    0.055264    0.056279    0.061560
     0.068244    0.076682    0.076788    0.082430    0.082704    0.097509
     0.124343    0.128510    0.132533    0.160000    0.160025    0.160278
     0.218624    0.289902    0.293957    0.294392    0.301547    0.339515
     0.339822    0.341179    0.341293    0.342424    0.455669

 Minimum Search - Taking Simple RFO Step
 Searching for Lamda that Minimizes Along All modes
 Value Taken    Lamda =  -0.00004513
 Step Taken.  Stepsize is  0.036986

                             Maximum     Tolerance    Cnvgd?
         Gradient           0.001223      0.000300      NO
         Displacement       0.036010      0.001200      NO
         Energy change     -0.000112      0.000001      NO


 New Cartesian Coordinates Obtained by Inverse Iteration

 Displacement from previous Coordinates is:  0.016417
 ----------------------------------------------------------------
             Standard Nuclear Orientation (Angstroms)
    I     Atom           X                Y                Z
 ----------------------------------------------------------------
    1      S       2.9961038614    -1.1211818438    -0.7935440638
    2      C      -0.8427264797     0.6720489225     0.1535229036
    3      C       0.5492157360     0.0905846719    -0.1735747870
    4      C      -1.9734510371    -0.3400812030    -0.0391270679
    5      H      -0.8432001736     1.0378960474     1.1879300411
    6      H      -1.0197957346     1.5492457218    -0.4818574315
    7      H       0.7555068714    -0.7663877237     0.4806120911
    8      H       0.5684536594    -0.2544411204    -1.2142755478
    9      H      -1.8461661250    -1.2089954312     0.6167456731
   10      H      -2.9491121634     0.1041207468     0.1842174126
   11      H      -2.0036523492    -0.7083747022    -1.0709257041
   12      H       1.3214299343     0.8493639140    -0.0267175193
 ----------------------------------------------------------------
 Nuclear Repulsion Energy =   139.9223482535 hartrees
 There are       22 alpha and       20 beta electrons

                       Distance Matrix (Angstroms)
             S (  1)   C (  2)   C (  3)   C (  4)   H (  5)   H (  6)
   C (  2)  4.341570
   C (  3)  2.800000  1.543566
   C (  4)  5.086820  1.529725  2.562693
   H (  5)  4.829918  1.097198  2.165621  2.163783
   H (  6)  4.832782  1.097514  2.164377  2.162181  1.755236
   H (  7)  2.601851  2.174957  1.097688  2.810530  2.512290  3.072492
   H (  8)  2.611846  2.172714  1.096572  2.801712  3.071399  2.512421
   H (  9)  5.044225  2.181695  2.837493  1.096076  2.526007  3.081836
   H ( 10)  6.148413  2.181822  3.516603  1.095040  2.512815  2.500861
   H ( 11)  5.024432  2.180044  2.821473  1.095975  3.081970  2.532158
   H ( 12)  2.697333  2.178876  1.092533  3.503024  2.489284  2.485624
             H (  7)   H (  8)   H (  9)   H ( 10)   H ( 11)
   H (  8)  1.780371
   H (  9)  2.642562  3.177137
   H ( 10)  3.817046  3.802318  1.768571
   H ( 11)  3.166006  2.615786  1.767387  1.769019
   H ( 12)  1.785583  1.787639  3.832043  4.340209  3.817472
 
 Applying Cartesian multipole field
    Component          Value
    ---------          -----
     (2,0,0)        1.00000E-11
     (0,2,0)        2.00000E-11
     (0,0,2)       -3.00000E-10
 Nucleus-field energy     =    -0.0000000073 hartrees
 Requested basis set is 6-31G(d,p)
 There are 41 shells and 104 basis functions
 A cutoff of  1.0D-14 yielded    814 shell pairs
 There are      5227 function pairs
 Smallest overlap matrix eigenvalue = 5.33E-03
 Guess from superposition of atomic densities
 Warning:  Energy on first SCF cycle will be non-variational
 SAD guess density has 42.000000 electrons

 -----------------------------------------------------------------------
  General SCF calculation program by
  Eric Jon Sundstrom, Paul Horn, Yuezhi Mao, Dmitri Zuev, Alec White,
  David Stuck, Shaama M.S., Shane Yost, Joonho Lee, David Small,
  Daniel Levine, Susi Lehtola, Hugh Burton, Evgeny Epifanovsky
 -----------------------------------------------------------------------
 Exchange:     0.2000 Hartree-Fock + 0.0800 Slater + 0.7200 B88
 Correlation:  0.1900 VWN1RPA + 0.8100 LYP
 Using SG-1 standard quadrature grid
 using 12 threads for integral computing
 -------------------------------------------------------
 OpenMP Integral computing Module                
 Release: version 1.0, May 2013, Q-Chem Inc. Pittsburgh 
 -------------------------------------------------------
 -------------------------------------------------------
 OpenMP BLAS3 based DFT computing Module                
 Release: version 1.0, May 2013, Q-Chem Inc. Pittsburgh 
 -------------------------------------------------------
 A unrestricted SCF calculation will be
 performed using DIIS
 SCF converges when DIIS error is below 1.0e-06
 Alpha HF Exchange    Energy =  -4.32743854428956
 Beta HF Exchange     Energy =  -4.32743854428956
 DFT Correlation      Energy =  -1.86227020269184
 DFT Exchange         Energy = -33.95187371316464
 One-Electron (alpha) Energy = -491.24736868422457
 One-Electron (beta)  Energy = -491.24736868422457
 Total Coulomb        Energy = 369.59240009133885
 ---------------------------------------
  Cycle       Energy         DIIS error
 ---------------------------------------
    1    -517.4490100353      2.82e-02  
 Alpha HF Exchange    Energy =  -4.45785843493687
 Beta HF Exchange     Energy =  -4.27367569249567
 DFT Correlation      Energy =  -1.87791316319730
 DFT Exchange         Energy = -34.61290295112703
 One-Electron (alpha) Energy = -506.79374772877679
 One-Electron (beta)  Energy = -482.26401658528533
 Total Coulomb        Energy = 377.20331209662373
    2    -517.1544542130      4.07e-03  
 Alpha HF Exchange    Energy =  -4.40724486598495
 Beta HF Exchange     Energy =  -4.20484772214325
 DFT Correlation      Energy =  -1.85189659237557
 DFT Exchange         Energy = -34.13109622980476
 One-Electron (alpha) Energy = -503.69587482537997
 One-Electron (beta)  Energy = -478.75222008068022
 Total Coulomb        Energy = 370.02532795456261
    3    -517.0955041156      5.05e-03  
 Alpha HF Exchange    Energy =  -4.43262560437438
 Beta HF Exchange     Energy =  -4.24238189010280
 DFT Correlation      Energy =  -1.86424689758665
 DFT Exchange         Energy = -34.37373915120195
 One-Electron (alpha) Energy = -505.40728154988875
 One-Electron (beta)  Energy = -480.51635764962538
 Total Coulomb        Energy = 373.66194379721338
    4    -517.2523406993      4.98e-04  
 Alpha HF Exchange    Energy =  -4.43512538096396
 Beta HF Exchange     Energy =  -4.24268663842483
 DFT Correlation      Energy =  -1.86457879099777
 DFT Exchange         Energy = -34.38505860913660
 One-Electron (alpha) Energy = -505.53120044065327
 One-Electron (beta)  Energy = -480.52410409041778
 Total Coulomb        Energy = 373.80669497386282
    5    -517.2537107305      1.90e-04  
 Alpha HF Exchange    Energy =  -4.43499111655858
 Beta HF Exchange     Energy =  -4.24248762029310
 DFT Correlation      Energy =  -1.86437002798774
 DFT Exchange         Energy = -34.38324114571890
 One-Electron (alpha) Energy = -505.53048460393074
 One-Electron (beta)  Energy = -480.50209075706124
 Total Coulomb        Energy = 373.78141767242590
    6    -517.2538993529      5.89e-05  
 Alpha HF Exchange    Energy =  -4.43474964810384
 Beta HF Exchange     Energy =  -4.24231888740747
 DFT Correlation      Energy =  -1.86426759747604
 DFT Exchange         Energy = -34.38143695389934
 One-Electron (alpha) Energy = -505.51673379984317
 One-Electron (beta)  Energy = -480.48656770928346
 Total Coulomb        Energy = 373.74980710297166
    7    -517.2539192468      7.63e-06  
 Alpha HF Exchange    Energy =  -4.43484083877255
 Beta HF Exchange     Energy =  -4.24237247474910
 DFT Correlation      Energy =  -1.86428155228175
 DFT Exchange         Energy = -34.38197710517267
 One-Electron (alpha) Energy = -505.52282793972512
 One-Electron (beta)  Energy = -480.48857500570102
 Total Coulomb        Energy = 373.75860690441903
    8    -517.2539197658      2.23e-06  
 Alpha HF Exchange    Energy =  -4.43483258829158
 Beta HF Exchange     Energy =  -4.24236918465555
 DFT Correlation      Energy =  -1.86427709681086
 DFT Exchange         Energy = -34.38192158641613
 One-Electron (alpha) Energy = -505.52231198957014
 One-Electron (beta)  Energy = -480.48784338884207
 Total Coulomb        Energy = 373.75728776697292
[...]

                             Maximum     Tolerance    Cnvgd?
         Gradient           0.000923      0.000300      NO
         Displacement       0.011753      0.001200      NO
         Energy change     -0.000029      0.000001      NO


 New Cartesian Coordinates Obtained by Inverse Iteration

 Displacement from previous Coordinates is:  0.006774
 ----------------------------------------------------------------
             Standard Nuclear Orientation (Angstroms)
    I     Atom           X                Y                Z
 ----------------------------------------------------------------
    1      S       2.9945386460    -1.1211172857    -0.7932238016
    2      C      -0.8423736016     0.6719899184     0.1534573267
    3      C       0.5479316365     0.0911933305    -0.1732088000
    4      C      -1.9732170468    -0.3401788651    -0.0392374239
    5      H      -0.8431461399     1.0378808283     1.1878745533
    6      H      -1.0196733344     1.5492558417    -0.4818053892
    7      H       0.7558764809    -0.7653346095     0.4794441002
    8      H       0.5690449336    -0.2547227516    -1.2126625345
    9      H      -1.8455686631    -1.2091952387     0.6164059843
   10      H      -2.9488741639     0.1038195058     0.1844111630
   11      H      -2.0034326523    -0.7081287301    -1.0711354761
   12      H       1.3214999051     0.8483360559    -0.0273137021
 ----------------------------------------------------------------
 Nuclear Repulsion Energy =   139.9715695841 hartrees
 There are       22 alpha and       20 beta electrons

                       Distance Matrix (Angstroms)
             S (  1)   C (  2)   C (  3)   C (  4)   H (  5)   H (  6)
   C (  2)  4.339739
   C (  3)  2.800000  1.541747
   C (  4)  5.084974  1.529844  2.561293
   H (  5)  4.828442  1.097222  2.164223  2.163773
   H (  6)  4.831332  1.097538  2.162999  2.162192  1.755135
   H (  7)  2.599591  2.174068  1.096739  2.810292  2.512038  3.071467
   H (  8)  2.609519  2.171907  1.095704  2.801308  3.070454  2.512472
   H (  9)  5.041969  2.181646  2.836079  1.096062  2.526020  3.081757
   H ( 10)  6.146576  2.181999  3.515068  1.095016  2.512668  2.500989
   H ( 11)  5.022700  2.180003  2.820399  1.095953  3.081873  2.531971
   H ( 12)  2.695259  2.178560  1.092226  3.502552  2.489639  2.485748
             H (  7)   H (  8)   H (  9)   H ( 10)   H ( 11)
   H (  8)  1.777317
   H (  9)  2.642591  3.175983
   H ( 10)  3.816759  3.802121  1.768590
   H ( 11)  3.165653  2.615960  1.767423  1.769044
   H ( 12)  1.783442  1.785491  3.831205  4.339957  3.816716
 
 Applying Cartesian multipole field
    Component          Value
    ---------          -----
     (2,0,0)        1.00000E-11
     (0,2,0)        2.00000E-11
     (0,0,2)       -3.00000E-10
 Nucleus-field energy     =    -0.0000000073 hartrees
 Requested basis set is 6-31G(d,p)
 There are 41 shells and 104 basis functions
 A cutoff of  1.0D-14 yielded    814 shell pairs
 There are      5227 function pairs
 Smallest overlap matrix eigenvalue = 5.32E-03
 Guess from superposition of atomic densities
 Warning:  Energy on first SCF cycle will be non-variational
 SAD guess density has 42.000000 electrons

 -----------------------------------------------------------------------
  General SCF calculation program by
  Eric Jon Sundstrom, Paul Horn, Yuezhi Mao, Dmitri Zuev, Alec White,
  David Stuck, Shaama M.S., Shane Yost, Joonho Lee, David Small,
  Daniel Levine, Susi Lehtola, Hugh Burton, Evgeny Epifanovsky
 -----------------------------------------------------------------------
 Exchange:     0.2000 Hartree-Fock + 0.0800 Slater + 0.7200 B88
 Correlation:  0.1900 VWN1RPA + 0.8100 LYP
 Using SG-1 standard quadrature grid
 using 12 threads for integral computing
 -------------------------------------------------------
 OpenMP Integral computing Module                
 Release: version 1.0, May 2013, Q-Chem Inc. Pittsburgh 
 -------------------------------------------------------
 -------------------------------------------------------
 OpenMP BLAS3 based DFT computing Module                
 Release: version 1.0, May 2013, Q-Chem Inc. Pittsburgh 
 -------------------------------------------------------
 A unrestricted SCF calculation will be
 performed using DIIS
 SCF converges when DIIS error is below 1.0e-06
 Alpha HF Exchange    Energy =  -4.32777641224968
 Beta HF Exchange     Energy =  -4.32777641224968
 DFT Correlation      Energy =  -1.86235113757403
 DFT Exchange         Energy = -33.95255021352015
 One-Electron (alpha) Energy = -491.29485652857085
 One-Electron (beta)  Energy = -491.29485652857085
 Total Coulomb        Energy = 369.63687324737987
 ---------------------------------------
  Cycle       Energy         DIIS error
 ---------------------------------------
    1    -517.4517244086      2.83e-02  
 Alpha HF Exchange    Energy =  -4.45803788208486
 Beta HF Exchange     Energy =  -4.27386855305655
 DFT Correlation      Energy =  -1.87800563903809
 DFT Exchange         Energy = -34.61423233715461
 One-Electron (alpha) Energy = -506.84456472731392
 One-Electron (beta)  Energy = -482.31222354432663
 Total Coulomb        Energy = 377.25514327411804
    2    -517.1542198321      4.07e-03  
 Alpha HF Exchange    Energy =  -4.40736939535275
 Beta HF Exchange     Energy =  -4.20494753776657
 DFT Correlation      Energy =  -1.85196601530892
 DFT Exchange         Energy = -34.13188634274434
 One-Electron (alpha) Energy = -503.74322921081841
 One-Electron (beta)  Energy = -478.79578490235502
 Total Coulomb        Energy = 370.06848050270025
    3    -517.0951333249      5.05e-03  
 Alpha HF Exchange    Energy =  -4.43278140505098
 Beta HF Exchange     Energy =  -4.24253244482121
 DFT Correlation      Energy =  -1.86432971271601
 DFT Exchange         Energy = -34.37482345650321
 One-Electron (alpha) Energy = -505.45695514959397
 One-Electron (beta)  Energy = -480.56282554444721
 Total Coulomb        Energy = 373.71032953927045
    4    -517.2523485971      4.98e-04  
 Alpha HF Exchange    Energy =  -4.43528052463360
 Beta HF Exchange     Energy =  -4.24284002628205
 DFT Correlation      Energy =  -1.86466079546579
 DFT Exchange         Energy = -34.38614808525855
 One-Electron (alpha) Energy = -505.58070484241625
 One-Electron (beta)  Energy = -480.57043837192202
 Total Coulomb        Energy = 373.85478744928639
    5    -517.2537156199      1.90e-04  
 Alpha HF Exchange    Energy =  -4.43514438168536
 Beta HF Exchange     Energy =  -4.24263956337266
 DFT Correlation      Energy =  -1.86445183103307
 DFT Exchange         Energy = -34.38431873164984
 One-Electron (alpha) Energy = -505.57990815931151
 One-Electron (beta)  Energy = -480.54841521322595
 Total Coulomb        Energy = 373.82940369223155
    6    -517.2539046113      5.89e-05  
 Alpha HF Exchange    Energy =  -4.43490339990913
 Beta HF Exchange     Energy =  -4.24247112245369
 DFT Correlation      Energy =  -1.86434979236710
 DFT Exchange         Energy = -34.38251870527441
 One-Electron (alpha) Energy = -505.56619385751401
 One-Electron (beta)  Energy = -480.53293497622076
 Total Coulomb        Energy = 373.79787779772676
    7    -517.2539244793      7.63e-06  
 Alpha HF Exchange    Energy =  -4.43499438560095
 Beta HF Exchange     Energy =  -4.24252460744752
 DFT Correlation      Energy =  -1.86436371373441
 DFT Exchange         Energy = -34.38305774700486
 One-Electron (alpha) Energy = -505.57227310321628
 One-Electron (beta)  Energy = -480.53493574001567
 Total Coulomb        Energy = 373.80665472467604
    8    -517.2539249956      2.25e-06  
 Alpha HF Exchange    Energy =  -4.43498635617135
 Beta HF Exchange     Energy =  -4.24252140514813
 DFT Correlation      Energy =  -1.86435935138618
 DFT Exchange         Energy = -34.38300360358114
 One-Electron (alpha) Energy = -505.57177228179251
 One-Electron (beta)  Energy = -480.53421525969236
 Total Coulomb        Energy = 373.80536363004774
    9    -517.2539250510      1.20e-06  
 Alpha HF Exchange    Energy =  -4.43498484625643
 Beta HF Exchange     Energy =  -4.24252059322942
 DFT Correlation      Energy =  -1.86435839123593
 DFT Exchange         Energy = -34.38299267779307
 One-Electron (alpha) Energy = -505.57170628758598
 One-Electron (beta)  Energy = -480.53409318789966
 Total Coulomb        Energy = 373.80516133335243
   10    -517.2539250739      5.07e-07  Convergence criterion met
 ---------------------------------------
 SCF time:   CPU 23.94s  wall 2.00s 
<S^2> =          2.002421050
 Alpha HF Exchange    Energy =  -4.43498484625643
 Beta HF Exchange     Energy =  -4.24252059322942
 DFT Correlation      Energy =  -1.86435839123593
 DFT Exchange         Energy = -34.38299267779307
 One-Electron (alpha) Energy = -505.57170628758598
 One-Electron (beta)  Energy = -480.53409318789966
 Total Coulomb        Energy = 373.80516133335243
 Nuclear repulsion Energy = 139.97156957675210
 SCF   energy in the final basis set =     -517.2539250739
 Total energy in the final basis set =     -517.2539250739
 
 --------------------------------------------------------------
 
                    Orbital Energies (a.u.)
 --------------------------------------------------------------
 
 Alpha MOs
 -- Occupied --
-88.916 -10.188 -10.183 -10.176  -7.975  -5.945  -5.944  -5.926
 -0.785  -0.715  -0.682  -0.590  -0.462  -0.442  -0.407  -0.389
 -0.352  -0.345  -0.336  -0.314  -0.294  -0.270
 -- Virtual --
  0.087   0.141   0.144   0.145   0.166   0.182   0.188   0.190
  0.220   0.254   0.295   0.349   0.372   0.407   0.501   0.525
  0.534   0.551   0.563   0.644   0.681   0.685   0.708   0.719
  0.736   0.740   0.766   0.845   0.855   0.872   0.906   0.911
  0.935   0.938   0.953   0.978   1.083   1.297   1.303   1.370
  1.529   1.557   1.661   1.688   1.835   1.852   1.930   2.034
  2.046   2.060   2.076   2.094   2.104   2.109   2.244   2.266
  2.291   2.334   2.419   2.464   2.536   2.649   2.690   2.709
  2.734   2.805   2.863   2.900   2.900   2.907   3.151   3.222
  3.307   3.329   3.418   3.473   3.493   3.561   3.851   4.290
  4.488   4.633
 
 Beta MOs
 -- Occupied --
-88.905 -10.188 -10.182 -10.176  -7.965  -5.924  -5.924  -5.919
 -0.783  -0.688  -0.621  -0.584  -0.460  -0.440  -0.403  -0.387
 -0.344  -0.340  -0.333  -0.243
 -- Virtual --
 -0.163  -0.152   0.087   0.142   0.144   0.146   0.168   0.184
  0.189   0.191   0.225   0.257   0.322   0.383   0.391   0.442
  0.503   0.529   0.536   0.566   0.584   0.657   0.688   0.699
  0.743   0.785   0.787   0.803   0.809   0.850   0.857   0.875
  0.909   0.917   0.941   0.947   0.962   0.984   1.102   1.298
  1.304   1.371   1.530   1.557   1.662   1.689   1.837   1.853
  1.932   2.035   2.047   2.061   2.077   2.096   2.104   2.110
  2.244   2.267   2.291   2.335   2.419   2.465   2.537   2.650
  2.691   2.710   2.734   2.806   2.864   2.901   2.901   2.907
  3.152   3.224   3.308   3.330   3.419   3.474   3.494   3.562
  3.886   4.291   4.489   4.634
 --------------------------------------------------------------
 
          Ground-State Mulliken Net Atomic Charges

     Atom                 Charge (a.u.)    Spin (a.u.)
  --------------------------------------------------------
      1 S                    -0.044023       1.938915
      2 C                    -0.184859       0.031573
      3 C                    -0.346951       0.026427
      4 C                    -0.311278      -0.000626
      5 H                     0.100997       0.001013
      6 H                     0.100967       0.001326
      7 H                     0.119720      -0.000012
      8 H                     0.122442       0.000042
      9 H                     0.104582       0.000289
     10 H                     0.103663       0.001209
     11 H                     0.104666       0.000293
     12 H                     0.130075      -0.000450
  --------------------------------------------------------
  Sum of atomic charges =     0.000000
  Sum of spin   charges =     2.000000

 -----------------------------------------------------------------
                    Cartesian Multipole Moments
 -----------------------------------------------------------------
    Charge (ESU x 10^10)
                 0.0000
    Dipole Moment (Debye)
         X      -0.8164      Y       0.4145      Z       0.2070
       Tot       0.9387
    Quadrupole Moments (Debye-Ang)
        XX     -36.7920     XY       0.0245     YY     -35.6120
        XZ       0.3476     YZ      -1.1358     ZZ     -33.5870
    Octopole Moments (Debye-Ang^2)
       XXX     -75.0261    XXY      10.1138    XYY     -24.3909
       YYY      40.2229    XXZ      10.8785    XYZ      -1.9793
       YYZ      14.0490    XZZ     -21.0675    YZZ      12.5273
       ZZZ      30.8664
    Hexadecapole Moments (Debye-Ang^3)
      XXXX    -997.8226   XXXY     102.8595   XXYY    -194.5590
      XYYY     132.4985   YYYY    -196.8620   XXXZ      89.1674
      XXYZ     -14.5912   XYYZ      38.4524   YYYZ     -45.8455
      XXZZ    -175.5161   XYZZ      42.5850   YYZZ     -52.0381
      XZZZ      91.2340   YZZZ     -37.3219   ZZZZ    -106.6469
 -----------------------------------------------------------------
 Calculating analytic gradient of the SCF energy
 Gradient of SCF Energy
            1           2           3           4           5           6
    1  -0.0121097  -0.0003171   0.0121318   0.0000766   0.0000542   0.0000233
    2   0.0060604   0.0001540  -0.0059827  -0.0000028   0.0000126  -0.0000347
    3   0.0031171   0.0000803  -0.0030983   0.0000114  -0.0000260  -0.0000597
            7           8           9          10          11          12
    1   0.0000630   0.0000229  -0.0000091  -0.0000110   0.0000063   0.0000688
    2  -0.0001496  -0.0000507   0.0000132  -0.0000074  -0.0000312   0.0000188
    3   0.0001184  -0.0001788   0.0000305  -0.0000213   0.0000102   0.0000163
 Max gradient component =       1.213E-02
 RMS gradient           =       3.274E-03
 Gradient time:  CPU 8.21 s  wall 0.70 s
 Geometry Optimization Parameters
   NAtoms,    NIC,     NZ,  NCons,   NDum,   NFix, NCnnct, MaxDiis
       12     114       0       1       0       0       0       0

 Cartesian Hessian Update
 Hessian Updated using BFGS Update


** CONSTRAINED OPTIMIZATION IN DELOCALIZED INTERNAL COORDINATES **
   Searching for a Minimum

   Optimization Cycle:   6

                       Coordinates (Angstroms)
     ATOM                X               Y               Z
      1  S         2.9945386460   -1.1211172857   -0.7932238016
      2  C        -0.8423736016    0.6719899184    0.1534573267
      3  C         0.5479316365    0.0911933305   -0.1732088000
      4  C        -1.9732170468   -0.3401788651   -0.0392374239
      5  H        -0.8431461399    1.0378808283    1.1878745533
      6  H        -1.0196733344    1.5492558417   -0.4818053892
      7  H         0.7558764809   -0.7653346095    0.4794441002
      8  H         0.5690449336   -0.2547227516   -1.2126625345
      9  H        -1.8455686631   -1.2091952387    0.6164059843
     10  H        -2.9488741639    0.1038195058    0.1844111630
     11  H        -2.0034326523   -0.7081287301   -1.0711354761
     12  H         1.3214999051    0.8483360559   -0.0273137021
   Point Group: c1    Number of degrees of freedom:    30


   Energy is   -517.253925074

              Constraints and their Current Values
                                        Value     Constraint
   Distance(Angs):        1   3             2.800000     2.800000
 Hessian Updated using BFGS Update

 29 Hessian modes will be used to form the next step
  Hessian Eigenvalues:
     0.025242    0.045019    0.045325    0.055269    0.056279    0.061549
     0.068239    0.076577    0.076763    0.082430    0.082660    0.095701
     0.124343    0.127881    0.132530    0.159955    0.160000    0.160235
     0.218652    0.284062    0.291640    0.294389    0.298378    0.321327
     0.339638    0.340877    0.341247    0.341620    0.342629

 Minimum Search - Taking Simple RFO Step
 Searching for Lamda that Minimizes Along All modes
 Value Taken    Lamda =   0.00000000
 Step Taken.  Stepsize is  0.002104

                             Maximum     Tolerance    Cnvgd?
         Gradient           0.000203      0.000300     YES
         Displacement       0.000880      0.001200     YES
         Energy change     -0.000005      0.000001      NO


                       Distance Matrix (Angstroms)
             S (  1)   C (  2)   C (  3)   C (  4)   H (  5)   H (  6)
   C (  2)  4.339739
   C (  3)  2.800000  1.541747
   C (  4)  5.084974  1.529844  2.561293
   H (  5)  4.828442  1.097222  2.164223  2.163773
   H (  6)  4.831332  1.097538  2.162999  2.162192  1.755135
   H (  7)  2.599591  2.174068  1.096739  2.810292  2.512038  3.071467
   H (  8)  2.609519  2.171907  1.095704  2.801308  3.070454  2.512472
   H (  9)  5.041969  2.181646  2.836079  1.096062  2.526020  3.081757
   H ( 10)  6.146576  2.181999  3.515068  1.095016  2.512668  2.500989
   H ( 11)  5.022700  2.180003  2.820399  1.095953  3.081873  2.531971
   H ( 12)  2.695259  2.178560  1.092226  3.502552  2.489639  2.485748
             H (  7)   H (  8)   H (  9)   H ( 10)   H ( 11)
   H (  8)  1.777317
   H (  9)  2.642591  3.175983
   H ( 10)  3.816759  3.802121  1.768590
   H ( 11)  3.165653  2.615960  1.767423  1.769044
   H ( 12)  1.783442  1.785491  3.831205  4.339957  3.816716
 
 Final energy is   -517.253925073896     


 ******************************
 **  OPTIMIZATION CONVERGED  **
 ******************************

                       Coordinates (Angstroms)
     ATOM                X               Y               Z
      1  S         2.9945386460   -1.1211172857   -0.7932238016
      2  C        -0.8423736016    0.6719899184    0.1534573267
      3  C         0.5479316365    0.0911933305   -0.1732088000
      4  C        -1.9732170468   -0.3401788651   -0.0392374239
      5  H        -0.8431461399    1.0378808283    1.1878745533
      6  H        -1.0196733344    1.5492558417   -0.4818053892
      7  H         0.7558764809   -0.7653346095    0.4794441002
      8  H         0.5690449336   -0.2547227516   -1.2126625345
      9  H        -1.8455686631   -1.2091952387    0.6164059843
     10  H        -2.9488741639    0.1038195058    0.1844111630
     11  H        -2.0034326523   -0.7081287301   -1.0711354761
     12  H         1.3214999051    0.8483360559   -0.0273137021

Z-matrix Print:
$molecule
0 3
S 
H  1 2.599591
C  2 1.096739 1 88.787016
H  3 1.092226 2 109.123553 1 -62.051604 0
H  3 1.095704 2 108.320088 1 56.952437 0
C  3 1.541747 2 109.821812 1 176.757064 0
H  6 1.097222 3 109.026785 2 62.474821 0
H  6 1.097538 3 108.913814 2 177.951913 0
C  6 1.529844 3 112.995122 2 -59.918305 0
H  9 1.095016 6 111.384395 3 -179.100539 0
H  9 1.095953 6 111.167907 3 -58.995789 0
H  9 1.096062 6 111.292689 3 60.771053 0
$end

PES scan, value:    2.8000 energy: -517.2539250739
------- Summary of potential scan: ------ 
    2.8000      -517.2539250739
----------------------------------------- 
Archival summary:
1\1\hpc0250\JobtypUnspecified\ProcedureUnspecified\6-31G**\138(3)\knomura\WedMar1321:32:412019WedMar1321:32:412019\0\\#,JobtypUnspecified,ProcedureUnspecified,6-31G**,\\0,3\S\H,1,2.59959\C,2,1.09674,1,88.787\H,3,1.09223,2,109.124,1,-62.0516,0\H,3,1.0957,2,108.32,1,56.9524,0\C,3,1.54175,2,109.822,1,176.757,0\H,6,1.09722,3,109.027,2,62.4748,0\H,6,1.09754,3,108.914,2,177.952,0\C,6,1.52984,3,112.995,2,-59.9183,0\H,9,1.09502,6,111.384,3,-179.101,0\H,9,1.09595,6,111.168,3,-58.9958,0\H,9,1.09606,6,111.293,3,60.7711,0\\\@

 Total job time:  19.06s(wall), 218.42s(cpu) 
 Wed Mar 13 21:32:41 2019

        *************************************************************
        *                                                           *
        *  Thank you very much for using Q-Chem.  Have a nice day.  *
        *                                                           *
        *************************************************************


