
Running Job 1 of 1 thiol/02/C-S.xyz.data/inputs/bond_singlet_1.1.in
qchem thiol/02/C-S.xyz.data/inputs/bond_singlet_1.1.in_17706.0 /staging/scratch/2868767/qchem17706/ 1
/usr/usc/qchem/5.1.1/exe/qcprog.exe_s thiol/02/C-S.xyz.data/inputs/bond_singlet_1.1.in_17706.0 /staging/scratch/2868767/qchem17706/
Check license passed

                  Welcome to Q-Chem
     A Quantum Leap Into The Future Of Chemistry


 Q-Chem 5.1, Q-Chem, Inc., Pleasanton, CA (2018)

 Yihan Shao,  Zhengting Gan,  E. Epifanovsky,  A. T. B. Gilbert,  M. Wormit,  
 J. Kussmann,  A. W. Lange,  A. Behn,  Jia Deng,  Xintian Feng,  D. Ghosh,  
 M. Goldey,  P. R. Horn,  L. D. Jacobson,  I. Kaliman,  T. Kus,  A. Landau,  
 Jie Liu,  E. I. Proynov,  R. M. Richard,  R. P. Steele,  E. J. Sundstrom,  
 H. L. Woodcock III,  P. M. Zimmerman,  D. Zuev,  B. Albrecht,  E. Alguire,  
 S. A. Baeppler,  D. Barton,  Z. Benda,  Y. A. Bernard,  E. J. Berquist,  
 K. B. Bravaya,  H. Burton,  D. Casanova,  Chun-Min Chang,  Yunqing Chen,  
 A. Chien,  K. D. Closser,  M. P. Coons,  S. Coriani,  S. Dasgupta,  
 A. L. Dempwolff,  M. Diedenhofen,  Hainam Do,  R. G. Edgar,  Po-Tung Fang,  
 S. Faraji,  S. Fatehi,  Qingguo Feng,  K. D. Fenk,  J. Fosso-Tande,  
 Qinghui Ge,  A. Ghysels,  G. Gidofalvi,  J. Gomes,  J. Gonthier,  A. Gunina,  
 D. Hait,  M. W. D. Hanson-Heine,  P. H. P. Harbach,  A. W. Hauser,  
 J. E. Herr,  E. G. Hohenstein,  Z. C. Holden,  Kerwin Hui,  B. C. Huynh,  
 T.-C. Jagau,  Hyunjun Ji,  B. Kaduk,  K. Khistyaev,  Jaehoon Kim,  
 P. Klunzinger,  K. Koh,  D. Kosenkov,  L. Koulias,  T. Kowalczyk,  
 C. M. Krauter,  A. Kunitsa,  Ka Un Lao,  A. Laurent,  K. V. Lawler,  
 Joonho Lee,  D. Lefrancois,  S. Lehtola,  D. S. Levine,  Yi-Pei Li,  
 You-Sheng Lin,  Fenglai Liu,  E. Livshits,  A. Luenser,  P. Manohar,  
 E. Mansoor,  S. F. Manzer,  Shan-Ping Mao,  Yuezhi Mao,  N. Mardirossian,  
 A. V. Marenich,  T. Markovich,  L. A. Martinez-Martinez,  S. A. Maurer,  
 N. J. Mayhall,  S. C. McKenzie,  J.-M. Mewes,  A. F. Morrison,  
 J. W. Mullinax,  K. Nanda,  T. S. Nguyen-Beck,  R. Olivares-Amaya,  
 J. A. Parkhill,  T. M. Perrine,  F. Plasser,  P. Pokhilko,  S. Prager,  
 A. Prociuk,  E. Ramos,  D. R. Rehn,  F. Rob,  M. Schneider,  N. Sergueev,  
 S. M. Sharada,  S. Sharma,  D. W. Small,  T. Stauch,  T. Stein,  
 Yu-Chuan Su,  A. J. W. Thom,  A. Tkatchenko,  T. Tsuchimochi,  N. M. Tubman,  
 L. Vogt,  M. L. Vidal,  O. Vydrov,  M. A. Watson,  J. Wenzel,  
 M. de Wergifosse,  T. A. Wesolowski,  A. White,  J. Witte,  A. Yamada,  
 Jun Yang,  K. Yao,  S. Yeganeh,  S. R. Yost,  Zhi-Qiang You,  A. Zech,  
 Igor Ying Zhang,  Xing Zhang,  Yan Zhao,  Ying Zhu,  B. R. Brooks,  
 G. K. L. Chan,  C. J. Cramer,  M. S. Gordon,  W. J. Hehre,  A. Klamt,  
 M. W. Schmidt,  C. D. Sherrill,  D. G. Truhlar,  A. Aspuru-Guzik,  R. Baer,  
 A. T. Bell,  N. A. Besley,  Jeng-Da Chai,  A. E. DePrince, III,  
 R. A. DiStasio Jr.,  A. Dreuw,  B. D. Dunietz,  T. R. Furlani,  
 Chao-Ping Hsu,  Yousung Jung,  Jing Kong,  D. S. Lambrecht,  WanZhen Liang,  
 C. Ochsenfeld,  V. A. Rassolov,  L. V. Slipchenko,  J. E. Subotnik,  
 T. Van Voorhis,  J. M. Herbert,  A. I. Krylov,  P. M. W. Gill,  M. Head-Gordon

 Contributors to earlier versions of Q-Chem not listed above: 
 R. D. Adamson,  B. Austin,  J. Baker,  G. J. O. Beran,  K. Brandhorst,  
 S. T. Brown,  E. F. C. Byrd,  A. K. Chakraborty,  C.-L. Cheng,  
 Siu Hung Chien,  D. M. Chipman,  D. L. Crittenden,  H. Dachsel,  
 R. J. Doerksen,  A. D. Dutoi,  L. Fusti-Molnar,  W. A. Goddard III,  
 A. Golubeva-Zadorozhnaya,  S. R. Gwaltney,  G. Hawkins,  A. Heyden,  
 S. Hirata,  G. Kedziora,  F. J. Keil,  C. Kelley,  Jihan Kim,  R. A. King,  
 R. Z. Khaliullin,  P. P. Korambath,  W. Kurlancheek,  A. M. Lee,  M. S. Lee,  
 S. V. Levchenko,  Ching Yeh Lin,  D. Liotard,  R. C. Lochan,  I. Lotan,  
 P. E. Maslen,  N. Nair,  D. P. O'Neill,  D. Neuhauser,  E. Neuscamman,  
 C. M. Oana,  R. Olson,  B. Peters,  R. Peverati,  P. A. Pieniazek,  
 Y. M. Rhee,  J. Ritchie,  M. A. Rohrdanz,  E. Rosta,  N. J. Russ,  
 H. F. Schaefer III,  N. E. Schultz,  N. Shenvi,  A. C. Simmonett,  A. Sodt,  
 D. Stuck,  K. S. Thanthiriwatte,  V. Vanovschi,  Tao Wang,  A. Warshel,  
 C. F. Williams,  Q. Wu,  X. Xu,  W. Zhang

 Please cite Q-Chem as follows:
 Y. Shao et al., Mol. Phys. 113, 184-215 (2015)
 DOI: 10.1080/00268976.2014.952696

 Q-Chem 5.1.1 for Intel X86 EM64T Linux

 Parts of Q-Chem use Armadillo 8.300.2 (Tropical Shenanigans).
 http://arma.sourceforge.net/

 Q-Chem begins on Wed Mar 13 18:45:47 2019  

Host: 
0

     Scratch files written to /staging/scratch/2868767/qchem17706//
 Aug318 |scratch|qcdevops|jenkins|workspace|build_RNUM 6013   
Processing $rem in /usr/usc/qchem/5.1.1/config/preferences.
 MEM_TOTAL  2000 
Input Ideriv = 2
Curr. Ideriv = -1
Max.  Ideriv = 2

Checking the input file for inconsistencies... 	...done.

--------------------------------------------------------------
User input:
--------------------------------------------------------------

$comment
potential surface scanner
$end

$rem
JOBTYPE  PES_SCAN
UNRESTRICTED TRUE
SYM_IGNORE  TRUE
GEOM_OPT_MAX_CYCLES 400
SCF_MAX_CYCLES 400
METHOD   B3LYP
BASIS   6-31G**
PDB_PRINT 2
SCF_CONVERGENCE 6
THRESH 14
SCF_PRINT 1
$end
$molecule
0 1
S 2.126400 0.172600 -0.001000
C -0.602600 0.507000 0.001200
C 0.472000 -0.574500 0.001000
C -1.995800 -0.105100 -0.001200
H -0.500600 1.146800 0.886100
H -0.499900 1.148900 -0.882200
H 0.380400 -1.208800 0.888400
H 0.378500 -1.212800 -0.883500
H -2.152000 -0.728200 0.885200
H -2.755700 0.682700 -0.000800
H -2.150200 -0.725500 -0.889800
H 2.012100 0.800700 -1.180400
$end
$scan
stre 1 3 1.100000 1.101000 0.100000
$end
--------------------------------------------------------------
 ----------------------------------------------------------------
             Standard Nuclear Orientation (Angstroms)
    I     Atom           X                Y                Z
 ----------------------------------------------------------------
    1      S       2.1264000000     0.1726000000    -0.0010000000
    2      C      -0.6026000000     0.5070000000     0.0012000000
    3      C       0.4720000000    -0.5745000000     0.0010000000
    4      C      -1.9958000000    -0.1051000000    -0.0012000000
    5      H      -0.5006000000     1.1468000000     0.8861000000
    6      H      -0.4999000000     1.1489000000    -0.8822000000
    7      H       0.3804000000    -1.2088000000     0.8884000000
    8      H       0.3785000000    -1.2128000000    -0.8835000000
    9      H      -2.1520000000    -0.7282000000     0.8852000000
   10      H      -2.7557000000     0.6827000000    -0.0008000000
   11      H      -2.1502000000    -0.7255000000    -0.8898000000
   12      H       2.0121000000     0.8007000000    -1.1804000000
 ----------------------------------------------------------------
 Nuclear Repulsion Energy =   163.7622964563 hartrees
 There are       21 alpha and       21 beta electrons
 Requested basis set is 6-31G(d,p)
 There are 41 shells and 104 basis functions

 Total QAlloc Memory Limit   2000 MB
 Mega-Array Size       188 MB
 MEM_STATIC part       192 MB
A total of 1 constraints
  
            1
    1   1.0100000
    2   1.0100000
    3   3.0100000
    4   1.1000000
    5   1.1010000
    6   0.1000000
    7   0.0000000
    8   0.0000000
    9   0.0000000
   10   0.0000000

                       Distance Matrix (Angstroms)
             S (  1)   C (  2)   C (  3)   C (  4)   H (  5)   H (  6)
   C (  2)  2.749413
   C (  3)  1.815269  1.524601
   C (  4)  4.131543  1.521735  2.512047
   H (  5)  2.938901  1.096721  2.166155  2.142470
   H (  6)  2.937197  1.096804  2.166735  2.141587  1.768301
   H (  7)  2.397460  2.167345  1.094626  2.766924  2.514959  3.077126
   H (  8)  2.398602  2.168632  1.094765  2.764553  3.077664  2.519765
   H (  9)  4.461109  2.169750  2.773231  1.094695  2.498549  3.062130
   H ( 10)  4.908676  2.160258  3.463900  1.094567  2.467277  2.466342
   H ( 11)  4.459356  2.169793  2.773492  1.094690  3.062762  2.497383
   H ( 12)  1.341103  2.884284  2.378821  4.274839  3.271677  2.553490
             H (  7)   H (  8)   H (  9)   H ( 10)   H ( 11)
   H (  8)  1.771906
   H (  9)  2.577603  3.125151
   H ( 10)  3.768763  3.767664  1.772029
   H ( 11)  3.130417  2.575233  1.775003  1.771998
   H ( 12)  3.313679  2.609786  4.893257  4.912972  4.442800
 
 A cutoff of  1.0D-14 yielded    829 shell pairs
 There are      5426 function pairs
 
 -------------------------------------------------------
 OpenMP Integral Computing Module                       
 Release: version 1.0, May 2013, Q-Chem Inc. Pittsburgh 
 -------------------------------------------------------
 Integral Job Info:
 Integral job number is                      11
 Integral operator is                         1
 short-range coefficients                     0
 long-range coefficients              100000000
 Omega coefficients                           0
 if combine SR and LR in K                    0
 Integral screening is                        0
 Integral computing path is                   2
 max size of driver memory is            800000
 size of driver memory is                593474
 size of scratch memory is             15267112
 max col of scratch BK array               1296
 max len of scratch array in speh3          155
 max len of scratch index in speh4           18
 max int batch size is                      520
 min int batch size is                       52
 fixed nKL is                                52
 max L of basis functions is                  2
 order of int derivative is                   0
 number of shells is                         41
 number of basis is                         104
 number of cartesian basis is               104
 number of contracted shell pairs           829
 number of primitive shell pairs           3028
 maxK2 (contraction) of shell pair           36
 max number of K2 of shell pair               1
 max number of CS2 of shell pair             70
 max number of PS2 of shell pair            252
 mem total for path MDJ                  513890
 -------------------------------------------------------
 Smallest overlap matrix eigenvalue = 5.30E-03

 Scale SEOQF with 1.000000e-01/1.000000e+00/1.000000e+00

 Standard Electronic Orientation quadrupole field applied
 Nucleus-field energy     =     0.0000000062 hartrees
 Guess from superposition of atomic densities
 Warning:  Energy on first SCF cycle will be non-variational
 SAD guess density has 42.000000 electrons

 -----------------------------------------------------------------------
  General SCF calculation program by
  Eric Jon Sundstrom, Paul Horn, Yuezhi Mao, Dmitri Zuev, Alec White,
  David Stuck, Shaama M.S., Shane Yost, Joonho Lee, David Small,
  Daniel Levine, Susi Lehtola, Hugh Burton, Evgeny Epifanovsky
 -----------------------------------------------------------------------
 Exchange:     0.2000 Hartree-Fock + 0.0800 Slater + 0.7200 B88
 Correlation:  0.1900 VWN1RPA + 0.8100 LYP
 Using SG-1 standard quadrature grid
 using 12 threads for integral computing
 -------------------------------------------------------
 OpenMP Integral computing Module                
 Release: version 1.0, May 2013, Q-Chem Inc. Pittsburgh 
 -------------------------------------------------------
 -------------------------------------------------------
 OpenMP BLAS3 based DFT computing Module                
 Release: version 1.0, May 2013, Q-Chem Inc. Pittsburgh 
 -------------------------------------------------------
 A unrestricted SCF calculation will be
 performed using DIIS
 SCF converges when DIIS error is below 1.0e-06
 Alpha HF Exchange    Energy =  -4.36269590465399
 Beta HF Exchange     Energy =  -4.36269590465399
 DFT Correlation      Energy =  -1.87649468997967
 DFT Exchange         Energy = -34.02565376800094
 One-Electron (alpha) Energy = -515.01139245976583
 One-Electron (beta)  Energy = -515.01139245976583
 Total Coulomb        Energy = 393.07326517487581
 ---------------------------------------
  Cycle       Energy         DIIS error
 ---------------------------------------
    1    -517.8147635494      3.12e-02  
 Alpha HF Exchange    Energy =  -4.37087524482510
 Beta HF Exchange     Energy =  -4.37087524482510
 DFT Correlation      Energy =  -1.90554949308412
 DFT Exchange         Energy = -34.66343827986433
 One-Electron (alpha) Energy = -518.82235471780734
 One-Electron (beta)  Energy = -518.82235471780746
 Total Coulomb        Energy = 401.93908889249974
    2    -517.2540623431      3.74e-03  
 Alpha HF Exchange    Energy =  -4.31301187683536
 Beta HF Exchange     Energy =  -4.31301187683536
 DFT Correlation      Energy =  -1.87730638322749
 DFT Exchange         Energy = -34.17589875488162
 One-Electron (alpha) Energy = -514.85466152405445
 One-Electron (beta)  Energy = -514.85466152405422
 Total Coulomb        Energy = 393.39711002528304
    3    -517.2291454520      4.32e-03  
 Alpha HF Exchange    Energy =  -4.34052928994087
 Beta HF Exchange     Energy =  -4.34052928994088
 DFT Correlation      Energy =  -1.89176895576294
 DFT Exchange         Energy = -34.40769537206039
 One-Electron (alpha) Energy = -516.88474752523666
 One-Electron (beta)  Energy = -516.88474752523689
 Total Coulomb        Energy = 397.65009639898659
    4    -517.3376250966      3.93e-04  
 Alpha HF Exchange    Energy =  -4.34170624251316
 Beta HF Exchange     Energy =  -4.34170624251316
 DFT Correlation      Energy =  -1.89192475807432
 DFT Exchange         Energy = -34.41649855487530
 One-Electron (alpha) Energy = -516.94416103536764
 One-Electron (beta)  Energy = -516.94416103536730
 Total Coulomb        Energy = 397.77939597079205
    5    -517.3384654354      1.50e-04  
 Alpha HF Exchange    Energy =  -4.34144864309696
 Beta HF Exchange     Energy =  -4.34144864309696
 DFT Correlation      Energy =  -1.89185809869411
 DFT Exchange         Energy = -34.41455602658204
 One-Electron (alpha) Energy = -516.92535800777023
 One-Electron (beta)  Energy = -516.92535800777011
 Total Coulomb        Energy = 397.73914381635643
    6    -517.3385871481      4.02e-05  
 Alpha HF Exchange    Energy =  -4.34137307275444
 Beta HF Exchange     Energy =  -4.34137307275445
 DFT Correlation      Energy =  -1.89183130494275
 DFT Exchange         Energy = -34.41391066689140
 One-Electron (alpha) Energy = -516.91826134065411
 One-Electron (beta)  Energy = -516.91826134065434
 Total Coulomb        Energy = 397.72411915765713
    7    -517.3385951784      9.11e-06  
 Alpha HF Exchange    Energy =  -4.34141727459029
 Beta HF Exchange     Energy =  -4.34141727459029
 DFT Correlation      Energy =  -1.89184885674476
 DFT Exchange         Energy = -34.41426466150831
 One-Electron (alpha) Energy = -516.92284333997952
 One-Electron (beta)  Energy = -516.92284333997964
 Total Coulomb        Energy = 397.73374261612730
    8    -517.3385956687      1.43e-06  
 Alpha HF Exchange    Energy =  -4.34141497723541
 Beta HF Exchange     Energy =  -4.34141497723540
 DFT Correlation      Energy =  -1.89184782026157
 DFT Exchange         Energy = -34.41424559748145
 One-Electron (alpha) Energy = -516.92250848350045
 One-Electron (beta)  Energy = -516.92250848349988
 Total Coulomb        Energy = 397.73304819550492
    9    -517.3385956811      3.60e-07  Convergence criterion met
 ---------------------------------------
 SCF time:   CPU 22.28s  wall 2.00s 
<S^2> =         -0.000000000
 Alpha HF Exchange    Energy =  -4.34141497723541
 Beta HF Exchange     Energy =  -4.34141497723540
 DFT Correlation      Energy =  -1.89184782026157
 DFT Exchange         Energy = -34.41424559748145
 One-Electron (alpha) Energy = -516.92250848350045
 One-Electron (beta)  Energy = -516.92250848349988
 Total Coulomb        Energy = 397.73304819550492
 Nuclear repulsion Energy = 163.76229646256400
 SCF   energy in the final basis set =     -517.3385956811
 Total energy in the final basis set =     -517.3385956811
 
 --------------------------------------------------------------
 
                    Orbital Energies (a.u.)
 --------------------------------------------------------------
 
 Alpha MOs
 -- Occupied --
-88.868 -10.217 -10.190 -10.179  -7.931  -5.897  -5.893  -5.886
 -0.814  -0.742  -0.647  -0.592  -0.481  -0.440  -0.415  -0.404
 -0.374  -0.352  -0.342  -0.314  -0.232
 -- Virtual --
  0.032   0.075   0.102   0.127   0.134   0.157   0.176   0.177
  0.185   0.220   0.239   0.348   0.364   0.387   0.407   0.500
  0.519   0.525   0.556   0.581   0.651   0.659   0.680   0.733
  0.781   0.791   0.836   0.850   0.862   0.884   0.888   0.910
  0.939   0.944   0.984   1.044   1.121   1.158   1.318   1.370
  1.386   1.566   1.614   1.656   1.684   1.837   1.867   1.962
  2.033   2.049   2.064   2.085   2.094   2.110   2.150   2.158
  2.216   2.264   2.269   2.342   2.446   2.476   2.523   2.593
  2.692   2.725   2.740   2.776   2.801   2.849   2.894   2.915
  3.175   3.239   3.315   3.329   3.468   3.478   3.552   3.992
  4.280   4.460   4.634
 
 Beta MOs
 -- Occupied --
-88.868 -10.217 -10.190 -10.179  -7.931  -5.897  -5.893  -5.886
 -0.814  -0.742  -0.647  -0.592  -0.481  -0.440  -0.415  -0.404
 -0.374  -0.352  -0.342  -0.314  -0.232
 -- Virtual --
  0.032   0.075   0.102   0.127   0.134   0.157   0.176   0.177
  0.185   0.220   0.239   0.348   0.364   0.387   0.407   0.500
  0.519   0.525   0.556   0.581   0.651   0.659   0.680   0.733
  0.781   0.791   0.836   0.850   0.862   0.884   0.888   0.910
  0.939   0.944   0.984   1.044   1.121   1.158   1.318   1.370
  1.386   1.566   1.614   1.656   1.684   1.837   1.867   1.962
  2.033   2.049   2.064   2.085   2.094   2.110   2.150   2.158
  2.216   2.264   2.269   2.342   2.446   2.476   2.523   2.593
  2.692   2.725   2.740   2.776   2.801   2.849   2.894   2.915
  3.175   3.239   3.315   3.329   3.468   3.478   3.552   3.992
  4.280   4.460   4.634
 --------------------------------------------------------------
 
          Ground-State Mulliken Net Atomic Charges

     Atom                 Charge (a.u.)    Spin (a.u.)
  --------------------------------------------------------
      1 S                    -0.046721       0.000000
      2 C                    -0.165872      -0.000000
      3 C                    -0.328556       0.000000
      4 C                    -0.321521      -0.000000
      5 H                     0.116661      -0.000000
      6 H                     0.098114      -0.000000
      7 H                     0.139879      -0.000000
      8 H                     0.135377      -0.000000
      9 H                     0.105125       0.000000
     10 H                     0.107238       0.000000
     11 H                     0.103684      -0.000000
     12 H                     0.056592      -0.000000
  --------------------------------------------------------
  Sum of atomic charges =    -0.000000
  Sum of spin   charges =     0.000000

 -----------------------------------------------------------------
                    Cartesian Multipole Moments
 -----------------------------------------------------------------
    Charge (ESU x 10^10)
                -0.0000
    Dipole Moment (Debye)
         X      -1.7111      Y      -0.1323      Z      -0.7362
       Tot       1.8674
    Quadrupole Moments (Debye-Ang)
        XX     -39.2061     XY       0.5586     YY     -34.0426
        XZ      -1.7492     YZ      -1.6569     ZZ     -32.5262
    Octopole Moments (Debye-Ang^2)
       XXX     -49.7600    XXY       3.6412    XYY     -13.8509
       YYY      -4.5581    XXZ      -2.5708    XYZ      -3.5253
       YYZ       0.1141    XZZ     -11.2284    YZZ      -1.7138
       ZZZ       1.7052
    Hexadecapole Moments (Debye-Ang^3)
      XXXX    -668.5677   XXXY       0.3728   XXYY    -122.4244
      XYYY     -11.5884   YYYY     -96.1771   XXXZ      -2.3381
      XXYZ      -7.3193   XYYZ      -0.3281   YYYZ       0.2554
      XXZZ    -113.7440   XYZZ      -2.0489   YYZZ     -24.0228
      XZZZ       2.9407   YZZZ      -0.0870   ZZZZ     -62.5400
 -----------------------------------------------------------------
 Calculating analytic gradient of the SCF energy
 Gradient of SCF Energy
            1           2           3           4           5           6
    1  -0.0163273   0.0085486   0.0053208   0.0055395  -0.0037789  -0.0030454
    2   0.0024652   0.0020527  -0.0057975  -0.0010120  -0.0001037  -0.0003477
    3  -0.0069749  -0.0022266   0.0065258   0.0006669   0.0016796  -0.0007949
            7           8           9          10          11          12
    1  -0.0035721   0.0016161   0.0012573   0.0018070   0.0014913   0.0011429
    2  -0.0009264   0.0017945   0.0008423   0.0014277   0.0010223  -0.0014173
    3   0.0000754  -0.0018115   0.0000461  -0.0000232  -0.0000926   0.0029298
 Max gradient component =       1.633E-02
 RMS gradient           =       4.126E-03
 Gradient time:  CPU 8.59 s  wall 0.72 s
 Geometry Optimization Parameters
   NAtoms,    NIC,     NZ,  NCons,   NDum,   NFix, NCnnct, MaxDiis
       12      75       0       1       0       0       0       0


** CONSTRAINED OPTIMIZATION IN DELOCALIZED INTERNAL COORDINATES **
   Searching for a Minimum

   Optimization Cycle:   1

                       Coordinates (Angstroms)
     ATOM                X               Y               Z
      1  S         2.1264000000    0.1726000000   -0.0010000000
      2  C        -0.6026000000    0.5070000000    0.0012000000
      3  C         0.4720000000   -0.5745000000    0.0010000000
      4  C        -1.9958000000   -0.1051000000   -0.0012000000
      5  H        -0.5006000000    1.1468000000    0.8861000000
      6  H        -0.4999000000    1.1489000000   -0.8822000000
      7  H         0.3804000000   -1.2088000000    0.8884000000
      8  H         0.3785000000   -1.2128000000   -0.8835000000
      9  H        -2.1520000000   -0.7282000000    0.8852000000
     10  H        -2.7557000000    0.6827000000   -0.0008000000
     11  H        -2.1502000000   -0.7255000000   -0.8898000000
     12  H         2.0121000000    0.8007000000   -1.1804000000
   Point Group: c1    Number of degrees of freedom:    30


   Energy is   -517.338595681

              Constraints and their Current Values
                                        Value     Constraint
   Distance(Angs):        1   3             1.815269     1.100000

 Attempting to Generate Delocalized Internal Coordinates
**WARNING** Constraint Gradient Reduced for constraint   1

   Using Lagrange Multiplier Algorithm


 31 Hessian modes will be used to form the next step
  Hessian Eigenvalues:
    -0.883002    0.045000    0.045000    0.045000    0.069569    0.078193
     0.078656    0.082910    0.083633    0.084337    0.101608    0.125090
     0.130521    0.143153    0.160000    0.160000    0.160000    0.160000
     0.219364    0.220567    0.263341    0.299277    0.302000    0.340381
     0.340474    0.342678    0.342757    0.342763    0.342835    0.342901
     1.132500

 Minimum Search - Taking P-RFO Step
 Searching for Lamda that Maximizes Along the Constraint modes Only
 Value Taken    Lamda =   0.05806611


 ********************************************
 ** ERROR IN DETERMINING Lamda IN CONFormD **
 ********************************************


 ** Scaling Hessian by  2.580716 **


 31 Hessian modes will be used to form the next step
  Hessian Eigenvalues:
    -0.728604    0.116132    0.116132    0.116132    0.179538    0.201794
     0.202989    0.213966    0.215833    0.217651    0.262221    0.322822
     0.336837    0.369438    0.412915    0.412915    0.412915    0.412915
     0.566116    0.569221    0.679609    0.772349    0.779377    0.878426
     0.878667    0.884354    0.884558    0.884573    0.884759    0.884931
     1.372488

 Minimum Search - Taking P-RFO Step
 Searching for Lamda that Maximizes Along the Constraint modes Only
 Value Taken    Lamda =   0.07773958
 Searching for Lamda that Minimizes Along All other modes
 Value Taken    Lamda =  -0.02094816
 Step Taken.  Stepsize is  0.283942

                             Maximum     Tolerance    Cnvgd?
         Gradient            0.300000       0.000300      NO
         Displacement        0.279023       0.001200      NO
         Energy change     *********       0.000001      NO


 New Cartesian Coordinates Obtained by Inverse Iteration

 Displacement from previous Coordinates is:  0.318896
 ----------------------------------------------------------------
             Standard Nuclear Orientation (Angstroms)
    I     Atom           X                Y                Z
 ----------------------------------------------------------------
    1      S       2.0317438328     0.1181995263     0.0132409886
    2      C      -0.5900246744     0.5191422094     0.0009757630
    3      C       0.5033445469    -0.5486554103    -0.0024002412
    4      C      -1.9855833192    -0.1042340381    -0.0059173706
    5      H      -0.4862079567     1.1564398016     0.8867804446
    6      H      -0.4854622872     1.1653166413    -0.8789711435
    7      H       0.4184728351    -1.1860341705     0.8828091958
    8      H       0.4120084391    -1.1881180223    -0.8860774799
    9      H      -2.1408945425    -0.7333246044     0.8768562741
   10      H      -2.7557333511     0.6737176025    -0.0032232818
   11      H      -2.1378013204    -0.7240096931    -0.8958521826
   12      H       1.9287377976     0.7553601574    -1.1652209666
 ----------------------------------------------------------------
 Nuclear Repulsion Energy =   167.9149110752 hartrees
 There are       21 alpha and       21 beta electrons

                       Distance Matrix (Angstroms)
             S (  1)   C (  2)   C (  3)   C (  4)   H (  5)   H (  6)
   C (  2)  2.652277
   C (  3)  1.667616  1.528286
   C (  4)  4.023526  1.528473  2.528297
   H (  5)  2.860261  1.096164  2.162685  2.152750
   H (  6)  2.868593  1.096714  2.164212  2.150429  1.765774
   H (  7)  2.249404  2.168484  1.094098  2.782016  2.511105  3.074056
   H (  8)  2.266888  2.169256  1.094596  2.774515  3.073560  2.518761
   H (  9)  4.345323  2.177392  2.792704  1.095064  2.511831  3.070541
   H ( 10)  4.819627  2.171222  3.480774  1.094690  2.485130  2.482486
   H ( 11)  4.349813  2.178380  2.793682  1.095115  3.072724  2.509993
   H ( 12)  1.343636  2.785674  2.254851  4.171906  3.194298  2.465434
             H (  7)   H (  8)   H (  9)   H ( 10)   H ( 11)
   H (  8)  1.768900
   H (  9)  2.599104  3.135616
   H ( 10)  3.784087  3.778948  1.769840
   H ( 11)  3.148276  2.591722  1.772736  1.769821
   H ( 12)  3.200678  2.481027  4.790425  4.827129  4.335647
 
 Applying Cartesian multipole field
    Component          Value
    ---------          -----
     (2,0,0)        1.00000E-11
     (0,2,0)        2.00000E-10
     (0,0,2)       -3.00000E-10
 Nucleus-field energy     =     0.0000000057 hartrees
 Requested basis set is 6-31G(d,p)
 There are 41 shells and 104 basis functions
 A cutoff of  1.0D-14 yielded    832 shell pairs
 There are      5437 function pairs
 Smallest overlap matrix eigenvalue = 5.23E-03
 Guess from superposition of atomic densities
 Warning:  Energy on first SCF cycle will be non-variational
 SAD guess density has 42.000000 electrons

 -----------------------------------------------------------------------
  General SCF calculation program by
  Eric Jon Sundstrom, Paul Horn, Yuezhi Mao, Dmitri Zuev, Alec White,
  David Stuck, Shaama M.S., Shane Yost, Joonho Lee, David Small,
  Daniel Levine, Susi Lehtola, Hugh Burton, Evgeny Epifanovsky
 -----------------------------------------------------------------------
 Exchange:     0.2000 Hartree-Fock + 0.0800 Slater + 0.7200 B88
 Correlation:  0.1900 VWN1RPA + 0.8100 LYP
 Using SG-1 standard quadrature grid
 using 12 threads for integral computing
 -------------------------------------------------------
 OpenMP Integral computing Module                
 Release: version 1.0, May 2013, Q-Chem Inc. Pittsburgh 
 -------------------------------------------------------
 -------------------------------------------------------
 OpenMP BLAS3 based DFT computing Module                
 Release: version 1.0, May 2013, Q-Chem Inc. Pittsburgh 
 -------------------------------------------------------
 A unrestricted SCF calculation will be
 performed using DIIS
 SCF converges when DIIS error is below 1.0e-06
 Alpha HF Exchange    Energy =  -4.37803748594188
 Beta HF Exchange     Energy =  -4.37803748594188
 DFT Correlation      Energy =  -1.88030915246527
 DFT Exchange         Energy = -34.05642023469601
 One-Electron (alpha) Energy = -519.10337968054966
 One-Electron (beta)  Energy = -519.10337968054966
 Total Coulomb        Energy = 397.01455162508682
 ---------------------------------------
  Cycle       Energy         DIIS error
 ---------------------------------------
    1    -517.9701010142      3.30e-02  
 Alpha HF Exchange    Energy =  -4.37778784207217
 Beta HF Exchange     Energy =  -4.37778784207216
 DFT Correlation      Energy =  -1.91005848975144
 DFT Exchange         Energy = -34.71384562620018
 One-Electron (alpha) Energy = -523.06830844867090
 One-Electron (beta)  Energy = -523.06830844867079
 Total Coulomb        Energy = 406.36526063454380
    2    -517.2359249820      3.86e-03  
 Alpha HF Exchange    Energy =  -4.31678197750386
 Beta HF Exchange     Energy =  -4.31678197750385
 DFT Correlation      Energy =  -1.88041302859799
 DFT Exchange         Energy = -34.20137112583870
 One-Electron (alpha) Energy = -518.76017776021274
 One-Electron (beta)  Energy = -518.76017776021240
 Total Coulomb        Energy = 397.11168052188009
    3    -517.2091120271      4.46e-03  
 Alpha HF Exchange    Energy =  -4.34638768570920
 Beta HF Exchange     Energy =  -4.34638768570921
 DFT Correlation      Energy =  -1.89572805267579
 DFT Exchange         Energy = -34.44949838085419
 One-Electron (alpha) Energy = -521.01623467641900
 One-Electron (beta)  Energy = -521.01623467641912
 Total Coulomb        Energy = 401.83078891983723
    4    -517.3247711571      3.47e-04  
 Alpha HF Exchange    Energy =  -4.34734261849800
 Beta HF Exchange     Energy =  -4.34734261849800
 DFT Correlation      Energy =  -1.89584437202133
 DFT Exchange         Energy = -34.45671281751601
 One-Electron (alpha) Energy = -521.05040971906647
 One-Electron (beta)  Energy = -521.05040971906647
 Total Coulomb        Energy = 401.90774336736013
    5    -517.3254074164      1.28e-04  
 Alpha HF Exchange    Energy =  -4.34709123155955
 Beta HF Exchange     Energy =  -4.34709123155955
 DFT Correlation      Energy =  -1.89576769203356
 DFT Exchange         Energy = -34.45474348362064
 One-Electron (alpha) Energy = -521.03508676570993
 One-Electron (beta)  Energy = -521.03508676570971
 Total Coulomb        Energy = 401.87446317037904
    6    -517.3254929189      3.67e-05  
 Alpha HF Exchange    Energy =  -4.34704829508753
 Beta HF Exchange     Energy =  -4.34704829508753
 DFT Correlation      Energy =  -1.89575571955113
 DFT Exchange         Energy = -34.45437956199113
 One-Electron (alpha) Energy = -521.03018109549362
 One-Electron (beta)  Energy = -521.03018109549328
 Total Coulomb        Energy = 401.86418337817844
    7    -517.3254996037      7.76e-06  
 Alpha HF Exchange    Energy =  -4.34708678489539
 Beta HF Exchange     Energy =  -4.34708678489539
 DFT Correlation      Energy =  -1.89577032144122
 DFT Exchange         Energy = -34.45468529283466
 One-Electron (alpha) Energy = -521.03425948111715
 One-Electron (beta)  Energy = -521.03425948111715
 Total Coulomb        Energy = 401.87273710594428
    8    -517.3254999595      1.28e-06  
 Alpha HF Exchange    Energy =  -4.34708406823822
 Beta HF Exchange     Energy =  -4.34708406823821
 DFT Correlation      Energy =  -1.89576924562751
 DFT Exchange         Energy = -34.45466320348219
 One-Electron (alpha) Energy = -521.03388191042450
 One-Electron (beta)  Energy = -521.03388191042438
 Total Coulomb        Energy = 401.87195335670538
    9    -517.3254999689      3.81e-07  Convergence criterion met
 ---------------------------------------
 SCF time:   CPU 21.81s  wall 2.00s 
<S^2> =         -0.000000000
 Alpha HF Exchange    Energy =  -4.34708406823822
 Beta HF Exchange     Energy =  -4.34708406823821
 DFT Correlation      Energy =  -1.89576924562751
 DFT Exchange         Energy = -34.45466320348219
 One-Electron (alpha) Energy = -521.03388191042450
 One-Electron (beta)  Energy = -521.03388191042438
 Total Coulomb        Energy = 401.87195335670538
 Nuclear repulsion Energy = 167.91491108086569
 SCF   energy in the final basis set =     -517.3254999689
 Total energy in the final basis set =     -517.3254999689
 
 --------------------------------------------------------------
 
                    Orbital Energies (a.u.)
 --------------------------------------------------------------
 
 Alpha MOs
 -- Occupied --
-88.864 -10.207 -10.189 -10.178  -7.930  -5.895  -5.891  -5.884
 -0.834  -0.750  -0.640  -0.593  -0.488  -0.443  -0.419  -0.409
 -0.374  -0.352  -0.342  -0.315  -0.227
 -- Virtual --
  0.036   0.092   0.115   0.125   0.133   0.159   0.173   0.179
  0.186   0.216   0.237   0.361   0.363   0.387   0.413   0.507
  0.524   0.529   0.560   0.590   0.647   0.658   0.682   0.739
  0.780   0.789   0.822   0.858   0.860   0.887   0.890   0.912
  0.938   0.952   1.032   1.061   1.136   1.178   1.330   1.382
  1.410   1.565   1.627   1.655   1.681   1.832   1.869   1.974
  2.030   2.050   2.065   2.083   2.108   2.118   2.169   2.222
  2.236   2.268   2.280   2.348   2.450   2.488   2.526   2.607
  2.696   2.728   2.742   2.785   2.802   2.854   2.892   2.914
  3.177   3.245   3.320   3.333   3.469   3.479   3.552   4.014
  4.288   4.471   4.637
 
 Beta MOs
 -- Occupied --
-88.864 -10.207 -10.189 -10.178  -7.930  -5.895  -5.891  -5.884
 -0.834  -0.750  -0.640  -0.593  -0.488  -0.443  -0.419  -0.409
 -0.374  -0.352  -0.342  -0.315  -0.227
 -- Virtual --
  0.036   0.092   0.115   0.125   0.133   0.159   0.173   0.179
  0.186   0.216   0.237   0.361   0.363   0.387   0.413   0.507
  0.524   0.529   0.560   0.590   0.647   0.658   0.682   0.739
  0.780   0.789   0.822   0.858   0.860   0.887   0.890   0.912
  0.938   0.952   1.032   1.061   1.136   1.178   1.330   1.382
  1.410   1.565   1.627   1.655   1.681   1.832   1.869   1.974
  2.030   2.050   2.065   2.083   2.108   2.118   2.169   2.222
  2.236   2.268   2.280   2.348   2.450   2.488   2.526   2.607
  2.696   2.728   2.742   2.785   2.802   2.854   2.892   2.914
  3.177   3.245   3.320   3.333   3.469   3.479   3.552   4.014
  4.288   4.471   4.637
 --------------------------------------------------------------
 
          Ground-State Mulliken Net Atomic Charges

     Atom                 Charge (a.u.)    Spin (a.u.)
  --------------------------------------------------------
      1 S                    -0.023602       0.000000
      2 C                    -0.172573      -0.000000
      3 C                    -0.330590       0.000000
      4 C                    -0.321344       0.000000
      5 H                     0.115311      -0.000000
      6 H                     0.096456      -0.000000
      7 H                     0.139903      -0.000000
      8 H                     0.132284       0.000000
      9 H                     0.104680      -0.000000
     10 H                     0.105658      -0.000000
     11 H                     0.103477      -0.000000
     12 H                     0.050340      -0.000000
  --------------------------------------------------------
  Sum of atomic charges =    -0.000000
  Sum of spin   charges =     0.000000

 -----------------------------------------------------------------
                    Cartesian Multipole Moments
 -----------------------------------------------------------------
    Charge (ESU x 10^10)
                 0.0000
    Dipole Moment (Debye)
         X      -1.5715      Y      -0.1379      Z      -0.7059
       Tot       1.7283
    Quadrupole Moments (Debye-Ang)
        XX     -38.9749     XY       0.4258     YY     -34.0356
        XZ      -1.6737     YZ      -1.5799     ZZ     -32.4806
    Octopole Moments (Debye-Ang^2)
       XXX     -45.9518    XXY       3.5889    XYY     -12.7297
       YYY      -3.1115    XXZ      -2.4988    XYZ      -3.1964
       YYZ       0.1954    XZZ     -10.2607    YZZ      -1.4212
       ZZZ       1.4031
    Hexadecapole Moments (Debye-Ang^3)
      XXXX    -631.5622   XXXY       4.6258   XXYY    -116.6037
      XYYY      -6.3043   YYYY     -93.8667   XXXZ      -3.3822
      XXYZ      -6.4057   XYYZ      -0.4182   YYYZ       0.1351
      XXZZ    -108.6375   XYZZ      -0.7386   YYZZ     -23.7609
      XZZZ       1.5799   YZZZ      -0.1633   ZZZZ     -62.4110
 -----------------------------------------------------------------
 Calculating analytic gradient of the SCF energy
 Gradient of SCF Energy
            1           2           3           4           5           6
    1  -0.0887589   0.0151577   0.0664396   0.0034327  -0.0031141  -0.0027641
    2  -0.0321151   0.0055515   0.0236745  -0.0023011  -0.0002838  -0.0003000
    3  -0.0043459  -0.0024696   0.0056850   0.0005823   0.0011137  -0.0002900
            7           8           9          10          11          12
    1   0.0022595   0.0077800   0.0005693   0.0012400   0.0006906  -0.0029324
    2   0.0015880   0.0048079   0.0005386   0.0009869   0.0006854  -0.0028328
    3   0.0000667  -0.0021269   0.0000389   0.0000010  -0.0001037   0.0018485
 Max gradient component =       8.876E-02
 RMS gradient           =       1.997E-02
 Gradient time:  CPU 8.13 s  wall 0.68 s
 Geometry Optimization Parameters
   NAtoms,    NIC,     NZ,  NCons,   NDum,   NFix, NCnnct, MaxDiis
       12      75       0       1       0       0       0       0

 Cartesian Hessian Update
 Hessian Updated using BFGS Update


** CONSTRAINED OPTIMIZATION IN DELOCALIZED INTERNAL COORDINATES **
   Searching for a Minimum

   Optimization Cycle:   2

                       Coordinates (Angstroms)
     ATOM                X               Y               Z
      1  S         2.0317438328    0.1181995263    0.0132409886
      2  C        -0.5900246744    0.5191422094    0.0009757630
      3  C         0.5033445469   -0.5486554103   -0.0024002412
      4  C        -1.9855833192   -0.1042340381   -0.0059173706
      5  H        -0.4862079567    1.1564398016    0.8867804446
      6  H        -0.4854622872    1.1653166413   -0.8789711435
      7  H         0.4184728351   -1.1860341705    0.8828091958
      8  H         0.4120084391   -1.1881180223   -0.8860774799
      9  H        -2.1408945425   -0.7333246044    0.8768562741
     10  H        -2.7557333511    0.6737176025   -0.0032232818
     11  H        -2.1378013204   -0.7240096931   -0.8958521826
     12  H         1.9287377976    0.7553601574   -1.1652209666
   Point Group: c1    Number of degrees of freedom:    30


   Energy is   -517.325499969

              Constraints and their Current Values
                                        Value     Constraint
   Distance(Angs):        1   3             1.667616     1.100000
 Hessian Updated using BFGS Update
**WARNING** Constraint Gradient Reduced for constraint   1

   Using Lagrange Multiplier Algorithm


 28 Hessian modes will be used to form the next step
  Hessian Eigenvalues:
    -0.857023    0.116131    0.116134    0.179536    0.201289    0.202901
     0.213954    0.215833    0.219138    0.261700    0.324736    0.336836
     0.369098    0.412506    0.417819    0.559611    0.566532    0.679360
     0.770775    0.778654    0.878430    0.878658    0.884417    0.884554
     0.884569    0.884915    0.884933    1.177989

 Minimum Search - Taking P-RFO Step
 Searching for Lamda that Maximizes Along the Constraint modes Only
 Value Taken    Lamda =   0.03342179
 Searching for Lamda that Minimizes Along All other modes
 Value Taken    Lamda =  -0.05927761
 Calculated Step too Large.  Step scaled by  0.965440
 Step Taken.  Stepsize is  0.300000

                             Maximum     Tolerance    Cnvgd?
         Gradient            0.300000       0.000300      NO
         Displacement        0.276646       0.001200      NO
         Energy change      0.013096       0.000001      NO


 New Cartesian Coordinates Obtained by Inverse Iteration

 Displacement from previous Coordinates is:  0.255410
 ----------------------------------------------------------------
             Standard Nuclear Orientation (Angstroms)
    I     Atom           X                Y                Z
 ----------------------------------------------------------------
    1      S       1.9509587646     0.0553284959     0.0207817490
    2      C      -0.5869497252     0.5301633214    -0.0007885210
    3      C       0.5409388754    -0.5147215013    -0.0108844000
    4      C      -1.9834950194    -0.1076202940    -0.0060613316
    5      H      -0.4781537582     1.1669914347     0.8841343151
    6      H      -0.4843197573     1.1792326933    -0.8791079726
    7      H       0.4455210195    -1.1547661181     0.8726972906
    8      H       0.4201167404    -1.1607710543    -0.8885277553
    9      H      -2.1318947532    -0.7419356519     0.8746732096
   10      H      -2.7673567285     0.6567339494     0.0004346110
   11      H      -2.1341566412    -0.7290226453    -0.8956995018
   12      H       1.9213909832     0.7241873701    -1.1486516930
 ----------------------------------------------------------------
 Nuclear Repulsion Energy =   172.0658395682 hartrees
 There are       21 alpha and       21 beta electrons

                       Distance Matrix (Angstroms)
             S (  1)   C (  2)   C (  3)   C (  4)   H (  5)   H (  6)
   C (  2)  2.582037
   C (  3)  1.521222  1.537537
   C (  4)  3.937918  1.535296  2.557053
   H (  5)  2.807447  1.095662  2.160501  2.164055
   H (  6)  2.829053  1.096936  2.162047  2.160030  1.763296
   H (  7)  2.111026  2.160546  1.095207  2.787266  2.498773  3.062838
   H (  8)  2.156205  2.159056  1.096465  2.768614  3.060670  2.508727
   H (  9)  4.246699  2.184382  2.824868  1.095478  2.525659  3.079146
   H ( 10)  4.756533  2.184078  3.509595  1.094860  2.506340  2.501771
   H ( 11)  4.259497  2.186382  2.825767  1.095580  3.083022  2.522633
   H ( 12)  1.347524  2.765322  2.176019  4.152776  3.175864  2.463161
             H (  7)   H (  8)   H (  9)   H ( 10)   H ( 11)
   H (  8)  1.761418
   H (  9)  2.610269  3.130026
   H ( 10)  3.790113  3.775389  1.767592
   H ( 11)  3.156457  2.590516  1.770421  1.767575
   H ( 12)  3.129618  2.423749  4.761563  4.827971  4.315469
 
 Applying Cartesian multipole field
    Component          Value
    ---------          -----
     (2,0,0)        1.00000E-11
     (0,2,0)        2.00000E-10
     (0,0,2)       -3.00000E-10
 Nucleus-field energy     =     0.0000000052 hartrees
 Requested basis set is 6-31G(d,p)
 There are 41 shells and 104 basis functions
 A cutoff of  1.0D-14 yielded    835 shell pairs
 There are      5469 function pairs
 Smallest overlap matrix eigenvalue = 5.18E-03
 Guess from superposition of atomic densities
 Warning:  Energy on first SCF cycle will be non-variational
 SAD guess density has 42.000000 electrons

 -----------------------------------------------------------------------
  General SCF calculation program by
  Eric Jon Sundstrom, Paul Horn, Yuezhi Mao, Dmitri Zuev, Alec White,
  David Stuck, Shaama M.S., Shane Yost, Joonho Lee, David Small,
  Daniel Levine, Susi Lehtola, Hugh Burton, Evgeny Epifanovsky
 -----------------------------------------------------------------------
 Exchange:     0.2000 Hartree-Fock + 0.0800 Slater + 0.7200 B88
 Correlation:  0.1900 VWN1RPA + 0.8100 LYP
 Using SG-1 standard quadrature grid
 using 12 threads for integral computing
 -------------------------------------------------------
 OpenMP Integral computing Module                
 Release: version 1.0, May 2013, Q-Chem Inc. Pittsburgh 
 -------------------------------------------------------
 -------------------------------------------------------
 OpenMP BLAS3 based DFT computing Module                
 Release: version 1.0, May 2013, Q-Chem Inc. Pittsburgh 
 -------------------------------------------------------
 A unrestricted SCF calculation will be
 performed using DIIS
 SCF converges when DIIS error is below 1.0e-06
 Alpha HF Exchange    Energy =  -4.39622149079861
 Beta HF Exchange     Energy =  -4.39622149079861
 DFT Correlation      Energy =  -1.88416456193815
 DFT Exchange         Energy = -34.09420381231729
 One-Electron (alpha) Energy = -523.14471876072889
 One-Electron (beta)  Energy = -523.14471876072889
 Total Coulomb        Energy = 400.82749814146496
 ---------------------------------------
  Cycle       Energy         DIIS error
 ---------------------------------------
    1    -518.1669111624      3.58e-02  
 Alpha HF Exchange    Energy =  -4.38615277617725
 Beta HF Exchange     Energy =  -4.38615277617726
 DFT Correlation      Energy =  -1.91502535621763
 DFT Exchange         Energy = -34.77916496040580
 One-Electron (alpha) Energy = -527.33522794785665
 One-Electron (beta)  Energy = -527.33522794785711
 Total Coulomb        Energy = 410.88724622563842
    2    -517.1838659656      4.06e-03  
 Alpha HF Exchange    Energy =  -4.32044280976513
 Beta HF Exchange     Energy =  -4.32044280976513
 DFT Correlation      Energy =  -1.88327374626310
 DFT Exchange         Energy = -34.22863088701007
 One-Electron (alpha) Energy = -522.51932574121167
 One-Electron (beta)  Energy = -522.51932574121156
 Total Coulomb        Energy = 400.57326338080662
    3    -517.1523387810      4.72e-03  
 Alpha HF Exchange    Energy =  -4.35305218325082
 Beta HF Exchange     Energy =  -4.35305218325083
 DFT Correlation      Energy =  -1.89987756729951
 DFT Exchange         Energy = -34.50083467163584
 One-Electron (alpha) Energy = -525.10131646803643
 One-Electron (beta)  Energy = -525.10131646803643
 Total Coulomb        Energy = 405.96231960351071
    4    -517.2812903646      3.26e-04  
 Alpha HF Exchange    Energy =  -4.35378462618587
 Beta HF Exchange     Energy =  -4.35378462618587
 DFT Correlation      Energy =  -1.89994034961427
 DFT Exchange         Energy = -34.50635262295717
 One-Electron (alpha) Energy = -525.10991284684110
 One-Electron (beta)  Energy = -525.10991284684098
 Total Coulomb        Energy = 405.98601212053433
    5    -517.2818362247      1.24e-04  
 Alpha HF Exchange    Energy =  -4.35354744116181
 Beta HF Exchange     Energy =  -4.35354744116181
 DFT Correlation      Energy =  -1.89985941447315
 DFT Exchange         Energy = -34.50445476460384
 One-Electron (alpha) Energy = -525.09857675299190
 One-Electron (beta)  Energy = -525.09857675299190
 Total Coulomb        Energy = 405.96080924198861
    6    -517.2819137520      3.57e-05  
 Alpha HF Exchange    Energy =  -4.35351993824511
 Beta HF Exchange     Energy =  -4.35351993824511
 DFT Correlation      Energy =  -1.89985540848326
 DFT Exchange         Energy = -34.50422423270400
 One-Electron (alpha) Energy = -525.09470444958333
 One-Electron (beta)  Energy = -525.09470444958333
 Total Coulomb        Energy = 405.95276870278269
    7    -517.2819201407      6.97e-06  
 Alpha HF Exchange    Energy =  -4.35355385777480
 Beta HF Exchange     Energy =  -4.35355385777479
 DFT Correlation      Energy =  -1.89986782870383
 DFT Exchange         Energy = -34.50449254963574
 One-Electron (alpha) Energy = -525.09832381572915
 One-Electron (beta)  Energy = -525.09832381572880
 Total Coulomb        Energy = 405.96035572387439
    8    -517.2819204281      1.02e-06  
 Alpha HF Exchange    Energy =  -4.35355145901184
 Beta HF Exchange     Energy =  -4.35355145901182
 DFT Correlation      Energy =  -1.89986701572218
 DFT Exchange         Energy = -34.50447312101410
 One-Electron (alpha) Energy = -525.09797054405658
 One-Electron (beta)  Energy = -525.09797054405567
 Total Coulomb        Energy = 405.95962413604764
    9    -517.2819204334      3.99e-07  Convergence criterion met
 ---------------------------------------
 SCF time:   CPU 22.08s  wall 2.00s 
<S^2> =          0.000000000
 Alpha HF Exchange    Energy =  -4.35355145901184
 Beta HF Exchange     Energy =  -4.35355145901182
 DFT Correlation      Energy =  -1.89986701572218
 DFT Exchange         Energy = -34.50447312101410
 One-Electron (alpha) Energy = -525.09797054405658
 One-Electron (beta)  Energy = -525.09797054405567
 Total Coulomb        Energy = 405.95962413604764
 Nuclear repulsion Energy = 172.06583957340933
 SCF   energy in the final basis set =     -517.2819204334
 Total energy in the final basis set =     -517.2819204334
 
 --------------------------------------------------------------
 
                    Orbital Energies (a.u.)
 --------------------------------------------------------------
 
 Alpha MOs
 -- Occupied --
-88.857 -10.199 -10.188 -10.179  -7.928  -5.893  -5.888  -5.882
 -0.865  -0.754  -0.635  -0.594  -0.498  -0.448  -0.425  -0.414
 -0.376  -0.352  -0.344  -0.311  -0.219
 -- Virtual --
  0.040   0.092   0.116   0.130   0.137   0.160   0.169   0.182
  0.187   0.211   0.236   0.359   0.372   0.395   0.419   0.518
  0.532   0.537   0.569   0.610   0.637   0.669   0.685   0.740
  0.781   0.783   0.801   0.860   0.862   0.882   0.892   0.908
  0.936   0.966   1.058   1.069   1.136   1.273   1.343   1.379
  1.452   1.568   1.643   1.663   1.680   1.825   1.866   1.981
  2.033   2.052   2.067   2.084   2.111   2.122   2.180   2.227
  2.263   2.284   2.333   2.351   2.451   2.510   2.528   2.625
  2.702   2.733   2.745   2.790   2.800   2.859   2.890   2.912
  3.176   3.246   3.322   3.334   3.468   3.474   3.554   4.036
  4.291   4.486   4.642
 
 Beta MOs
 -- Occupied --
-88.857 -10.199 -10.188 -10.179  -7.928  -5.893  -5.888  -5.882
 -0.865  -0.754  -0.635  -0.594  -0.498  -0.448  -0.425  -0.414
 -0.376  -0.352  -0.344  -0.311  -0.219
 -- Virtual --
  0.040   0.092   0.116   0.130   0.137   0.160   0.169   0.182
  0.187   0.211   0.236   0.359   0.372   0.395   0.419   0.518
  0.532   0.537   0.569   0.610   0.637   0.669   0.685   0.740
  0.781   0.783   0.801   0.860   0.862   0.882   0.892   0.908
  0.936   0.966   1.058   1.069   1.136   1.273   1.343   1.379
  1.452   1.568   1.643   1.663   1.680   1.825   1.866   1.981
  2.033   2.052   2.067   2.084   2.111   2.122   2.180   2.227
  2.263   2.284   2.333   2.351   2.451   2.510   2.528   2.625
  2.702   2.733   2.745   2.790   2.800   2.859   2.890   2.912
  3.176   3.246   3.322   3.334   3.468   3.474   3.554   4.036
  4.291   4.486   4.642
 --------------------------------------------------------------
 
          Ground-State Mulliken Net Atomic Charges

     Atom                 Charge (a.u.)    Spin (a.u.)
  --------------------------------------------------------
      1 S                    -0.018153      -0.000000
      2 C                    -0.180306      -0.000000
      3 C                    -0.308599       0.000000
      4 C                    -0.322231      -0.000000
      5 H                     0.112985       0.000000
      6 H                     0.095447       0.000000
      7 H                     0.141114      -0.000000
      8 H                     0.125066      -0.000000
      9 H                     0.104374       0.000000
     10 H                     0.105896       0.000000
     11 H                     0.103962       0.000000
     12 H                     0.040445       0.000000
  --------------------------------------------------------
  Sum of atomic charges =     0.000000
  Sum of spin   charges =     0.000000

 -----------------------------------------------------------------
                    Cartesian Multipole Moments
 -----------------------------------------------------------------
    Charge (ESU x 10^10)
                -0.0000
    Dipole Moment (Debye)
         X      -1.5154      Y      -0.1595      Z      -0.6723
       Tot       1.6655
    Quadrupole Moments (Debye-Ang)
        XX     -38.7240     XY       0.3678     YY     -33.9917
        XZ      -1.6965     YZ      -1.5243     ZZ     -32.4820
    Octopole Moments (Debye-Ang^2)
       XXX     -42.9352    XXY       3.8677    XYY     -11.7584
       YYY      -1.4696    XXZ      -2.7523    XYZ      -2.9121
       YYZ       0.4090    XZZ      -9.5031    YZZ      -1.0509
       ZZZ       1.3962
    Hexadecapole Moments (Debye-Ang^3)
      XXXX    -603.3957   XXXY       8.9184   XXYY    -112.3961
      XYYY      -1.2357   YYYY     -91.7207   XXXZ      -4.5701
      XXYZ      -5.6528   XYYZ      -0.2050   YYYZ       0.0369
      XXZZ    -105.0618   XYZZ       0.5707   YYZZ     -23.5369
      XZZZ       1.1105   YZZZ      -0.1875   ZZZZ     -62.4571
 -----------------------------------------------------------------
 Calculating analytic gradient of the SCF energy
 Gradient of SCF Energy
            1           2           3           4           5           6
    1  -0.2317408   0.0179481   0.2036674   0.0002554  -0.0021649  -0.0023350
    2  -0.0916387   0.0059464   0.0796641  -0.0022697  -0.0007096  -0.0003318
    3  -0.0078590  -0.0025794   0.0100818   0.0004563   0.0004408   0.0000960
            7           8           9          10          11          12
    1   0.0062483   0.0124186   0.0000473   0.0002115   0.0000000  -0.0045559
    2   0.0038252   0.0077835   0.0003000   0.0003426   0.0003791  -0.0032912
    3   0.0001297  -0.0020509   0.0000068   0.0000124  -0.0001286   0.0013940
 Max gradient component =       2.317E-01
 RMS gradient           =       5.547E-02
 Gradient time:  CPU 8.40 s  wall 0.70 s
 Geometry Optimization Parameters
   NAtoms,    NIC,     NZ,  NCons,   NDum,   NFix, NCnnct, MaxDiis
       12      75       0       1       0       0       0       0

 Cartesian Hessian Update
 Hessian Updated using BFGS Update


** CONSTRAINED OPTIMIZATION IN DELOCALIZED INTERNAL COORDINATES **
   Searching for a Minimum

   Optimization Cycle:   3

                       Coordinates (Angstroms)
     ATOM                X               Y               Z
      1  S         1.9509587646    0.0553284959    0.0207817490
      2  C        -0.5869497252    0.5301633214   -0.0007885210
      3  C         0.5409388754   -0.5147215013   -0.0108844000
      4  C        -1.9834950194   -0.1076202940   -0.0060613316
      5  H        -0.4781537582    1.1669914347    0.8841343151
      6  H        -0.4843197573    1.1792326933   -0.8791079726
      7  H         0.4455210195   -1.1547661181    0.8726972906
      8  H         0.4201167404   -1.1607710543   -0.8885277553
      9  H        -2.1318947532   -0.7419356519    0.8746732096
     10  H        -2.7673567285    0.6567339494    0.0004346110
     11  H        -2.1341566412   -0.7290226453   -0.8956995018
     12  H         1.9213909832    0.7241873701   -1.1486516930
   Point Group: c1    Number of degrees of freedom:    30


   Energy is   -517.281920433

              Constraints and their Current Values
                                        Value     Constraint
   Distance(Angs):        1   3             1.521222     1.100000
 Hessian Updated using BFGS Update
**WARNING** Constraint Gradient Reduced for constraint   1

   Using Lagrange Multiplier Algorithm


 30 Hessian modes will be used to form the next step
  Hessian Eigenvalues:
    -0.741836    0.116129    0.116132    0.116133    0.179531    0.200528
     0.202882    0.213935    0.215831    0.217548    0.261302    0.324627
     0.336845    0.368495    0.411458    0.412919    0.415454    0.550049
     0.566504    0.679088    0.768043    0.779134    0.878425    0.878666
     0.884126    0.884558    0.884574    0.884787    0.884933    1.379316

 Minimum Search - Taking P-RFO Step
 Searching for Lamda that Maximizes Along the Constraint modes Only
 Value Taken    Lamda =   0.09387727
 Searching for Lamda that Minimizes Along All other modes
 Value Taken    Lamda =  -0.02119383
 Calculated Step too Large.  Step scaled by  0.871088
 Step Taken.  Stepsize is  0.300000

                             Maximum     Tolerance    Cnvgd?
         Gradient            0.300000       0.000300      NO
         Displacement        0.238047       0.001200      NO
         Energy change      0.043580       0.000001      NO


 New Cartesian Coordinates Obtained by Inverse Iteration

 Displacement from previous Coordinates is:  0.248695
 ----------------------------------------------------------------
             Standard Nuclear Orientation (Angstroms)
    I     Atom           X                Y                Z
 ----------------------------------------------------------------
    1      S       1.8861886263     0.0022546997     0.0225163350
    2      C      -0.5899350229     0.5389543309    -0.0048363546
    3      C       0.5780325020    -0.4806347120    -0.0251902576
    4      C      -1.9823593947    -0.1151537094    -0.0024062716
    5      H      -0.4736697222     1.1782313828     0.8774137904
    6      H      -0.4913079559     1.1892781780    -0.8834282936
    7      H       0.4504151659    -1.1228098388     0.8566861851
    8      H       0.3916278116    -1.1394948636    -0.8881740237
    9      H      -2.1184306099    -0.7526999817     0.8784683337
   10      H      -2.7793737101     0.6353823261     0.0087918358
   11      H      -2.1315115286    -0.7402823470    -0.8900912298
   12      H       1.9729238383     0.7107745350    -1.1267500490
 ----------------------------------------------------------------
 Nuclear Repulsion Energy =   175.9098282495 hartrees
 There are       21 alpha and       21 beta electrons

                       Distance Matrix (Angstroms)
             S (  1)   C (  2)   C (  3)   C (  4)   H (  5)   H (  6)
   C (  2)  2.533769
   C (  3)  1.395253  1.550524
   C (  4)  3.870409  1.538411  2.586446
   H (  5)  2.771769  1.095700  2.161622  2.173263
   H (  6)  2.807535  1.097530  2.160711  2.168174  1.760965
   H (  7)  2.005755  2.141497  1.098354  2.769802  2.479749  3.043122
   H (  8)  2.089656  2.135636  1.101628  2.733071  3.039391  2.490538
   H (  9)  4.164083  2.187441  2.856839  1.095865  2.536481  3.085950
   H ( 10)  4.708345  2.191603  3.538195  1.094834  2.522986  2.517559
   H ( 11)  4.186422  2.190110  2.856064  1.095909  3.090826  2.532492
   H ( 12)  1.352899  2.802937  2.139769  4.194112  3.197031  2.522025
             H (  7)   H (  8)   H (  9)   H ( 10)   H ( 11)
   H (  8)  1.745930
   H (  9)  2.595462  3.093708
   H ( 10)  3.773818  3.742992  1.766340
   H ( 11)  3.140685  2.554527  1.768652  1.766400
   H ( 12)  3.100659  2.445590  4.785587  4.886663  4.359812
 
 Applying Cartesian multipole field
    Component          Value
    ---------          -----
     (2,0,0)        1.00000E-11
     (0,2,0)        2.00000E-10
     (0,0,2)       -3.00000E-10
 Nucleus-field energy     =     0.0000000050 hartrees
 Requested basis set is 6-31G(d,p)
 There are 41 shells and 104 basis functions
 A cutoff of  1.0D-14 yielded    836 shell pairs
 There are      5487 function pairs
 Smallest overlap matrix eigenvalue = 5.06E-03
 Guess from superposition of atomic densities
 Warning:  Energy on first SCF cycle will be non-variational
 SAD guess density has 42.000000 electrons

 -----------------------------------------------------------------------
  General SCF calculation program by
  Eric Jon Sundstrom, Paul Horn, Yuezhi Mao, Dmitri Zuev, Alec White,
  David Stuck, Shaama M.S., Shane Yost, Joonho Lee, David Small,
  Daniel Levine, Susi Lehtola, Hugh Burton, Evgeny Epifanovsky
 -----------------------------------------------------------------------
 Exchange:     0.2000 Hartree-Fock + 0.0800 Slater + 0.7200 B88
 Correlation:  0.1900 VWN1RPA + 0.8100 LYP
 Using SG-1 standard quadrature grid
 using 12 threads for integral computing
 -------------------------------------------------------
 OpenMP Integral computing Module                
 Release: version 1.0, May 2013, Q-Chem Inc. Pittsburgh 
 -------------------------------------------------------
 -------------------------------------------------------
 OpenMP BLAS3 based DFT computing Module                
 Release: version 1.0, May 2013, Q-Chem Inc. Pittsburgh 
 -------------------------------------------------------
 A unrestricted SCF calculation will be
 performed using DIIS
 SCF converges when DIIS error is below 1.0e-06
 Alpha HF Exchange    Energy =  -4.41453362079172
 Beta HF Exchange     Energy =  -4.41453362079172
 DFT Correlation      Energy =  -1.88766762647802
 DFT Exchange         Energy = -34.13393482018699
 One-Electron (alpha) Energy = -526.82274577959492
 One-Electron (beta)  Energy = -526.82274577959492
 Total Coulomb        Energy = 404.21232207101912
 ---------------------------------------
  Cycle       Energy         DIIS error
 ---------------------------------------
    1    -518.3740109219      3.91e-02  
 Alpha HF Exchange    Energy =  -4.39523085001462
 Beta HF Exchange     Energy =  -4.39523085001463
 DFT Correlation      Energy =  -1.92000327204702
 DFT Exchange         Energy = -34.85468581414225
 One-Electron (alpha) Energy = -531.30574510867439
 One-Electron (beta)  Energy = -531.30574510867484
 Total Coulomb        Energy = 415.17873512244398
    2    -517.0880776266      4.38e-03  
 Alpha HF Exchange    Energy =  -4.32334430835275
 Beta HF Exchange     Energy =  -4.32334430835275
 DFT Correlation      Energy =  -1.88550978604294
 DFT Exchange         Energy = -34.25335536200564
 One-Electron (alpha) Energy = -525.82939948818421
 One-Electron (beta)  Energy = -525.82939948818478
 Total Coulomb        Energy = 403.48721048846829
    3    -517.0473139981      5.14e-03  
 Alpha HF Exchange    Energy =  -4.35982687586572
 Beta HF Exchange     Energy =  -4.35982687586572
 DFT Correlation      Energy =  -1.90382180788998
 DFT Exchange         Energy = -34.55717303965179
 One-Electron (alpha) Energy = -528.83558004934901
 One-Electron (beta)  Energy = -528.83558004934901
 Total Coulomb        Energy = 409.74279702605440
    4    -517.1991834174      3.35e-04  
 Alpha HF Exchange    Energy =  -4.36033049537756
 Beta HF Exchange     Energy =  -4.36033049537756
 DFT Correlation      Energy =  -1.90381560094810
 DFT Exchange         Energy = -34.56088586122286
 One-Electron (alpha) Energy = -528.81646309653433
 One-Electron (beta)  Energy = -528.81646309653445
 Total Coulomb        Energy = 409.70871292156147
    5    -517.1997474699      1.39e-04  
 Alpha HF Exchange    Energy =  -4.36008831749918
 Beta HF Exchange     Energy =  -4.36008831749918
 DFT Correlation      Energy =  -1.90372363004397
 DFT Exchange         Energy = -34.55892063265790
 One-Electron (alpha) Energy = -528.80735954546878
 One-Electron (beta)  Energy = -528.80735954546901
 Total Coulomb        Energy = 409.68786539433347
    6    -517.1998463398      3.60e-05  
 Alpha HF Exchange    Energy =  -4.36006904683937
 Beta HF Exchange     Energy =  -4.36006904683937
 DFT Correlation      Energy =  -1.90372426884791
 DFT Exchange         Energy = -34.55875826804192
 One-Electron (alpha) Energy = -528.80448659261208
 One-Electron (beta)  Energy = -528.80448659261197
 Total Coulomb        Energy = 409.68191267186859
    7    -517.1998528894      7.01e-06  
 Alpha HF Exchange    Energy =  -4.36009978194319
 Beta HF Exchange     Energy =  -4.36009978194319
 DFT Correlation      Energy =  -1.90373550970540
 DFT Exchange         Energy = -34.55900197179573
 One-Electron (alpha) Energy = -528.80772784425290
 One-Electron (beta)  Energy = -528.80772784425267
 Total Coulomb        Energy = 409.68871129735209
    8    -517.1998531820      8.37e-07  Convergence criterion met
 ---------------------------------------
 SCF time:   CPU 19.58s  wall 2.00s 
<S^2> =         -0.000000000
 Alpha HF Exchange    Energy =  -4.36009978194319
 Beta HF Exchange     Energy =  -4.36009978194319
 DFT Correlation      Energy =  -1.90373550970540
 DFT Exchange         Energy = -34.55900197179573
 One-Electron (alpha) Energy = -528.80772784425290
 One-Electron (beta)  Energy = -528.80772784425267
 Total Coulomb        Energy = 409.68871129735209
 Nuclear repulsion Energy = 175.90982825450772
 SCF   energy in the final basis set =     -517.1998531820
 Total energy in the final basis set =     -517.1998531820
 
 --------------------------------------------------------------
 
                    Orbital Energies (a.u.)
 --------------------------------------------------------------
 
 Alpha MOs
 -- Occupied --
-88.848 -10.194 -10.187 -10.180  -7.926  -5.891  -5.886  -5.879
 -0.898  -0.756  -0.634  -0.595  -0.510  -0.453  -0.435  -0.418
 -0.380  -0.354  -0.345  -0.300  -0.210
 -- Virtual --
  0.047   0.084   0.109   0.127   0.143   0.159   0.167   0.183
  0.188   0.208   0.236   0.353   0.381   0.405   0.426   0.528
  0.538   0.542   0.581   0.628   0.638   0.678   0.695   0.736
  0.762   0.786   0.790   0.860   0.863   0.877   0.895   0.906
  0.935   0.983   1.065   1.075   1.126   1.344   1.381   1.434
  1.478   1.576   1.660   1.672   1.694   1.821   1.863   1.988
  2.039   2.054   2.068   2.087   2.111   2.123   2.187   2.231
  2.263   2.290   2.343   2.391   2.452   2.525   2.538   2.645
  2.708   2.745   2.756   2.791   2.801   2.863   2.888   2.912
  3.170   3.237   3.320   3.335   3.463   3.468   3.559   4.047
  4.293   4.502   4.652
 
 Beta MOs
 -- Occupied --
-88.848 -10.194 -10.187 -10.180  -7.926  -5.891  -5.886  -5.879
 -0.898  -0.756  -0.634  -0.595  -0.510  -0.453  -0.435  -0.418
 -0.380  -0.354  -0.345  -0.300  -0.210
 -- Virtual --
  0.047   0.084   0.109   0.127   0.143   0.159   0.167   0.183
  0.188   0.208   0.236   0.353   0.381   0.405   0.426   0.528
  0.538   0.542   0.581   0.628   0.638   0.678   0.695   0.736
  0.762   0.786   0.790   0.860   0.863   0.877   0.895   0.906
  0.935   0.983   1.065   1.075   1.126   1.344   1.381   1.434
  1.478   1.576   1.660   1.672   1.694   1.821   1.863   1.988
  2.039   2.054   2.068   2.087   2.111   2.123   2.187   2.231
  2.263   2.290   2.343   2.391   2.452   2.525   2.538   2.645
  2.708   2.745   2.756   2.791   2.801   2.863   2.888   2.912
  3.170   3.237   3.320   3.335   3.463   3.468   3.559   4.047
  4.293   4.502   4.652
 --------------------------------------------------------------
 
          Ground-State Mulliken Net Atomic Charges

     Atom                 Charge (a.u.)    Spin (a.u.)
  --------------------------------------------------------
      1 S                    -0.019106       0.000000
      2 C                    -0.188319       0.000000
      3 C                    -0.277085      -0.000000
      4 C                    -0.323740      -0.000000
      5 H                     0.109783       0.000000
      6 H                     0.094869       0.000000
      7 H                     0.145835       0.000000
      8 H                     0.112565       0.000000
      9 H                     0.103856       0.000000
     10 H                     0.107429       0.000000
     11 H                     0.104883       0.000000
     12 H                     0.029031      -0.000000
  --------------------------------------------------------
  Sum of atomic charges =    -0.000000
  Sum of spin   charges =    -0.000000

 -----------------------------------------------------------------
                    Cartesian Multipole Moments
 -----------------------------------------------------------------
    Charge (ESU x 10^10)
                -0.0000
    Dipole Moment (Debye)
         X      -1.5134      Y      -0.1953      Z      -0.6168
       Tot       1.6458
    Quadrupole Moments (Debye-Ang)
        XX     -38.4888     XY       0.3922     YY     -33.8960
        XZ      -1.7500     YZ      -1.4990     ZZ     -32.5462
    Octopole Moments (Debye-Ang^2)
       XXX     -40.6303    XXY       4.2810    XYY     -10.9304
       YYY      -0.1778    XXZ      -3.0763    XYZ      -2.6469
       YYZ       0.7350    XZZ      -8.9946    YZZ      -0.7322
       ZZZ       1.7249
    Hexadecapole Moments (Debye-Ang^3)
      XXXX    -582.7240   XXXY      11.8888   XXYY    -109.3745
      XYYY       2.2797   YYYY     -90.3735   XXXZ      -5.3885
      XXYZ      -4.9459   XYYZ       0.2002   YYYZ      -0.1158
      XXZZ    -102.6566   XYZZ       1.4830   YYZZ     -23.4624
      XZZZ       1.4184   YZZZ      -0.2380   ZZZZ     -62.6098
 -----------------------------------------------------------------
 Calculating analytic gradient of the SCF energy
 Gradient of SCF Energy
            1           2           3           4           5           6
    1  -0.4598938   0.0172658   0.4316753  -0.0023249  -0.0011569  -0.0016275
    2  -0.1696953   0.0025762   0.1587634  -0.0015206  -0.0010021  -0.0003001
    3  -0.0214666  -0.0026230   0.0221062   0.0004154  -0.0001005   0.0002714
            7           8           9          10          11          12
    1   0.0070000   0.0126762  -0.0001525  -0.0005284  -0.0003347  -0.0025986
    2   0.0043768   0.0092643   0.0001242  -0.0001412   0.0001536  -0.0025992
    3   0.0005657  -0.0009428  -0.0000473   0.0000450  -0.0001148   0.0018914
 Max gradient component =       4.599E-01
 RMS gradient           =       1.122E-01
 Gradient time:  CPU 8.47 s  wall 0.71 s
 Geometry Optimization Parameters
   NAtoms,    NIC,     NZ,  NCons,   NDum,   NFix, NCnnct, MaxDiis
       12      75       0       1       0       0       0       0

 Cartesian Hessian Update
 Hessian Updated using BFGS Update


** CONSTRAINED OPTIMIZATION IN DELOCALIZED INTERNAL COORDINATES **
   Searching for a Minimum

   Optimization Cycle:   4

                       Coordinates (Angstroms)
     ATOM                X               Y               Z
      1  S         1.8861886263    0.0022546997    0.0225163350
      2  C        -0.5899350229    0.5389543309   -0.0048363546
      3  C         0.5780325020   -0.4806347120   -0.0251902576
      4  C        -1.9823593947   -0.1151537094   -0.0024062716
      5  H        -0.4736697222    1.1782313828    0.8774137904
      6  H        -0.4913079559    1.1892781780   -0.8834282936
      7  H         0.4504151659   -1.1228098388    0.8566861851
      8  H         0.3916278116   -1.1394948636   -0.8881740237
      9  H        -2.1184306099   -0.7526999817    0.8784683337
     10  H        -2.7793737101    0.6353823261    0.0087918358
     11  H        -2.1315115286   -0.7402823470   -0.8900912298
     12  H         1.9729238383    0.7107745350   -1.1267500490
   Point Group: c1    Number of degrees of freedom:    30


   Energy is   -517.199853182

              Constraints and their Current Values
                                        Value     Constraint
   Distance(Angs):        1   3             1.395253     1.100000
 Hessian Updated using BFGS Update
**WARNING** Constraint Gradient Reduced for constraint   1

   Using Lagrange Multiplier Algorithm


 31 Hessian modes will be used to form the next step
  Hessian Eigenvalues:
    -0.588931    0.116122    0.116132    0.116133    0.179517    0.198591
     0.202886    0.213161    0.214084    0.215834    0.261116    0.321940
     0.336840    0.367832    0.409873    0.412915    0.412916    0.413617
     0.548846    0.566502    0.678801    0.766060    0.778998    0.878411
     0.878664    0.882793    0.884556    0.884571    0.884729    0.884931
     1.760499

 Minimum Search - Taking P-RFO Step
 Searching for Lamda that Maximizes Along the Constraint modes Only
 Value Taken    Lamda =   0.13455263


 ********************************************
 ** ERROR IN DETERMINING Lamda IN CONFormD **
 ********************************************


 ** Scaling Hessian by  2.317445 **


 31 Hessian modes will be used to form the next step
  Hessian Eigenvalues:
    -0.354175    0.269089    0.269130    0.269131    0.415962    0.453226
     0.470174    0.487170    0.495903    0.500182    0.604661    0.740143
     0.780599    0.850772    0.942974    0.956897    0.956907    0.957512
     1.262112    1.312813    1.572064    1.766417    1.804816    2.035517
     2.036215    2.040559    2.049906    2.049942    2.050292    2.050778
     3.125015

 Minimum Search - Taking P-RFO Step
 Searching for Lamda that Maximizes Along the Constraint modes Only
 Value Taken    Lamda =   0.18365184
 Searching for Lamda that Minimizes Along All other modes
 Value Taken    Lamda =  -0.00779536
 Step Taken.  Stepsize is  0.284927

                             Maximum     Tolerance    Cnvgd?
         Gradient            0.300000       0.000300      NO
         Displacement        0.524349       0.001200      NO
         Energy change      0.082067       0.000001      NO


 New Cartesian Coordinates Obtained by Inverse Iteration

 Displacement from previous Coordinates is:  0.238825
 ----------------------------------------------------------------
             Standard Nuclear Orientation (Angstroms)
    I     Atom           X                Y                Z
 ----------------------------------------------------------------
    1      S       1.8331672130    -0.0377966982     0.0218678599
    2      C      -0.5927493841     0.5478395867    -0.0083345388
    3      C       0.6129116656    -0.4500268184    -0.0408613694
    4      C      -1.9763341892    -0.1241134212     0.0009685525
    5      H      -0.4701277741     1.1902927866     0.8713759562
    6      H      -0.4978893901     1.1997693294    -0.8870262092
    7      H       0.4401740651    -1.0938380054     0.8367622739
    8      H       0.3446582742    -1.1234406079    -0.8808339546
    9      H      -2.0991621931    -0.7648949641     0.8818672380
   10      H      -2.7851978801     0.6132469435     0.0165924753
   11      H      -2.1214723090    -0.7524765190    -0.8853563385
   12      H       2.0246219020     0.6992383879    -1.1040219452
 ----------------------------------------------------------------
 Nuclear Repulsion Energy =   179.5929333971 hartrees
 There are       21 alpha and       21 beta electrons

                       Distance Matrix (Angstroms)
             S (  1)   C (  2)   C (  3)   C (  4)   H (  5)   H (  6)
   C (  2)  2.495787
   C (  3)  1.289532  1.565380
   C (  4)  3.810536  1.538153  2.610012
   H (  5)  2.745002  1.096208  2.166979  2.180351
   H (  6)  2.791323  1.098230  2.161412  2.174166  1.758647
   H (  7)  1.928654  2.115709  1.102068  2.734672  2.459085  3.018616
   H (  8)  2.051622  2.105508  1.109504  2.676422  3.014544  2.471281
   H (  9)  4.090414  2.187467  2.881998  1.096207  2.544921  3.090787
   H ( 10)  4.664031  2.193566  3.561039  1.094625  2.534401  2.528303
   H ( 11)  4.119830  2.190202  2.877760  1.096119  3.096353  2.539151
   H ( 12)  1.359229  2.841493  2.108091  4.231615  3.219799  2.580830
             H (  7)   H (  8)   H (  9)   H ( 10)   H ( 11)
   H (  8)  1.720505
   H (  9)  2.560950  3.034457
   H ( 10)  3.740300  3.690184  1.765962
   H ( 11)  3.105520  2.493879  1.767408  1.766138
   H ( 12)  3.080948  2.488825  4.805522  4.939386  4.398339
 
 Applying Cartesian multipole field
    Component          Value
    ---------          -----
     (2,0,0)        1.00000E-11
     (0,2,0)        2.00000E-10
     (0,0,2)       -3.00000E-10
 Nucleus-field energy     =     0.0000000049 hartrees
 Requested basis set is 6-31G(d,p)
 There are 41 shells and 104 basis functions
 A cutoff of  1.0D-14 yielded    836 shell pairs
 There are      5487 function pairs
 Smallest overlap matrix eigenvalue = 4.83E-03
 Guess from superposition of atomic densities
 Warning:  Energy on first SCF cycle will be non-variational
 SAD guess density has 42.000000 electrons

 -----------------------------------------------------------------------
  General SCF calculation program by
  Eric Jon Sundstrom, Paul Horn, Yuezhi Mao, Dmitri Zuev, Alec White,
  David Stuck, Shaama M.S., Shane Yost, Joonho Lee, David Small,
  Daniel Levine, Susi Lehtola, Hugh Burton, Evgeny Epifanovsky
 -----------------------------------------------------------------------
 Exchange:     0.2000 Hartree-Fock + 0.0800 Slater + 0.7200 B88
 Correlation:  0.1900 VWN1RPA + 0.8100 LYP
 Using SG-1 standard quadrature grid
 using 12 threads for integral computing
 -------------------------------------------------------
 OpenMP Integral computing Module                
 Release: version 1.0, May 2013, Q-Chem Inc. Pittsburgh 
 -------------------------------------------------------
 -------------------------------------------------------
 OpenMP BLAS3 based DFT computing Module                
 Release: version 1.0, May 2013, Q-Chem Inc. Pittsburgh 
 -------------------------------------------------------
 A unrestricted SCF calculation will be
 performed using DIIS
 SCF converges when DIIS error is below 1.0e-06
 Alpha HF Exchange    Energy =  -4.43238179748349
 Beta HF Exchange     Energy =  -4.43238179748349
 DFT Correlation      Energy =  -1.89093516838199
 DFT Exchange         Energy = -34.17371244777183
 One-Electron (alpha) Energy = -530.27810049581171
 One-Electron (beta)  Energy = -530.27810049581171
 Total Coulomb        Energy = 407.31899029688032
 ---------------------------------------
  Cycle       Energy         DIIS error
 ---------------------------------------
    1    -518.5736885039      4.28e-02  
 Alpha HF Exchange    Energy =  -4.40504954378552
 Beta HF Exchange     Energy =  -4.40504954378552
 DFT Correlation      Energy =  -1.92501845786370
 DFT Exchange         Energy = -34.93947509649205
 One-Electron (alpha) Energy = -535.11094222574513
 One-Electron (beta)  Energy = -535.11094222574513
 Total Coulomb        Energy = 419.36188234073029
    2    -516.9416613507      4.84e-03  
 Alpha HF Exchange    Energy =  -4.32554359237109
 Beta HF Exchange     Energy =  -4.32554359237109
 DFT Correlation      Energy =  -1.88726545742259
 DFT Exchange         Energy = -34.27499906375742
 One-Electron (alpha) Energy = -528.84291170457846
 One-Electron (beta)  Energy = -528.84291170457846
 Total Coulomb        Energy = 406.02037063006833
    3    -516.8858710830      5.74e-03  
 Alpha HF Exchange    Energy =  -4.36676321329468
 Beta HF Exchange     Energy =  -4.36676321329468
 DFT Correlation      Energy =  -1.90765064436143
 DFT Exchange         Energy = -34.61786639291075
 One-Electron (alpha) Energy = -532.36609497933910
 One-Electron (beta)  Energy = -532.36609497933932
 Total Coulomb        Energy = 413.32516236418445
    4    -517.0731376564      3.72e-04  
 Alpha HF Exchange    Energy =  -4.36700192494067
 Beta HF Exchange     Energy =  -4.36700192494067
 DFT Correlation      Energy =  -1.90755356159278
 DFT Exchange         Energy = -34.61945992621796
 One-Electron (alpha) Energy = -532.31386362481146
 One-Electron (beta)  Energy = -532.31386362481123
 Total Coulomb        Energy = 413.22199508615029
    5    -517.0738160992      1.69e-04  
 Alpha HF Exchange    Energy =  -4.36670903592776
 Beta HF Exchange     Energy =  -4.36670903592776
 DFT Correlation      Energy =  -1.90743236019937
 DFT Exchange         Energy = -34.61706775702999
 One-Electron (alpha) Energy = -532.30339568907914
 One-Electron (beta)  Energy = -532.30339568907914
 Total Coulomb        Energy = 413.19780949128335
    6    -517.0739666740      3.67e-05  
 Alpha HF Exchange    Energy =  -4.36670780388798
 Beta HF Exchange     Energy =  -4.36670780388798
 DFT Correlation      Energy =  -1.90744016993428
 DFT Exchange         Energy = -34.61704746843750
 One-Electron (alpha) Energy = -532.30287762340640
 One-Electron (beta)  Energy = -532.30287762340652
 Total Coulomb        Energy = 413.19675159135437
    7    -517.0739734996      7.77e-06  
 Alpha HF Exchange    Energy =  -4.36673634623874
 Beta HF Exchange     Energy =  -4.36673634623875
 DFT Correlation      Energy =  -1.90745119185455
 DFT Exchange         Energy = -34.61727606304183
 One-Electron (alpha) Energy = -532.30576106871206
 One-Electron (beta)  Energy = -532.30576106871194
 Total Coulomb        Energy = 413.20281482196839
    8    -517.0739738609      8.89e-07  Convergence criterion met
 ---------------------------------------
 SCF time:   CPU 19.58s  wall 1.00s 
[...]

                             Maximum     Tolerance    Cnvgd?
         Gradient           0.000243      0.000300     YES
         Displacement       0.002331      0.001200      NO
         Energy change     -0.000001      0.000001      NO


 New Cartesian Coordinates Obtained by Inverse Iteration

 Displacement from previous Coordinates is:  0.006232
 ----------------------------------------------------------------
             Standard Nuclear Orientation (Angstroms)
    I     Atom           X                Y                Z
 ----------------------------------------------------------------
    1      S       1.7608973656    -0.0942726619    -0.0148873611
    2      C      -0.6194164591     0.5916801008     0.0260124289
    3      C       0.7135581347    -0.4262802375    -0.0682886335
    4      C      -1.9576407821    -0.1284674796     0.0035705203
    5      H      -0.4793350182     1.1987825471     0.9299454771
    6      H      -0.5021774330     1.2572996893    -0.8399163399
    7      H       0.4088889874    -1.0677602380     0.7811936194
    8      H       0.2561961889    -1.1564486112    -0.8607574035
    9      H      -2.1089442764    -0.7254048058     0.9111193760
   10      H      -2.7966849015     0.5710404397    -0.0709113100
   11      H      -2.0221959483    -0.8098084286    -0.8536085962
   12      H       2.0594541420     0.6934396857    -1.1204717775
 ----------------------------------------------------------------
 Nuclear Repulsion Energy =   186.0357726732 hartrees
 There are       21 alpha and       21 beta electrons

                       Distance Matrix (Angstroms)
             S (  1)   C (  2)   C (  3)   C (  4)   H (  5)   H (  6)
   C (  2)  2.477518
   C (  3)  1.100000  1.679868
   C (  4)  3.718741  1.519855  2.688710
   H (  5)  2.753787  1.097858  2.249510  2.192065
   H (  6)  2.762051  1.098466  2.215370  2.179494  1.770976
   H (  7)  1.846442  2.093192  1.107222  2.662223  2.438911  2.977238
   H (  8)  2.026781  2.146861  1.170612  2.589379  3.048727  2.530167
   H (  9)  4.028832  2.176424  3.002538  1.096755  2.521602  3.094987
   H ( 10)  4.606228  2.179522  3.649173  1.094922  2.601131  2.515370
   H ( 11)  3.940462  2.169261  2.871963  1.096881  3.097729  2.565849
   H ( 12)  1.389944  2.915670  2.042620  4.251594  3.302277  2.637917
             H (  7)   H (  8)   H (  9)   H ( 10)   H ( 11)
   H (  8)  1.651419
   H (  9)  2.544322  2.986509
   H ( 10)  3.699656  3.595575  1.765826
   H ( 11)  2.940968  2.304622  1.768874  1.766123
   H ( 12)  3.072869  2.596397  4.849333  4.969773  4.357848
 
 Applying Cartesian multipole field
    Component          Value
    ---------          -----
     (2,0,0)        1.00000E-11
     (0,2,0)        2.00000E-10
     (0,0,2)       -3.00000E-10
 Nucleus-field energy     =     0.0000000052 hartrees
 Requested basis set is 6-31G(d,p)
 There are 41 shells and 104 basis functions
 A cutoff of  1.0D-14 yielded    836 shell pairs
 There are      5487 function pairs
 Smallest overlap matrix eigenvalue = 3.57E-03
 Guess from superposition of atomic densities
 Warning:  Energy on first SCF cycle will be non-variational
 SAD guess density has 42.000000 electrons

 -----------------------------------------------------------------------
  General SCF calculation program by
  Eric Jon Sundstrom, Paul Horn, Yuezhi Mao, Dmitri Zuev, Alec White,
  David Stuck, Shaama M.S., Shane Yost, Joonho Lee, David Small,
  Daniel Levine, Susi Lehtola, Hugh Burton, Evgeny Epifanovsky
 -----------------------------------------------------------------------
 Exchange:     0.2000 Hartree-Fock + 0.0800 Slater + 0.7200 B88
 Correlation:  0.1900 VWN1RPA + 0.8100 LYP
 Using SG-1 standard quadrature grid
 using 12 threads for integral computing
 -------------------------------------------------------
 OpenMP Integral computing Module                
 Release: version 1.0, May 2013, Q-Chem Inc. Pittsburgh 
 -------------------------------------------------------
 -------------------------------------------------------
 OpenMP BLAS3 based DFT computing Module                
 Release: version 1.0, May 2013, Q-Chem Inc. Pittsburgh 
 -------------------------------------------------------
 A unrestricted SCF calculation will be
 performed using DIIS
 SCF converges when DIIS error is below 1.0e-06
 Alpha HF Exchange    Energy =  -4.46031418823435
 Beta HF Exchange     Energy =  -4.46031418823435
 DFT Correlation      Energy =  -1.89542192313979
 DFT Exchange         Energy = -34.24375071837385
 One-Electron (alpha) Energy = -535.96958210021637
 One-Electron (beta)  Energy = -535.96958210021637
 Total Coulomb        Energy = 412.10639985437956
 ---------------------------------------
  Cycle       Energy         DIIS error
 ---------------------------------------
    1    -518.8567926857      5.13e-02  
 Alpha HF Exchange    Energy =  -4.42648435420247
 Beta HF Exchange     Energy =  -4.42648435420247
 DFT Correlation      Energy =  -1.93424204540925
 DFT Exchange         Energy = -35.13874955576088
 One-Electron (alpha) Energy = -541.70924076526126
 One-Electron (beta)  Energy = -541.70924076526126
 Total Coulomb        Energy = 426.91640144523308
    2    -516.3922677165      6.31e-03  
 Alpha HF Exchange    Energy =  -4.32479332425627
 Beta HF Exchange     Energy =  -4.32479332425627
 DFT Correlation      Energy =  -1.88752799361217
 DFT Exchange         Energy = -34.28871514463778
 One-Electron (alpha) Energy = -533.31176983259343
 One-Electron (beta)  Energy = -533.31176983259365
 Total Coulomb        Energy = 409.14708122083414
    3    -516.2665155528      7.74e-03  
 Alpha HF Exchange    Energy =  -4.37981209279735
 Beta HF Exchange     Energy =  -4.37981209279735
 DFT Correlation      Energy =  -1.91387018237169
 DFT Exchange         Energy = -34.74693973056123
 One-Electron (alpha) Energy = -538.29858254465478
 One-Electron (beta)  Energy = -538.29858254465512
 Total Coulomb        Energy = 419.38336654169876
    4    -516.5984599678      5.30e-04  
 Alpha HF Exchange    Energy =  -4.37924102191231
 Beta HF Exchange     Energy =  -4.37924102191232
 DFT Correlation      Energy =  -1.91345959164017
 DFT Exchange         Energy = -34.74194926646485
 One-Electron (alpha) Energy = -538.13960466417552
 One-Electron (beta)  Energy = -538.13960466417575
 Total Coulomb        Energy = 419.05756692051943
    5    -516.5997606314      2.85e-04  
 Alpha HF Exchange    Energy =  -4.37868766908589
 Beta HF Exchange     Energy =  -4.37868766908589
 DFT Correlation      Energy =  -1.91321432623662
 DFT Exchange         Energy = -34.73746210494988
 One-Electron (alpha) Energy = -538.11714587964343
 One-Electron (beta)  Energy = -538.11714587964309
 Total Coulomb        Energy = 419.00635397154463
    6    -516.6002168788      4.78e-05  
 Alpha HF Exchange    Energy =  -4.37877637042045
 Beta HF Exchange     Energy =  -4.37877637042045
 DFT Correlation      Energy =  -1.91324861835582
 DFT Exchange         Energy = -34.73812371049220
 One-Electron (alpha) Energy = -538.12878812009797
 One-Electron (beta)  Energy = -538.12878812009808
 Total Coulomb        Energy = 419.03050079284299
    7    -516.6002278387      1.67e-05  
 Alpha HF Exchange    Energy =  -4.37880879880335
 Beta HF Exchange     Energy =  -4.37880879880335
 DFT Correlation      Energy =  -1.91326900360287
 DFT Exchange         Energy = -34.73840580198440
 One-Electron (alpha) Energy = -538.13039924415864
 One-Electron (beta)  Energy = -538.13039924415864
 Total Coulomb        Energy = 419.03408889286084
    8    -516.6002293203      3.46e-06  
 Alpha HF Exchange    Energy =  -4.37881004303437
 Beta HF Exchange     Energy =  -4.37881004303437
 DFT Correlation      Energy =  -1.91326807930284
 DFT Exchange         Energy = -34.73841060675623
 One-Electron (alpha) Energy = -538.13084142221351
 One-Electron (beta)  Energy = -538.13084142221339
 Total Coulomb        Energy = 419.03497955635657
    9    -516.6002293819      1.27e-06  
 Alpha HF Exchange    Energy =  -4.37881027123170
 Beta HF Exchange     Energy =  -4.37881027123169
 DFT Correlation      Energy =  -1.91326863000920
 DFT Exchange         Energy = -34.73841318937177
 One-Electron (alpha) Energy = -538.13072325671283
 One-Electron (beta)  Energy = -538.13072325671271
 Total Coulomb        Energy = 419.03474680519037
   10    -516.6002293917      2.48e-07  Convergence criterion met
 ---------------------------------------
 SCF time:   CPU 25.08s  wall 2.00s 
<S^2> =         -0.000000000
 Alpha HF Exchange    Energy =  -4.37881027123170
 Beta HF Exchange     Energy =  -4.37881027123169
 DFT Correlation      Energy =  -1.91326863000920
 DFT Exchange         Energy = -34.73841318937177
 One-Electron (alpha) Energy = -538.13072325671283
 One-Electron (beta)  Energy = -538.13072325671271
 Total Coulomb        Energy = 419.03474680519037
 Nuclear repulsion Energy = 186.03577267834143
 SCF   energy in the final basis set =     -516.6002293917
 Total energy in the final basis set =     -516.6002293917
 
 --------------------------------------------------------------
 
                    Orbital Energies (a.u.)
 --------------------------------------------------------------
 
 Alpha MOs
 -- Occupied --
-88.827 -10.211 -10.181 -10.178  -7.945  -5.913  -5.897  -5.891
 -0.963  -0.756  -0.625  -0.607  -0.531  -0.465  -0.460  -0.428
 -0.389  -0.361  -0.344  -0.265  -0.181
 -- Virtual --
  0.026   0.067   0.086   0.121   0.142   0.156   0.159   0.178
  0.197   0.201   0.243   0.335   0.397   0.424   0.477   0.526
  0.545   0.572   0.592   0.612   0.654   0.687   0.714   0.738
  0.755   0.765   0.781   0.865   0.868   0.884   0.913   0.916
  0.940   1.035   1.057   1.102   1.133   1.352   1.408   1.475
  1.583   1.646   1.678   1.731   1.799   1.875   1.984   2.001
  2.049   2.057   2.088   2.094   2.121   2.128   2.195   2.243
  2.270   2.325   2.356   2.445   2.477   2.518   2.534   2.664
  2.683   2.718   2.785   2.810   2.830   2.873   2.892   3.145
  3.196   3.250   3.312   3.388   3.461   3.467   3.553   4.050
  4.309   4.569   4.721
 
 Beta MOs
 -- Occupied --
-88.827 -10.211 -10.181 -10.178  -7.945  -5.913  -5.897  -5.891
 -0.963  -0.756  -0.625  -0.607  -0.531  -0.465  -0.460  -0.428
 -0.389  -0.361  -0.344  -0.265  -0.181
 -- Virtual --
  0.026   0.067   0.086   0.121   0.142   0.156   0.159   0.178
  0.197   0.201   0.243   0.335   0.397   0.424   0.477   0.526
  0.545   0.572   0.592   0.612   0.654   0.687   0.714   0.738
  0.755   0.765   0.781   0.865   0.868   0.884   0.913   0.916
  0.940   1.035   1.057   1.102   1.133   1.352   1.408   1.475
  1.583   1.646   1.678   1.731   1.799   1.875   1.984   2.001
  2.049   2.057   2.088   2.094   2.121   2.128   2.195   2.243
  2.270   2.325   2.356   2.445   2.477   2.518   2.534   2.664
  2.683   2.718   2.785   2.810   2.830   2.873   2.892   3.145
  3.196   3.250   3.312   3.388   3.461   3.467   3.553   4.050
  4.309   4.569   4.721
 --------------------------------------------------------------
 
          Ground-State Mulliken Net Atomic Charges

     Atom                 Charge (a.u.)    Spin (a.u.)
  --------------------------------------------------------
      1 S                     0.169867       0.000000
      2 C                    -0.225576      -0.000000
      3 C                    -0.335193      -0.000000
      4 C                    -0.325312       0.000000
      5 H                     0.097807      -0.000000
      6 H                     0.093518      -0.000000
      7 H                     0.178431       0.000000
      8 H                     0.037599       0.000000
      9 H                     0.100418      -0.000000
     10 H                     0.111124      -0.000000
     11 H                     0.107872       0.000000
     12 H                    -0.010554       0.000000
  --------------------------------------------------------
  Sum of atomic charges =    -0.000000
  Sum of spin   charges =     0.000000

 -----------------------------------------------------------------
                    Cartesian Multipole Moments
 -----------------------------------------------------------------
    Charge (ESU x 10^10)
                -0.0000
    Dipole Moment (Debye)
         X      -1.2489      Y      -0.3471      Z      -0.0703
       Tot       1.2981
    Quadrupole Moments (Debye-Ang)
        XX     -37.8777     XY       0.1675     YY     -33.5621
        XZ      -1.3009     YZ      -1.5675     ZZ     -32.7670
    Octopole Moments (Debye-Ang^2)
       XXX     -36.3694    XXY       3.9437    XYY      -8.7561
       YYY       1.4668    XXZ      -2.1403    XYZ      -1.5772
       YYZ       2.3109    XZZ      -8.0095    YZZ      -0.0365
       ZZZ       4.6473
    Hexadecapole Moments (Debye-Ang^3)
      XXXX    -546.6279   XXXY      14.4037   XXYY    -103.6907
      XYYY       7.9177   YYYY     -92.5715   XXXZ      -0.1992
      XXYZ      -3.2447   XYYZ       2.6443   YYYZ      -1.8572
      XXZZ     -98.1237   XYZZ       2.8302   YYZZ     -24.5978
      XZZZ       6.4718   YZZZ      -1.3397   ZZZZ     -63.8829
 -----------------------------------------------------------------
 Calculating analytic gradient of the SCF energy
 Gradient of SCF Energy
            1           2           3           4           5           6
    1  -1.9092495  -0.0001355   1.9093154   0.0000914   0.0000350   0.0000753
    2  -0.6050537  -0.0002524   0.6052034  -0.0000184  -0.0000091   0.0000682
    3  -0.0975213  -0.0001229   0.0974308  -0.0000009   0.0000278   0.0000923
            7           8           9          10          11          12
    1   0.0000073  -0.0001141   0.0000300  -0.0000210  -0.0000076  -0.0000268
    2   0.0000421   0.0000689   0.0000125   0.0000183   0.0000597  -0.0001397
    3  -0.0000700   0.0000532  -0.0000161   0.0000346  -0.0000148   0.0001073
 Max gradient component =       1.909E+00
 RMS gradient           =       4.726E-01
 Gradient time:  CPU 8.89 s  wall 0.78 s
 Geometry Optimization Parameters
   NAtoms,    NIC,     NZ,  NCons,   NDum,   NFix, NCnnct, MaxDiis
       12      75       0       1       0       0       0       0

 Cartesian Hessian Update
 Hessian Updated using BFGS Update


** CONSTRAINED OPTIMIZATION IN DELOCALIZED INTERNAL COORDINATES **
   Searching for a Minimum

   Optimization Cycle:  35

                       Coordinates (Angstroms)
     ATOM                X               Y               Z
      1  S         1.7608973656   -0.0942726619   -0.0148873611
      2  C        -0.6194164591    0.5916801008    0.0260124289
      3  C         0.7135581347   -0.4262802375   -0.0682886335
      4  C        -1.9576407821   -0.1284674796    0.0035705203
      5  H        -0.4793350182    1.1987825471    0.9299454771
      6  H        -0.5021774330    1.2572996893   -0.8399163399
      7  H         0.4088889874   -1.0677602380    0.7811936194
      8  H         0.2561961889   -1.1564486112   -0.8607574035
      9  H        -2.1089442764   -0.7254048058    0.9111193760
     10  H        -2.7966849015    0.5710404397   -0.0709113100
     11  H        -2.0221959483   -0.8098084286   -0.8536085962
     12  H         2.0594541420    0.6934396857   -1.1204717775
   Point Group: c1    Number of degrees of freedom:    30


   Energy is   -516.600229392

              Constraints and their Current Values
                                        Value     Constraint
   Distance(Angs):        1   3             1.100000     1.100000
 Hessian Updated using BFGS Update

 29 Hessian modes will be used to form the next step
  Hessian Eigenvalues:
     0.002260    0.041484    0.048865    0.135911    0.155429    0.272256
     0.281500    0.348769    0.421816    0.466648    0.498502    0.501234
     0.515608    0.692410    0.788323    0.941361    0.949276    0.957137
     1.025371    1.047084    1.290465    1.370642    1.725705    1.927435
     2.032001    2.033308    2.048380    2.049626    2.050378

 Minimum Search - Taking Simple RFO Step
 Searching for Lamda that Minimizes Along All modes
 Value Taken    Lamda =   0.00000000
 Step Taken.  Stepsize is  0.002900

                             Maximum     Tolerance    Cnvgd?
         Gradient           0.000167      0.000300     YES
         Displacement       0.001426      0.001200      NO
         Energy change     -0.000001      0.000001     YES


                       Distance Matrix (Angstroms)
             S (  1)   C (  2)   C (  3)   C (  4)   H (  5)   H (  6)
   C (  2)  2.477518
   C (  3)  1.100000  1.679868
   C (  4)  3.718741  1.519855  2.688710
   H (  5)  2.753787  1.097858  2.249510  2.192065
   H (  6)  2.762051  1.098466  2.215370  2.179494  1.770976
   H (  7)  1.846442  2.093192  1.107222  2.662223  2.438911  2.977238
   H (  8)  2.026781  2.146861  1.170612  2.589379  3.048727  2.530167
   H (  9)  4.028832  2.176424  3.002538  1.096755  2.521602  3.094987
   H ( 10)  4.606228  2.179522  3.649173  1.094922  2.601131  2.515370
   H ( 11)  3.940462  2.169261  2.871963  1.096881  3.097729  2.565849
   H ( 12)  1.389944  2.915670  2.042620  4.251594  3.302277  2.637917
             H (  7)   H (  8)   H (  9)   H ( 10)   H ( 11)
   H (  8)  1.651419
   H (  9)  2.544322  2.986509
   H ( 10)  3.699656  3.595575  1.765826
   H ( 11)  2.940968  2.304622  1.768874  1.766123
   H ( 12)  3.072869  2.596397  4.849333  4.969773  4.357848
 
 Final energy is   -516.600229391738     


 ******************************
 **  OPTIMIZATION CONVERGED  **
 ******************************

                       Coordinates (Angstroms)
     ATOM                X               Y               Z
      1  S         1.7608973656   -0.0942726619   -0.0148873611
      2  C        -0.6194164591    0.5916801008    0.0260124289
      3  C         0.7135581347   -0.4262802375   -0.0682886335
      4  C        -1.9576407821   -0.1284674796    0.0035705203
      5  H        -0.4793350182    1.1987825471    0.9299454771
      6  H        -0.5021774330    1.2572996893   -0.8399163399
      7  H         0.4088889874   -1.0677602380    0.7811936194
      8  H         0.2561961889   -1.1564486112   -0.8607574035
      9  H        -2.1089442764   -0.7254048058    0.9111193760
     10  H        -2.7966849015    0.5710404397   -0.0709113100
     11  H        -2.0221959483   -0.8098084286   -0.8536085962
     12  H         2.0594541420    0.6934396857   -1.1204717775

Z-matrix Print:
$molecule
0 1
S 
C  1 1.100000
H  2 1.107222 1 113.553909
H  2 1.170612 1 126.379200 3 -112.928301 0
H  1 1.389944 2 109.691212 3 179.539563 0
C  2 1.679868 1 124.742407 3 114.921011 0
H  6 1.097858 2 106.264457 1 -51.786129 0
H  6 1.098466 2 103.783350 1 61.400455 0
C  6 1.519855 2 114.249789 1 -176.747623 0
H  9 1.094922 6 111.902015 2 -172.223869 0
H  9 1.096755 6 111.539519 2 67.489756 0
H  9 1.096881 6 110.957907 2 -52.316833 0
$end

PES scan, value:    1.1000 energy: -516.6002293917
------- Summary of potential scan: ------ 
    1.1000      -516.6002293917
----------------------------------------- 
Archival summary:
1\1\hpc0250\JobtypUnspecified\ProcedureUnspecified\6-31G**\138\knomura\WedMar1318:47:372019WedMar1318:47:372019\0\\#,JobtypUnspecified,ProcedureUnspecified,6-31G**,\\0,1\S\C,1,1.1\H,2,1.10722,1,113.554\H,2,1.17061,1,126.379,3,-112.928,0\H,1,1.38994,2,109.691,3,179.54,0\C,2,1.67987,1,124.742,3,114.921,0\H,6,1.09786,2,106.264,1,-51.7861,0\H,6,1.09847,2,103.783,1,61.4005,0\C,6,1.51986,2,114.25,1,-176.748,0\H,9,1.09492,6,111.902,2,-172.224,0\H,9,1.09676,6,111.54,2,67.4898,0\H,9,1.09688,6,110.958,2,-52.3168,0\\\@

 Total job time:  109.67s(wall), 1285.41s(cpu) 
 Wed Mar 13 18:47:37 2019

        *************************************************************
        *                                                           *
        *  Thank you very much for using Q-Chem.  Have a nice day.  *
        *                                                           *
        *************************************************************


