
Running Job 1 of 1 thiol/02/C-S.xyz.data/inputs/bond_singlet_3.9.in
qchem thiol/02/C-S.xyz.data/inputs/bond_singlet_3.9.in_19094.0 /staging/scratch/2868767/qchem19094/ 1
/usr/usc/qchem/5.1.1/exe/qcprog.exe_s thiol/02/C-S.xyz.data/inputs/bond_singlet_3.9.in_19094.0 /staging/scratch/2868767/qchem19094/
Check license passed

                  Welcome to Q-Chem
     A Quantum Leap Into The Future Of Chemistry


 Q-Chem 5.1, Q-Chem, Inc., Pleasanton, CA (2018)

 Yihan Shao,  Zhengting Gan,  E. Epifanovsky,  A. T. B. Gilbert,  M. Wormit,  
 J. Kussmann,  A. W. Lange,  A. Behn,  Jia Deng,  Xintian Feng,  D. Ghosh,  
 M. Goldey,  P. R. Horn,  L. D. Jacobson,  I. Kaliman,  T. Kus,  A. Landau,  
 Jie Liu,  E. I. Proynov,  R. M. Richard,  R. P. Steele,  E. J. Sundstrom,  
 H. L. Woodcock III,  P. M. Zimmerman,  D. Zuev,  B. Albrecht,  E. Alguire,  
 S. A. Baeppler,  D. Barton,  Z. Benda,  Y. A. Bernard,  E. J. Berquist,  
 K. B. Bravaya,  H. Burton,  D. Casanova,  Chun-Min Chang,  Yunqing Chen,  
 A. Chien,  K. D. Closser,  M. P. Coons,  S. Coriani,  S. Dasgupta,  
 A. L. Dempwolff,  M. Diedenhofen,  Hainam Do,  R. G. Edgar,  Po-Tung Fang,  
 S. Faraji,  S. Fatehi,  Qingguo Feng,  K. D. Fenk,  J. Fosso-Tande,  
 Qinghui Ge,  A. Ghysels,  G. Gidofalvi,  J. Gomes,  J. Gonthier,  A. Gunina,  
 D. Hait,  M. W. D. Hanson-Heine,  P. H. P. Harbach,  A. W. Hauser,  
 J. E. Herr,  E. G. Hohenstein,  Z. C. Holden,  Kerwin Hui,  B. C. Huynh,  
 T.-C. Jagau,  Hyunjun Ji,  B. Kaduk,  K. Khistyaev,  Jaehoon Kim,  
 P. Klunzinger,  K. Koh,  D. Kosenkov,  L. Koulias,  T. Kowalczyk,  
 C. M. Krauter,  A. Kunitsa,  Ka Un Lao,  A. Laurent,  K. V. Lawler,  
 Joonho Lee,  D. Lefrancois,  S. Lehtola,  D. S. Levine,  Yi-Pei Li,  
 You-Sheng Lin,  Fenglai Liu,  E. Livshits,  A. Luenser,  P. Manohar,  
 E. Mansoor,  S. F. Manzer,  Shan-Ping Mao,  Yuezhi Mao,  N. Mardirossian,  
 A. V. Marenich,  T. Markovich,  L. A. Martinez-Martinez,  S. A. Maurer,  
 N. J. Mayhall,  S. C. McKenzie,  J.-M. Mewes,  A. F. Morrison,  
 J. W. Mullinax,  K. Nanda,  T. S. Nguyen-Beck,  R. Olivares-Amaya,  
 J. A. Parkhill,  T. M. Perrine,  F. Plasser,  P. Pokhilko,  S. Prager,  
 A. Prociuk,  E. Ramos,  D. R. Rehn,  F. Rob,  M. Schneider,  N. Sergueev,  
 S. M. Sharada,  S. Sharma,  D. W. Small,  T. Stauch,  T. Stein,  
 Yu-Chuan Su,  A. J. W. Thom,  A. Tkatchenko,  T. Tsuchimochi,  N. M. Tubman,  
 L. Vogt,  M. L. Vidal,  O. Vydrov,  M. A. Watson,  J. Wenzel,  
 M. de Wergifosse,  T. A. Wesolowski,  A. White,  J. Witte,  A. Yamada,  
 Jun Yang,  K. Yao,  S. Yeganeh,  S. R. Yost,  Zhi-Qiang You,  A. Zech,  
 Igor Ying Zhang,  Xing Zhang,  Yan Zhao,  Ying Zhu,  B. R. Brooks,  
 G. K. L. Chan,  C. J. Cramer,  M. S. Gordon,  W. J. Hehre,  A. Klamt,  
 M. W. Schmidt,  C. D. Sherrill,  D. G. Truhlar,  A. Aspuru-Guzik,  R. Baer,  
 A. T. Bell,  N. A. Besley,  Jeng-Da Chai,  A. E. DePrince, III,  
 R. A. DiStasio Jr.,  A. Dreuw,  B. D. Dunietz,  T. R. Furlani,  
 Chao-Ping Hsu,  Yousung Jung,  Jing Kong,  D. S. Lambrecht,  WanZhen Liang,  
 C. Ochsenfeld,  V. A. Rassolov,  L. V. Slipchenko,  J. E. Subotnik,  
 T. Van Voorhis,  J. M. Herbert,  A. I. Krylov,  P. M. W. Gill,  M. Head-Gordon

 Contributors to earlier versions of Q-Chem not listed above: 
 R. D. Adamson,  B. Austin,  J. Baker,  G. J. O. Beran,  K. Brandhorst,  
 S. T. Brown,  E. F. C. Byrd,  A. K. Chakraborty,  C.-L. Cheng,  
 Siu Hung Chien,  D. M. Chipman,  D. L. Crittenden,  H. Dachsel,  
 R. J. Doerksen,  A. D. Dutoi,  L. Fusti-Molnar,  W. A. Goddard III,  
 A. Golubeva-Zadorozhnaya,  S. R. Gwaltney,  G. Hawkins,  A. Heyden,  
 S. Hirata,  G. Kedziora,  F. J. Keil,  C. Kelley,  Jihan Kim,  R. A. King,  
 R. Z. Khaliullin,  P. P. Korambath,  W. Kurlancheek,  A. M. Lee,  M. S. Lee,  
 S. V. Levchenko,  Ching Yeh Lin,  D. Liotard,  R. C. Lochan,  I. Lotan,  
 P. E. Maslen,  N. Nair,  D. P. O'Neill,  D. Neuhauser,  E. Neuscamman,  
 C. M. Oana,  R. Olson,  B. Peters,  R. Peverati,  P. A. Pieniazek,  
 Y. M. Rhee,  J. Ritchie,  M. A. Rohrdanz,  E. Rosta,  N. J. Russ,  
 H. F. Schaefer III,  N. E. Schultz,  N. Shenvi,  A. C. Simmonett,  A. Sodt,  
 D. Stuck,  K. S. Thanthiriwatte,  V. Vanovschi,  Tao Wang,  A. Warshel,  
 C. F. Williams,  Q. Wu,  X. Xu,  W. Zhang

 Please cite Q-Chem as follows:
 Y. Shao et al., Mol. Phys. 113, 184-215 (2015)
 DOI: 10.1080/00268976.2014.952696

 Q-Chem 5.1.1 for Intel X86 EM64T Linux

 Parts of Q-Chem use Armadillo 8.300.2 (Tropical Shenanigans).
 http://arma.sourceforge.net/

 Q-Chem begins on Wed Mar 13 19:31:45 2019  

Host: 
0

     Scratch files written to /staging/scratch/2868767/qchem19094//
 Aug318 |scratch|qcdevops|jenkins|workspace|build_RNUM 6013   
Processing $rem in /usr/usc/qchem/5.1.1/config/preferences.
 MEM_TOTAL  2000 
Input Ideriv = 2
Curr. Ideriv = -1
Max.  Ideriv = 2

Checking the input file for inconsistencies... 	...done.

--------------------------------------------------------------
User input:
--------------------------------------------------------------

$comment
potential surface scanner
$end

$rem
JOBTYPE  PES_SCAN
UNRESTRICTED TRUE
SYM_IGNORE  TRUE
GEOM_OPT_MAX_CYCLES 400
SCF_MAX_CYCLES 400
METHOD   B3LYP
BASIS   6-31G**
PDB_PRINT 2
SCF_CONVERGENCE 6
THRESH 14
SCF_PRINT 1
$end
$molecule
0 1
S 3.536775 0.665621 -0.087265
C -0.872322 0.360934 0.001500
C 0.030337 -0.796924 -0.010763
C -2.359543 -0.120941 0.069395
H -0.673946 0.993766 0.871998
H -0.744534 0.961684 -0.904236
H 0.338367 -1.278143 0.911545
H 0.285862 -1.304011 -0.935489
H -2.545160 -0.705444 0.974029
H -3.011625 0.757392 0.083401
H -2.618089 -0.731477 -0.799424
H 3.346479 1.101347 -1.351686
$end
$scan
stre 1 3 3.900000 3.901000 0.100000
$end
--------------------------------------------------------------
 ----------------------------------------------------------------
             Standard Nuclear Orientation (Angstroms)
    I     Atom           X                Y                Z
 ----------------------------------------------------------------
    1      S       3.5367750000     0.6656210000    -0.0872650000
    2      C      -0.8723220000     0.3609340000     0.0015000000
    3      C       0.0303370000    -0.7969240000    -0.0107630000
    4      C      -2.3595430000    -0.1209410000     0.0693950000
    5      H      -0.6739460000     0.9937660000     0.8719980000
    6      H      -0.7445340000     0.9616840000    -0.9042360000
    7      H       0.3383670000    -1.2781430000     0.9115450000
    8      H       0.2858620000    -1.3040110000    -0.9354890000
    9      H      -2.5451600000    -0.7054440000     0.9740290000
   10      H      -3.0116250000     0.7573920000     0.0834010000
   11      H      -2.6180890000    -0.7314770000    -0.7994240000
   12      H       3.3464790000     1.1013470000    -1.3516860000
 ----------------------------------------------------------------
 Nuclear Repulsion Energy =   130.5903138993 hartrees
 There are       21 alpha and       21 beta electrons
 Requested basis set is 6-31G(d,p)
 There are 41 shells and 104 basis functions

 Total QAlloc Memory Limit   2000 MB
 Mega-Array Size       188 MB
 MEM_STATIC part       192 MB
A total of 1 constraints
  
            1
    1   1.0100000
    2   1.0100000
    3   3.0100000
    4   3.9000000
    5   3.9010000
    6   0.1000000
    7   0.0000000
    8   0.0000000
    9   0.0000000
   10   0.0000000

                       Distance Matrix (Angstroms)
             S (  1)   C (  2)   C (  3)   C (  4)   H (  5)   H (  6)
   C (  2)  4.420503
   C (  3)  3.800000  1.468189
   C (  4)  5.950612  1.564813  2.484936
   H (  5)  4.331055  1.094347  2.117039  2.174392
   H (  6)  4.368604  1.094344  2.119297  2.174463  1.777926
   H (  7)  3.873713  2.231709  1.084945  3.054022  2.487551  3.080026
   H (  8)  3.894531  2.234140  1.085149  3.067183  3.077015  2.489190
   H (  9)  6.324247  2.209380  2.758871  1.092914  2.529657  3.090218
   H ( 10)  6.551266  2.177270  3.417352  1.094018  2.478407  2.481303
   H ( 11)  6.351488  2.209648  2.764133  1.092907  3.090276  2.527447
   H ( 12)  1.350863  4.491949  4.049482  6.006009  4.595668  4.117779
             H (  7)   H (  8)   H (  9)   H ( 10)   H ( 11)
   H (  8)  1.847961
   H (  9)  2.940513  3.466876
   H ( 10)  4.006454  4.020067  1.775020
   H ( 11)  3.459319  2.962978  1.775143  1.775100
   H ( 12)  4.453417  3.914887  6.586718  6.527118  6.264209
 
 A cutoff of  1.0D-14 yielded    776 shell pairs
 There are      5016 function pairs
 
 -------------------------------------------------------
 OpenMP Integral Computing Module                       
 Release: version 1.0, May 2013, Q-Chem Inc. Pittsburgh 
 -------------------------------------------------------
 Integral Job Info:
 Integral job number is                      11
 Integral operator is                         1
 short-range coefficients                     0
 long-range coefficients              100000000
 Omega coefficients                           0
 if combine SR and LR in K                    0
 Integral screening is                        0
 Integral computing path is                   2
 max size of driver memory is            800000
 size of driver memory is                593474
 size of scratch memory is             15267112
 max col of scratch BK array               1296
 max len of scratch array in speh3          155
 max len of scratch index in speh4           18
 max int batch size is                      520
 min int batch size is                       52
 fixed nKL is                                52
 max L of basis functions is                  2
 order of int derivative is                   0
 number of shells is                         41
 number of basis is                         104
 number of cartesian basis is               104
 number of contracted shell pairs           776
 number of primitive shell pairs           2679
 maxK2 (contraction) of shell pair           36
 max number of K2 of shell pair               1
 max number of CS2 of shell pair             80
 max number of PS2 of shell pair            228
 mem total for path MDJ                  512724
 -------------------------------------------------------
 Smallest overlap matrix eigenvalue = 6.17E-03

 Scale SEOQF with 1.000000e-01/1.000000e+00/1.000000e+00

 Standard Electronic Orientation quadrupole field applied
 Nucleus-field energy     =     0.0000000166 hartrees
 Guess from superposition of atomic densities
 Warning:  Energy on first SCF cycle will be non-variational
 SAD guess density has 42.000000 electrons

 -----------------------------------------------------------------------
  General SCF calculation program by
  Eric Jon Sundstrom, Paul Horn, Yuezhi Mao, Dmitri Zuev, Alec White,
  David Stuck, Shaama M.S., Shane Yost, Joonho Lee, David Small,
  Daniel Levine, Susi Lehtola, Hugh Burton, Evgeny Epifanovsky
 -----------------------------------------------------------------------
 Exchange:     0.2000 Hartree-Fock + 0.0800 Slater + 0.7200 B88
 Correlation:  0.1900 VWN1RPA + 0.8100 LYP
 Using SG-1 standard quadrature grid
 using 12 threads for integral computing
 -------------------------------------------------------
 OpenMP Integral computing Module                
 Release: version 1.0, May 2013, Q-Chem Inc. Pittsburgh 
 -------------------------------------------------------
 -------------------------------------------------------
 OpenMP BLAS3 based DFT computing Module                
 Release: version 1.0, May 2013, Q-Chem Inc. Pittsburgh 
 -------------------------------------------------------
 A unrestricted SCF calculation will be
 performed using DIIS
 SCF converges when DIIS error is below 1.0e-06
 Alpha HF Exchange    Energy =  -4.31943266824448
 Beta HF Exchange     Energy =  -4.31943266824448
 DFT Correlation      Energy =  -1.85490619820273
 DFT Exchange         Energy = -33.94542224349311
 One-Electron (alpha) Energy = -481.89553861080776
 One-Electron (beta)  Energy = -481.89553861080776
 Total Coulomb        Energy = 360.20496678023289
 ---------------------------------------
  Cycle       Energy         DIIS error
 ---------------------------------------
    1    -517.4349903037      2.82e-02  
 Alpha HF Exchange    Energy =  -4.35892529033066
 Beta HF Exchange     Energy =  -4.35892529033066
 DFT Correlation      Energy =  -1.88267812873544
 DFT Exchange         Energy = -34.56890842214985
 One-Electron (alpha) Energy = -485.76184280280069
 One-Electron (beta)  Energy = -485.76184280280063
 Total Coulomb        Energy = 369.05739379891196
    2    -517.0454150224      3.87e-03  
 Alpha HF Exchange    Energy =  -4.31272140674255
 Beta HF Exchange     Energy =  -4.31272140674255
 DFT Correlation      Energy =  -1.86790304749003
 DFT Exchange         Energy = -34.20130457350606
 One-Electron (alpha) Energy = -481.21170435922369
 One-Electron (beta)  Energy = -481.21170435922369
 Total Coulomb        Energy = 360.46768139020890
    3    -516.0600638468      1.05e-02  
 Alpha HF Exchange    Energy =  -4.29959478315458
 Beta HF Exchange     Energy =  -4.29959478315458
 DFT Correlation      Energy =  -1.86284123280614
 DFT Exchange         Energy = -34.14826214413449
 One-Electron (alpha) Energy = -482.45592279858630
 One-Electron (beta)  Energy = -482.45592279858658
 Total Coulomb        Energy = 361.74668854893662
    4    -517.1851360756      2.04e-03  
 Alpha HF Exchange    Energy =  -4.32311430824732
 Beta HF Exchange     Energy =  -4.32311430824731
 DFT Correlation      Energy =  -1.87499507524719
 DFT Exchange         Energy = -34.33687945414915
 One-Electron (alpha) Energy = -483.39816794726420
 One-Electron (beta)  Energy = -483.39816794726374
 Total Coulomb        Energy = 364.06383720900556
    5    -517.0002879155      4.52e-03  
 Alpha HF Exchange    Energy =  -4.31657946827206
 Beta HF Exchange     Energy =  -4.31657946827206
 DFT Correlation      Energy =  -1.87229986063345
 DFT Exchange         Energy = -34.30220577487481
 One-Electron (alpha) Energy = -483.52870740478488
 One-Electron (beta)  Energy = -483.52870740478483
 Total Coulomb        Energy = 364.09693533825236
    6    -517.1778301275      1.86e-03  
 Alpha HF Exchange    Energy =  -4.31616252097158
 Beta HF Exchange     Energy =  -4.31616252097158
 DFT Correlation      Energy =  -1.87172685841691
 DFT Exchange         Energy = -34.29698926850355
 One-Electron (alpha) Energy = -483.54344548443464
 One-Electron (beta)  Energy = -483.54344548443430
 Total Coulomb        Energy = 364.10292466884891
    7    -517.1946935530      1.28e-03  
 Alpha HF Exchange    Energy =  -4.31620661637683
 Beta HF Exchange     Energy =  -4.31620661637683
 DFT Correlation      Energy =  -1.87135125736716
 DFT Exchange         Energy = -34.29409687145066
 One-Electron (alpha) Energy = -483.57049884256782
 One-Electron (beta)  Energy = -483.57049884256759
 Total Coulomb        Energy = 364.14425413603021
    8    -517.2042909948      7.80e-04  
 Alpha HF Exchange    Energy =  -4.31749109261209
 Beta HF Exchange     Energy =  -4.31749109261208
 DFT Correlation      Energy =  -1.87105394273895
 DFT Exchange         Energy = -34.29730469203437
 One-Electron (alpha) Energy = -483.66218842791841
 One-Electron (beta)  Energy = -483.66218842791830
 Total Coulomb        Energy = 364.32714621194839
    9    -517.2102575480      4.09e-05  
 Alpha HF Exchange    Energy =  -4.31749091817390
 Beta HF Exchange     Energy =  -4.31749091817388
 DFT Correlation      Energy =  -1.87102318829838
 DFT Exchange         Energy = -34.29698963757878
 One-Electron (alpha) Energy = -483.65789106024954
 One-Electron (beta)  Energy = -483.65789106024846
 Total Coulomb        Energy = 364.31819408600199
   10    -517.2102687808      6.82e-06  
 Alpha HF Exchange    Energy =  -4.31751401610743
 Beta HF Exchange     Energy =  -4.31751401610738
 DFT Correlation      Energy =  -1.87102909929182
 DFT Exchange         Energy = -34.29712781331053
 One-Electron (alpha) Energy = -483.65979024373507
 One-Electron (beta)  Energy = -483.65979024373223
 Total Coulomb        Energy = 364.32218242561191
   11    -517.2102690908      2.88e-06  
 Alpha HF Exchange    Energy =  -4.31751364374591
 Beta HF Exchange     Energy =  -4.31751364374581
 DFT Correlation      Energy =  -1.87103089625655
 DFT Exchange         Energy = -34.29714519356894
 One-Electron (alpha) Energy = -483.65989892635724
 One-Electron (beta)  Energy = -483.65989892635230
 Total Coulomb        Energy = 364.32241813140769
   12    -517.2102691827      1.11e-06  
 Alpha HF Exchange    Energy =  -4.31750907183027
 Beta HF Exchange     Energy =  -4.31750907183006
 DFT Correlation      Energy =  -1.87103115122316
 DFT Exchange         Energy = -34.29712859532441
 One-Electron (alpha) Energy = -483.65959253058918
 One-Electron (beta)  Energy = -483.65959253057878
 Total Coulomb        Energy = 364.32177983191332
   13    -517.2102692036      7.20e-07  Convergence criterion met
 ---------------------------------------
 SCF time:   CPU 30.14s  wall 3.00s 
<S^2> =          0.000000000
 Alpha HF Exchange    Energy =  -4.31750907183027
 Beta HF Exchange     Energy =  -4.31750907183006
 DFT Correlation      Energy =  -1.87103115122316
 DFT Exchange         Energy = -34.29712859532441
 One-Electron (alpha) Energy = -483.65959253058918
 One-Electron (beta)  Energy = -483.65959253057878
 Total Coulomb        Energy = 364.32177983191332
 Nuclear repulsion Energy = 130.59031391587112
 SCF   energy in the final basis set =     -517.2102692036
 Total energy in the final basis set =     -517.2102692036
 
 --------------------------------------------------------------
 
                    Orbital Energies (a.u.)
 --------------------------------------------------------------
 
 Alpha MOs
 -- Occupied --
-88.835 -10.278 -10.233 -10.222  -7.894  -5.857  -5.857  -5.848
 -0.831  -0.716  -0.648  -0.625  -0.515  -0.476  -0.441  -0.416
 -0.398  -0.379  -0.340  -0.209  -0.200
 -- Virtual --
 -0.153   0.070   0.091   0.105   0.108   0.125   0.145   0.148
  0.184   0.188   0.234   0.322   0.376   0.392   0.410   0.471
  0.491   0.493   0.522   0.558   0.615   0.635   0.672   0.750
  0.761   0.780   0.791   0.802   0.809   0.840   0.841   0.841
  0.851   0.872   0.902   0.928   0.975   1.156   1.182   1.254
  1.391   1.439   1.472   1.571   1.629   1.766   1.832   1.898
  1.956   1.972   2.012   2.027   2.078   2.081   2.124   2.126
  2.180   2.219   2.250   2.335   2.395   2.412   2.482   2.529
  2.626   2.675   2.689   2.755   2.764   2.834   2.840   2.877
  3.152   3.204   3.312   3.346   3.421   3.428   3.517   4.002
  4.200   4.385   4.562
 
 Beta MOs
 -- Occupied --
-88.835 -10.278 -10.233 -10.222  -7.894  -5.857  -5.857  -5.848
 -0.831  -0.716  -0.648  -0.625  -0.515  -0.476  -0.441  -0.416
 -0.398  -0.379  -0.340  -0.209  -0.200
 -- Virtual --
 -0.153   0.070   0.091   0.105   0.108   0.125   0.145   0.148
  0.184   0.188   0.234   0.322   0.376   0.392   0.410   0.471
  0.491   0.493   0.522   0.558   0.615   0.635   0.672   0.750
  0.761   0.780   0.791   0.802   0.809   0.840   0.841   0.841
  0.851   0.872   0.902   0.928   0.975   1.156   1.182   1.254
  1.391   1.439   1.472   1.571   1.629   1.766   1.832   1.898
  1.956   1.972   2.012   2.027   2.078   2.081   2.124   2.126
  2.180   2.219   2.250   2.335   2.395   2.412   2.482   2.529
  2.626   2.675   2.689   2.755   2.764   2.834   2.840   2.877
  3.152   3.204   3.312   3.346   3.421   3.428   3.517   4.002
  4.200   4.385   4.562
 --------------------------------------------------------------
 
          Ground-State Mulliken Net Atomic Charges

     Atom                 Charge (a.u.)    Spin (a.u.)
  --------------------------------------------------------
      1 S                    -0.394517       0.000000
      2 C                    -0.220901       0.000000
      3 C                    -0.123989      -0.000000
      4 C                    -0.330190      -0.000000
      5 H                     0.154635      -0.000000
      6 H                     0.146686      -0.000000
      7 H                     0.170731       0.000000
      8 H                     0.167324       0.000000
      9 H                     0.127534      -0.000000
     10 H                     0.135644      -0.000000
     11 H                     0.126451      -0.000000
     12 H                     0.040592      -0.000000
  --------------------------------------------------------
  Sum of atomic charges =     0.000000
  Sum of spin   charges =     0.000000

 -----------------------------------------------------------------
                    Cartesian Multipole Moments
 -----------------------------------------------------------------
    Charge (ESU x 10^10)
                 0.0000
    Dipole Moment (Debye)
         X      -6.7141      Y      -1.4653      Z      -0.6486
       Tot       6.9027
    Quadrupole Moments (Debye-Ang)
        XX     -53.2158     XY      -2.7834     YY     -34.4087
        XZ      -2.0730     YZ      -1.6000     ZZ     -31.8428
    Octopole Moments (Debye-Ang^2)
       XXX    -166.1352    XXY     -10.7603    XYY     -34.2951
       YYY     -22.3465    XXZ      -4.0537    XYZ      -5.6080
       YYZ      -0.1950    XZZ     -24.7983    YZZ      -6.3242
       ZZZ       4.0306
    Hexadecapole Moments (Debye-Ang^3)
      XXXX   -1697.2931   XXXY    -120.6819   XXYY    -274.5092
      XYYY    -113.8775   YYYY    -139.3771   XXXZ       9.9466
      XXYZ     -17.0649   XYYZ       2.2826   YYYZ       2.9023
      XXZZ    -233.1476   XYZZ     -29.5127   YYZZ     -29.3517
      XZZZ      22.4567   YZZZ       3.0103   ZZZZ     -63.5677
 -----------------------------------------------------------------
 Calculating analytic gradient of the SCF energy
 Gradient of SCF Energy
            1           2           3           4           5           6
    1   0.0169005   0.0000408  -0.0169813   0.0000210   0.0000148  -0.0000520
    2   0.0070748   0.0000146  -0.0070152   0.0000122   0.0000177   0.0000064
    3  -0.0004001   0.0000185   0.0004533   0.0000039  -0.0000132  -0.0000179
            7           8           9          10          11          12
    1   0.0000000   0.0000797  -0.0000080  -0.0000073   0.0000031  -0.0000114
    2  -0.0000687  -0.0000244  -0.0000142  -0.0000116  -0.0000142   0.0000226
    3   0.0000211  -0.0000300   0.0000025  -0.0000090   0.0000019  -0.0000309
 Max gradient component =       1.698E-02
 RMS gradient           =       4.326E-03
 Gradient time:  CPU 10.04 s  wall 0.94 s
 Geometry Optimization Parameters
   NAtoms,    NIC,     NZ,  NCons,   NDum,   NFix, NCnnct, MaxDiis
       12     151       0       1       0       0       0       0


** CONSTRAINED OPTIMIZATION IN DELOCALIZED INTERNAL COORDINATES **
   Searching for a Minimum

   Optimization Cycle:   1

                       Coordinates (Angstroms)
     ATOM                X               Y               Z
      1  S         3.5367750000    0.6656210000   -0.0872650000
      2  C        -0.8723220000    0.3609340000    0.0015000000
      3  C         0.0303370000   -0.7969240000   -0.0107630000
      4  C        -2.3595430000   -0.1209410000    0.0693950000
      5  H        -0.6739460000    0.9937660000    0.8719980000
      6  H        -0.7445340000    0.9616840000   -0.9042360000
      7  H         0.3383670000   -1.2781430000    0.9115450000
      8  H         0.2858620000   -1.3040110000   -0.9354890000
      9  H        -2.5451600000   -0.7054440000    0.9740290000
     10  H        -3.0116250000    0.7573920000    0.0834010000
     11  H        -2.6180890000   -0.7314770000   -0.7994240000
     12  H         3.3464790000    1.1013470000   -1.3516860000
   Point Group: c1    Number of degrees of freedom:    30


   Energy is   -517.210269204

              Constraints and their Current Values
                                        Value     Constraint
   Distance(Angs):        1   3             3.800000     3.900000

 Attempting to Generate Delocalized Internal Coordinates

   Using Lagrange Multiplier Algorithm


 31 Hessian modes will be used to form the next step
  Hessian Eigenvalues:
    -0.995227    0.026188    0.044595    0.045000    0.046673    0.049136
     0.056331    0.061443    0.064563    0.069276    0.072222    0.074098
     0.082660    0.084845    0.089732    0.114458    0.157966    0.160000
     0.160000    0.160000    0.230659    0.264292    0.275491    0.307919
     0.324763    0.326616    0.343150    0.343524    0.344781    0.344788
     1.004796

 Minimum Search - Taking P-RFO Step
 Searching for Lamda that Maximizes Along the Constraint modes Only
 Value Taken    Lamda =   0.02121839
 Searching for Lamda that Minimizes Along All other modes
 Value Taken    Lamda =  -0.01420880
 Step Taken.  Stepsize is  0.185620

                             Maximum     Tolerance    Cnvgd?
         Gradient            0.188973       0.000300      NO
         Displacement        0.185617       0.001200      NO
         Energy change     *********       0.000001      NO


 New Cartesian Coordinates Obtained by Inverse Iteration

 Displacement from previous Coordinates is:  0.186278
 ----------------------------------------------------------------
             Standard Nuclear Orientation (Angstroms)
    I     Atom           X                Y                Z
 ----------------------------------------------------------------
    1      S       3.6158368082     0.6852331024    -0.0957047986
    2      C      -0.8850828228     0.3517257370     0.0050511963
    3      C       0.0124601476    -0.7995365570    -0.0103547755
    4      C      -2.3746870613    -0.1230953917     0.0706883551
    5      H      -0.6884851201     0.9841380052     0.8762491454
    6      H      -0.7397381716     0.9501156089    -0.9018282909
    7      H       0.3402075063    -1.2721845824     0.9012577065
    8      H       0.2854063974    -1.2894739692    -0.9277412664
    9      H      -2.5645348491    -0.7057433091     0.9756375776
   10      H      -3.0226447442     0.7583101619     0.0826974994
   11      H      -2.6345925867    -0.7333256613    -0.7979288617
   12      H       3.3684554964     1.0976408554    -1.3550184873
 ----------------------------------------------------------------
 Nuclear Repulsion Energy =   129.8160526655 hartrees
 There are       21 alpha and       21 beta electrons

                       Distance Matrix (Angstroms)
             S (  1)   C (  2)   C (  3)   C (  4)   H (  5)   H (  6)
   C (  2)  4.514383
   C (  3)  3.898224  1.459872
   C (  4)  6.047103  1.564827  2.482461
   H (  5)  4.422807  1.094341  2.111607  2.172135
   H (  6)  4.437458  1.096187  2.102810  2.184177  1.779141
   H (  7)  3.944004  2.222973  1.077892  3.062826  2.479884  3.058761
   H (  8)  3.960242  2.221190  1.075238  3.071384  3.061398  2.463200
   H (  9)  6.424919  2.209262  2.760775  1.092911  2.526883  3.097843
   H ( 10)  6.641280  2.177271  3.412830  1.094015  2.475686  2.493540
   H ( 11)  6.447736  2.209728  2.762525  1.092899  3.088671  2.536778
   H ( 12)  1.348017  4.527556  4.082904  6.042063  4.631437  4.135747
             H (  7)   H (  8)   H (  9)   H ( 10)   H ( 11)
   H (  8)  1.829901
   H (  9)  2.960391  3.476458
   H ( 10)  4.012695  4.019653  1.775010
   H ( 11)  3.468002  2.975323  1.775164  1.775124
   H ( 12)  4.458379  3.922509  6.624540  6.559599  6.300744
 
 Applying Cartesian multipole field
    Component          Value
    ---------          -----
     (2,0,0)        1.00000E-11
     (0,2,0)        2.00000E-10
     (0,0,2)       -3.00000E-10
 Nucleus-field energy     =     0.0000000171 hartrees
 Requested basis set is 6-31G(d,p)
 There are 41 shells and 104 basis functions
 A cutoff of  1.0D-14 yielded    775 shell pairs
 There are      4992 function pairs
 Smallest overlap matrix eigenvalue = 6.10E-03
 Guess from superposition of atomic densities
 Warning:  Energy on first SCF cycle will be non-variational
 SAD guess density has 42.000000 electrons

 -----------------------------------------------------------------------
  General SCF calculation program by
  Eric Jon Sundstrom, Paul Horn, Yuezhi Mao, Dmitri Zuev, Alec White,
  David Stuck, Shaama M.S., Shane Yost, Joonho Lee, David Small,
  Daniel Levine, Susi Lehtola, Hugh Burton, Evgeny Epifanovsky
 -----------------------------------------------------------------------
 Exchange:     0.2000 Hartree-Fock + 0.0800 Slater + 0.7200 B88
 Correlation:  0.1900 VWN1RPA + 0.8100 LYP
 Using SG-1 standard quadrature grid
 using 12 threads for integral computing
 -------------------------------------------------------
 OpenMP Integral computing Module                
 Release: version 1.0, May 2013, Q-Chem Inc. Pittsburgh 
 -------------------------------------------------------
 -------------------------------------------------------
 OpenMP BLAS3 based DFT computing Module                
 Release: version 1.0, May 2013, Q-Chem Inc. Pittsburgh 
 -------------------------------------------------------
 A unrestricted SCF calculation will be
 performed using DIIS
 SCF converges when DIIS error is below 1.0e-06
 Alpha HF Exchange    Energy =  -4.32135474292252
 Beta HF Exchange     Energy =  -4.32135474292252
 DFT Correlation      Energy =  -1.85513409750400
 DFT Exchange         Energy = -33.94968726690266
 One-Electron (alpha) Energy = -481.10750544335451
 One-Electron (beta)  Energy = -481.10750544335451
 Total Coulomb        Energy = 359.39577087226303
 ---------------------------------------
  Cycle       Energy         DIIS error
 ---------------------------------------
    1    -517.4507181821      2.84e-02  
 Alpha HF Exchange    Energy =  -4.36059604591671
 Beta HF Exchange     Energy =  -4.36059604591671
 DFT Correlation      Energy =  -1.88307238896987
 DFT Exchange         Energy = -34.57960896210643
 One-Electron (alpha) Energy = -484.98901815951018
 One-Electron (beta)  Energy = -484.98901815951001
 Total Coulomb        Energy = 368.30881640737766
    2    -517.0370406719      3.86e-03  
 Alpha HF Exchange    Energy =  -4.31013859416046
 Beta HF Exchange     Energy =  -4.31013859416047
 DFT Correlation      Energy =  -1.86758990186313
 DFT Exchange         Energy = -34.19520177424754
 One-Electron (alpha) Energy = -480.19966368135641
 One-Electron (beta)  Energy = -480.19966368135709
 Total Coulomb        Energy = 359.36047590639555
    3    -515.9058676381      1.13e-02  
 Alpha HF Exchange    Energy =  -4.30068450861170
 Beta HF Exchange     Energy =  -4.30068450861170
 DFT Correlation      Energy =  -1.86491143980706
 DFT Exchange         Energy = -34.16547801316136
 One-Electron (alpha) Energy = -481.41248358787612
 One-Electron (beta)  Energy = -481.41248358787573
 Total Coulomb        Energy = 360.55205685555279
    4    -517.0886161078      3.55e-03  
 Alpha HF Exchange    Energy =  -4.31804125440038
 Beta HF Exchange     Energy =  -4.31804125440039
 DFT Correlation      Energy =  -1.86851475271254
 DFT Exchange         Energy = -34.27458951815893
 One-Electron (alpha) Energy = -482.73987039296071
 One-Electron (beta)  Energy = -482.73987039296071
 Total Coulomb        Energy = 363.26336086413028
    5    -517.1795140188      1.59e-03  
 Alpha HF Exchange    Energy =  -4.31847438609656
 Beta HF Exchange     Energy =  -4.31847438609656
 DFT Correlation      Energy =  -1.87341937426971
 DFT Exchange         Energy = -34.31838051365304
 One-Electron (alpha) Energy = -482.69221670235015
 One-Electron (beta)  Energy = -482.69221670235044
 Total Coulomb        Energy = 363.26128175575150
    6    -517.1358476264      2.73e-03  
 Alpha HF Exchange    Energy =  -4.31776054532979
 Beta HF Exchange     Energy =  -4.31776054532979
 DFT Correlation      Energy =  -1.87170006243378
 DFT Exchange         Energy = -34.30620704943188
 One-Electron (alpha) Energy = -482.83113522311754
 One-Electron (beta)  Energy = -482.83113522311771
 Total Coulomb        Energy = 363.45537834282129
    7    -517.2042676233      5.10e-04  
 Alpha HF Exchange    Energy =  -4.31804124506311
 Beta HF Exchange     Energy =  -4.31804124506311
 DFT Correlation      Energy =  -1.87145795175867
 DFT Exchange         Energy = -34.30499813481850
 One-Electron (alpha) Energy = -482.85461689056848
 One-Electron (beta)  Energy = -482.85461689056842
 Total Coulomb        Energy = 363.49922939012356
    8    -517.2064902851      1.71e-04  
 Alpha HF Exchange    Energy =  -4.31820445449296
 Beta HF Exchange     Energy =  -4.31820445449296
 DFT Correlation      Energy =  -1.87141311359842
 DFT Exchange         Energy = -34.30528617744465
 One-Electron (alpha) Energy = -482.86443554567097
 One-Electron (beta)  Energy = -482.86443554567097
 Total Coulomb        Energy = 363.51920662525072
    9    -517.2067199835      8.03e-05  
 Alpha HF Exchange    Energy =  -4.31827192083914
 Beta HF Exchange     Energy =  -4.31827192083915
 DFT Correlation      Energy =  -1.87138292523390
 DFT Exchange         Energy = -34.30526387412019
 One-Electron (alpha) Energy = -482.86787820169934
 One-Electron (beta)  Energy = -482.86787820169951
 Total Coulomb        Energy = 363.52612198808589
   10    -517.2067723737      3.40e-05  
 Alpha HF Exchange    Energy =  -4.31832522969186
 Beta HF Exchange     Energy =  -4.31832522969188
 DFT Correlation      Energy =  -1.87137156872362
 DFT Exchange         Energy = -34.30536785849024
 One-Electron (alpha) Energy = -482.87073562461825
 One-Electron (beta)  Energy = -482.87073562461904
 Total Coulomb        Energy = 363.53202494487022
   11    -517.2067835083      7.36e-06  
 Alpha HF Exchange    Energy =  -4.31834112492906
 Beta HF Exchange     Energy =  -4.31834112492911
 DFT Correlation      Energy =  -1.87136932752393
 DFT Exchange         Energy = -34.30540894265570
 One-Electron (alpha) Energy = -482.87176269505125
 One-Electron (beta)  Energy = -482.87176269505375
 Total Coulomb        Energy = 363.53414916966000
   12    -517.2067840578      3.92e-07  Convergence criterion met
 ---------------------------------------
 SCF time:   CPU 26.82s  wall 2.00s 
<S^2> =         -0.000000000
 Alpha HF Exchange    Energy =  -4.31834112492906
 Beta HF Exchange     Energy =  -4.31834112492911
 DFT Correlation      Energy =  -1.87136932752393
 DFT Exchange         Energy = -34.30540894265570
 One-Electron (alpha) Energy = -482.87176269505125
 One-Electron (beta)  Energy = -482.87176269505375
 Total Coulomb        Energy = 363.53414916966000
 Nuclear repulsion Energy = 129.81605268263797
 SCF   energy in the final basis set =     -517.2067840578
 Total energy in the final basis set =     -517.2067840578
 
 --------------------------------------------------------------
 
                    Orbital Energies (a.u.)
 --------------------------------------------------------------
 
 Alpha MOs
 -- Occupied --
-88.833 -10.276 -10.233 -10.223  -7.893  -5.856  -5.856  -5.847
 -0.833  -0.719  -0.647  -0.626  -0.518  -0.478  -0.442  -0.418
 -0.399  -0.379  -0.340  -0.207  -0.199
 -- Virtual --
 -0.155   0.070   0.093   0.104   0.109   0.124   0.144   0.147
  0.183   0.190   0.236   0.322   0.378   0.391   0.411   0.468
  0.490   0.492   0.521   0.557   0.617   0.627   0.666   0.752
  0.762   0.780   0.791   0.803   0.808   0.839   0.841   0.842
  0.849   0.873   0.901   0.927   0.973   1.159   1.179   1.254
  1.394   1.437   1.470   1.571   1.627   1.765   1.837   1.906
  1.965   1.970   2.011   2.026   2.078   2.080   2.125   2.127
  2.179   2.220   2.250   2.335   2.392   2.420   2.489   2.533
  2.626   2.682   2.690   2.757   2.769   2.839   2.846   2.884
  3.152   3.211   3.320   3.346   3.427   3.433   3.524   4.003
  4.200   4.384   4.561
 
 Beta MOs
 -- Occupied --
-88.833 -10.276 -10.233 -10.223  -7.893  -5.856  -5.856  -5.847
 -0.833  -0.719  -0.647  -0.626  -0.518  -0.478  -0.442  -0.418
 -0.399  -0.379  -0.340  -0.207  -0.199
 -- Virtual --
 -0.155   0.070   0.093   0.104   0.109   0.124   0.144   0.147
  0.183   0.190   0.236   0.322   0.378   0.391   0.411   0.468
  0.490   0.492   0.521   0.557   0.617   0.627   0.666   0.752
  0.762   0.780   0.791   0.803   0.808   0.839   0.841   0.842
  0.849   0.873   0.901   0.927   0.973   1.159   1.179   1.254
  1.394   1.437   1.470   1.571   1.627   1.765   1.837   1.906
  1.965   1.970   2.011   2.026   2.078   2.080   2.125   2.127
  2.179   2.220   2.250   2.335   2.392   2.420   2.489   2.533
  2.626   2.682   2.690   2.757   2.769   2.839   2.846   2.884
  3.152   3.211   3.320   3.346   3.427   3.433   3.524   4.003
  4.200   4.384   4.561
 --------------------------------------------------------------
 
          Ground-State Mulliken Net Atomic Charges

     Atom                 Charge (a.u.)    Spin (a.u.)
  --------------------------------------------------------
      1 S                    -0.394064      -0.000000
      2 C                    -0.222573      -0.000000
      3 C                    -0.126352       0.000000
      4 C                    -0.329093       0.000000
      5 H                     0.154830       0.000000
      6 H                     0.146883       0.000000
      7 H                     0.171247      -0.000000
      8 H                     0.167895      -0.000000
      9 H                     0.128423       0.000000
     10 H                     0.136014       0.000000
     11 H                     0.127068       0.000000
     12 H                     0.039720       0.000000
  --------------------------------------------------------
  Sum of atomic charges =    -0.000000
  Sum of spin   charges =     0.000000

 -----------------------------------------------------------------
                    Cartesian Multipole Moments
 -----------------------------------------------------------------
    Charge (ESU x 10^10)
                 0.0000
    Dipole Moment (Debye)
         X      -6.9245      Y      -1.5089      Z      -0.6347
       Tot       7.1153
    Quadrupole Moments (Debye-Ang)
        XX     -54.3787     XY      -3.0841     YY     -34.5328
        XZ      -2.0223     YZ      -1.5701     ZZ     -31.8407
    Octopole Moments (Debye-Ang^2)
       XXX    -175.7259    XXY     -12.5274    XYY     -35.6373
       YYY     -23.1436    XXZ      -3.4594    XYZ      -5.5878
       YYZ      -0.0853    XZZ     -25.6246    YZZ      -6.4718
       ZZZ       4.2717
    Hexadecapole Moments (Debye-Ang^3)
      XXXX   -1780.7145   XXXY    -132.4985   XXYY    -285.7168
      XYYY    -120.5056   YYYY    -141.5590   XXXZ      14.0881
      XXYZ     -17.0052   XYYZ       2.7958   YYYZ       3.1809
      XXZZ    -241.3680   XYZZ     -31.2522   YYZZ     -29.7400
      XZZZ      24.1809   YZZZ       3.3369   ZZZZ     -63.5847
 -----------------------------------------------------------------
 Calculating analytic gradient of the SCF energy
 Gradient of SCF Energy
            1           2           3           4           5           6
    1   0.0156570   0.0010549  -0.0169399   0.0006027  -0.0000377   0.0019406
    2   0.0069450  -0.0034706  -0.0075733  -0.0003671  -0.0000397  -0.0001560
    3  -0.0016155   0.0010955  -0.0022540   0.0007533  -0.0002170  -0.0008275
            7           8           9          10          11          12
    1  -0.0007779  -0.0009904  -0.0002819  -0.0000245  -0.0000288  -0.0001742
    2   0.0022003   0.0031714  -0.0000667  -0.0000058  -0.0000209  -0.0006166
    3  -0.0046717   0.0063867   0.0000238   0.0000059  -0.0000345   0.0013552
 Max gradient component =       1.694E-02
 RMS gradient           =       4.554E-03
 Gradient time:  CPU 7.58 s  wall 0.63 s
 Geometry Optimization Parameters
   NAtoms,    NIC,     NZ,  NCons,   NDum,   NFix, NCnnct, MaxDiis
       12     151       0       1       0       0       0       0

 Cartesian Hessian Update
 Hessian Updated using BFGS Update


** CONSTRAINED OPTIMIZATION IN DELOCALIZED INTERNAL COORDINATES **
   Searching for a Minimum

   Optimization Cycle:   2

                       Coordinates (Angstroms)
     ATOM                X               Y               Z
      1  S         3.6158368082    0.6852331024   -0.0957047986
      2  C        -0.8850828228    0.3517257370    0.0050511963
      3  C         0.0124601476   -0.7995365570   -0.0103547755
      4  C        -2.3746870613   -0.1230953917    0.0706883551
      5  H        -0.6884851201    0.9841380052    0.8762491454
      6  H        -0.7397381716    0.9501156089   -0.9018282909
      7  H         0.3402075063   -1.2721845824    0.9012577065
      8  H         0.2854063974   -1.2894739692   -0.9277412664
      9  H        -2.5645348491   -0.7057433091    0.9756375776
     10  H        -3.0226447442    0.7583101619    0.0826974994
     11  H        -2.6345925867   -0.7333256613   -0.7979288617
     12  H         3.3684554964    1.0976408554   -1.3550184873
   Point Group: c1    Number of degrees of freedom:    30


   Energy is   -517.206784058

              Constraints and their Current Values
                                        Value     Constraint
   Distance(Angs):        1   3             3.898224     3.900000
 Hessian Updated using BFGS Update

   Using Lagrange Multiplier Algorithm


 30 Hessian modes will be used to form the next step
  Hessian Eigenvalues:
    -0.998139    0.027000    0.044650    0.045000    0.046733    0.049247
     0.056438    0.061522    0.064766    0.069300    0.072593    0.074099
     0.082674    0.084852    0.090268    0.119182    0.158038    0.160000
     0.160284    0.231679    0.264294    0.289195    0.308955    0.326414
     0.343138    0.343524    0.344778    0.344787    0.795892    1.008642

 Minimum Search - Taking P-RFO Step
 Searching for Lamda that Maximizes Along the Constraint modes Only
 Value Taken    Lamda =   0.00000532
 Searching for Lamda that Minimizes Along All other modes
 Value Taken    Lamda =  -0.00012533
 Step Taken.  Stepsize is  0.016484

                             Maximum     Tolerance    Cnvgd?
         Gradient            0.004816       0.000300      NO
         Displacement        0.006793       0.001200      NO
         Energy change      0.003485       0.000001      NO


 New Cartesian Coordinates Obtained by Inverse Iteration

 Displacement from previous Coordinates is:  0.015479
 ----------------------------------------------------------------
             Standard Nuclear Orientation (Angstroms)
    I     Atom           X                Y                Z
 ----------------------------------------------------------------
    1      S       3.6183177792     0.6854998051    -0.0959381696
    2      C      -0.8860144604     0.3521658367     0.0053602090
    3      C       0.0135970991    -0.8006069989    -0.0094842945
    4      C      -2.3758037580    -0.1224449950     0.0701166541
    5      H      -0.6895435056     0.9844892994     0.8767853236
    6      H      -0.7431733469     0.9510810383    -0.9009729666
    7      H       0.3422936596    -1.2739085011     0.9044208662
    8      H       0.2872693314    -1.2917734897    -0.9299943272
    9      H      -2.5649604068    -0.7053189742     0.9749990990
   10      H      -3.0237433255     0.7589543876     0.0824788455
   11      H      -2.6355741477    -0.7324455393    -0.7986629330
   12      H       3.3699360816     1.0981121311    -1.3561033063
 ----------------------------------------------------------------
 Nuclear Repulsion Energy =   129.7210381802 hartrees
 There are       21 alpha and       21 beta electrons

                       Distance Matrix (Angstroms)
             S (  1)   C (  2)   C (  3)   C (  4)   H (  5)   H (  6)
   C (  2)  4.517785
   C (  3)  3.900000  1.462329
   C (  4)  6.050607  1.564903  2.485051
   H (  5)  4.426427  1.094448  2.113398  2.172439
   H (  6)  4.443109  1.095693  2.106149  2.181961  1.778881
   H (  7)  3.946180  2.227368  1.080407  3.067570  2.483105  3.064027
   H (  8)  3.962467  2.225763  1.078647  3.075632  3.065940  2.468411
   H (  9)  6.427613  2.208469  2.761747  1.092856  2.526319  3.095455
   H ( 10)  6.644863  2.177455  3.415571  1.094003  2.475940  2.491002
   H ( 11)  6.451012  2.209931  2.765060  1.092867  3.089017  2.534938
   H ( 12)  1.349058  4.530247  4.084548  6.044617  4.634445  4.140825
             H (  7)   H (  8)   H (  9)   H ( 10)   H ( 11)
   H (  8)  1.835327
   H (  9)  2.963174  3.479676
   H ( 10)  4.017253  4.024101  1.775154
   H ( 11)  3.472949  2.978777  1.775274  1.775207
   H ( 12)  4.461286  3.923768  6.626417  6.562293  6.303002
 
 Applying Cartesian multipole field
    Component          Value
    ---------          -----
     (2,0,0)        1.00000E-11
     (0,2,0)        2.00000E-10
     (0,0,2)       -3.00000E-10
 Nucleus-field energy     =     0.0000000172 hartrees
 Requested basis set is 6-31G(d,p)
 There are 41 shells and 104 basis functions
 A cutoff of  1.0D-14 yielded    775 shell pairs
 There are      4992 function pairs
 Smallest overlap matrix eigenvalue = 6.12E-03
 Guess from superposition of atomic densities
 Warning:  Energy on first SCF cycle will be non-variational
 SAD guess density has 42.000000 electrons

 -----------------------------------------------------------------------
  General SCF calculation program by
  Eric Jon Sundstrom, Paul Horn, Yuezhi Mao, Dmitri Zuev, Alec White,
  David Stuck, Shaama M.S., Shane Yost, Joonho Lee, David Small,
  Daniel Levine, Susi Lehtola, Hugh Burton, Evgeny Epifanovsky
 -----------------------------------------------------------------------
 Exchange:     0.2000 Hartree-Fock + 0.0800 Slater + 0.7200 B88
 Correlation:  0.1900 VWN1RPA + 0.8100 LYP
 Using SG-1 standard quadrature grid
 using 12 threads for integral computing
 -------------------------------------------------------
 OpenMP Integral computing Module                
 Release: version 1.0, May 2013, Q-Chem Inc. Pittsburgh 
 -------------------------------------------------------
 -------------------------------------------------------
 OpenMP BLAS3 based DFT computing Module                
 Release: version 1.0, May 2013, Q-Chem Inc. Pittsburgh 
 -------------------------------------------------------
 A unrestricted SCF calculation will be
 performed using DIIS
 SCF converges when DIIS error is below 1.0e-06
 Alpha HF Exchange    Energy =  -4.32067288918921
 Beta HF Exchange     Energy =  -4.32067288918921
 DFT Correlation      Energy =  -1.85497778228963
 DFT Exchange         Energy = -33.94824202849004
 One-Electron (alpha) Energy = -481.01725432025881
 One-Electron (beta)  Energy = -481.01725432025881
 Total Coulomb        Energy = 359.31275681936006
 ---------------------------------------
  Cycle       Energy         DIIS error
 ---------------------------------------
    1    -517.4452792129      2.83e-02  
 Alpha HF Exchange    Energy =  -4.36022930494283
 Beta HF Exchange     Energy =  -4.36022930494283
 DFT Correlation      Energy =  -1.88287581610949
 DFT Exchange         Energy = -34.57672593450749
 One-Electron (alpha) Energy = -484.89558057862570
 One-Electron (beta)  Energy = -484.89558057862575
 Total Coulomb        Energy = 368.21391868220218
    2    -517.0362646382      3.87e-03  
 Alpha HF Exchange    Energy =  -4.30908155947794
 Beta HF Exchange     Energy =  -4.30908155947793
 DFT Correlation      Energy =  -1.86730713714948
 DFT Exchange         Energy = -34.19090881558618
 One-Electron (alpha) Energy = -480.05147693681181
 One-Electron (beta)  Energy = -480.05147693681153
 Total Coulomb        Energy = 359.19780298652671
    3    -515.8604917614      1.15e-02  
 Alpha HF Exchange    Energy =  -4.30153513452689
 Beta HF Exchange     Energy =  -4.30153513452689
 DFT Correlation      Energy =  -1.86513722380938
 DFT Exchange         Energy = -34.16797628914480
 One-Electron (alpha) Energy = -481.27689061235100
 One-Electron (beta)  Energy = -481.27689061235111
 Total Coulomb        Energy = 360.41749555106196
    4    -517.0514312583      3.98e-03  
 Alpha HF Exchange    Energy =  -4.31808052773681
 Beta HF Exchange     Energy =  -4.31808052773681
 DFT Correlation      Energy =  -1.86747468033721
 DFT Exchange         Energy = -34.26437397880084
 One-Electron (alpha) Energy = -482.60808942593684
 One-Electron (beta)  Energy = -482.60808942593673
 Total Coulomb        Energy = 363.10295033466184
    5    -517.1602000344      2.04e-03  
 Alpha HF Exchange    Energy =  -4.31823408070594
 Beta HF Exchange     Energy =  -4.31823408070594
 DFT Correlation      Energy =  -1.87332037368730
 DFT Exchange         Energy = -34.31599596064463
 One-Electron (alpha) Energy = -482.57743265309222
 One-Electron (beta)  Energy = -482.57743265309239
 Total Coulomb        Energy = 363.13354711123031
    6    -517.1260644933      2.90e-03  
 Alpha HF Exchange    Energy =  -4.31720175685538
 Beta HF Exchange     Energy =  -4.31720175685538
 DFT Correlation      Energy =  -1.87167404321441
 DFT Exchange         Energy = -34.30413937472549
 One-Electron (alpha) Energy = -482.72160032970453
 One-Electron (beta)  Energy = -482.72160032970459
 Total Coulomb        Energy = 363.33091332987254
    7    -517.2014660638      7.50e-04  
 Alpha HF Exchange    Energy =  -4.31731741580003
 Beta HF Exchange     Energy =  -4.31731741580003
 DFT Correlation      Energy =  -1.87135310591630
 DFT Exchange         Energy = -34.30156688382728
 One-Electron (alpha) Energy = -482.73871809988179
 One-Electron (beta)  Energy = -482.73871809988123
 Total Coulomb        Energy = 363.35844748591342
    8    -517.2055053378      3.62e-04  
 Alpha HF Exchange    Energy =  -4.31770446635818
 Beta HF Exchange     Energy =  -4.31770446635817
 DFT Correlation      Energy =  -1.87128459611770
 DFT Exchange         Energy = -34.30266692562684
 One-Electron (alpha) Energy = -482.76530859393699
 One-Electron (beta)  Energy = -482.76530859393631
 Total Coulomb        Energy = 363.41239835432032
    9    -517.2065410906      1.69e-04  
 Alpha HF Exchange    Energy =  -4.31783962126770
 Beta HF Exchange     Energy =  -4.31783962126766
 DFT Correlation      Energy =  -1.87120831753709
 DFT Exchange         Energy = -34.30247676177770
 One-Electron (alpha) Energy = -482.77167076643991
 One-Electron (beta)  Energy = -482.77167076643769
 Total Coulomb        Energy = 363.42488495196454
   10    -517.2067827054      6.05e-05  
 Alpha HF Exchange    Energy =  -4.31795544380319
 Beta HF Exchange     Energy =  -4.31795544380308
 DFT Correlation      Energy =  -1.87118937422381
 DFT Exchange         Energy = -34.30276140725060
 One-Electron (alpha) Energy = -482.77840115430166
 One-Electron (beta)  Energy = -482.77840115429569
 Total Coulomb        Energy = 363.43880634703703
   11    -517.2068194333      6.75e-06  
 Alpha HF Exchange    Energy =  -4.31796974455725
 Beta HF Exchange     Energy =  -4.31796974455699
 DFT Correlation      Energy =  -1.87118711592854
 DFT Exchange         Energy = -34.30279421517098
 One-Electron (alpha) Energy = -482.77940603096573
 One-Electron (beta)  Energy = -482.77940603095260
 Total Coulomb        Energy = 363.44087480184157
   12    -517.2068198829      4.98e-07  Convergence criterion met
 ---------------------------------------
 SCF time:   CPU 26.20s  wall 3.00s 
<S^2> =          0.000000000
 Alpha HF Exchange    Energy =  -4.31796974455725
 Beta HF Exchange     Energy =  -4.31796974455699
 DFT Correlation      Energy =  -1.87118711592854
 DFT Exchange         Energy = -34.30279421517098
 One-Electron (alpha) Energy = -482.77940603096573
 One-Electron (beta)  Energy = -482.77940603095260
 Total Coulomb        Energy = 363.44087480184157
 Nuclear repulsion Energy = 129.72103819738646
 SCF   energy in the final basis set =     -517.2068198829
 Total energy in the final basis set =     -517.2068198829
 
 --------------------------------------------------------------
 
                    Orbital Energies (a.u.)
 --------------------------------------------------------------
 
 Alpha MOs
 -- Occupied --
-88.833 -10.277 -10.233 -10.223  -7.893  -5.856  -5.856  -5.847
 -0.833  -0.718  -0.647  -0.626  -0.517  -0.478  -0.442  -0.418
 -0.399  -0.379  -0.340  -0.207  -0.199
 -- Virtual --
 -0.155   0.070   0.093   0.104   0.108   0.124   0.144   0.147
  0.183   0.190   0.235   0.322   0.378   0.391   0.411   0.468
  0.490   0.492   0.521   0.557   0.616   0.627   0.666   0.752
  0.762   0.780   0.791   0.803   0.808   0.839   0.841   0.842
  0.849   0.872   0.901   0.927   0.973   1.158   1.178   1.254
  1.394   1.437   1.468   1.571   1.628   1.765   1.835   1.903
  1.962   1.969   2.011   2.026   2.078   2.080   2.125   2.127
  2.178   2.220   2.250   2.334   2.392   2.418   2.488   2.530
  2.625   2.679   2.688   2.756   2.768   2.839   2.843   2.881
  3.152   3.208   3.316   3.346   3.427   3.429   3.521   4.003
  4.199   4.384   4.561
 
 Beta MOs
 -- Occupied --
-88.833 -10.277 -10.233 -10.223  -7.893  -5.856  -5.856  -5.847
 -0.833  -0.718  -0.647  -0.626  -0.517  -0.478  -0.442  -0.418
 -0.399  -0.379  -0.340  -0.207  -0.199
 -- Virtual --
 -0.155   0.070   0.093   0.104   0.108   0.124   0.144   0.147
  0.183   0.190   0.235   0.322   0.378   0.391   0.411   0.468
  0.490   0.492   0.521   0.557   0.616   0.627   0.666   0.752
  0.762   0.780   0.791   0.803   0.808   0.839   0.841   0.842
  0.849   0.872   0.901   0.927   0.973   1.158   1.178   1.254
  1.394   1.437   1.468   1.571   1.628   1.765   1.835   1.903
  1.962   1.969   2.011   2.026   2.078   2.080   2.125   2.127
  2.178   2.220   2.250   2.334   2.392   2.418   2.488   2.530
  2.625   2.679   2.688   2.756   2.768   2.839   2.843   2.881
  3.152   3.208   3.316   3.346   3.427   3.429   3.521   4.003
  4.199   4.384   4.561
 --------------------------------------------------------------
 
          Ground-State Mulliken Net Atomic Charges

     Atom                 Charge (a.u.)    Spin (a.u.)
  --------------------------------------------------------
      1 S                    -0.393619       0.000000
      2 C                    -0.222265       0.000000
      3 C                    -0.126965      -0.000000
      4 C                    -0.329020      -0.000000
      5 H                     0.154719      -0.000000
      6 H                     0.146942      -0.000000
      7 H                     0.171364       0.000000
      8 H                     0.167893       0.000000
      9 H                     0.128305      -0.000000
     10 H                     0.135906      -0.000000
     11 H                     0.127023      -0.000000
     12 H                     0.039718      -0.000000
  --------------------------------------------------------
  Sum of atomic charges =     0.000000
  Sum of spin   charges =     0.000000

 -----------------------------------------------------------------
                    Cartesian Multipole Moments
 -----------------------------------------------------------------
    Charge (ESU x 10^10)
                -0.0000
    Dipole Moment (Debye)
         X      -6.9184      Y      -1.5090      Z      -0.6333
       Tot       7.1094
    Quadrupole Moments (Debye-Ang)
        XX     -54.3980     XY      -3.0967     YY     -34.5343
        XZ      -2.0126     YZ      -1.5717     ZZ     -31.8403
    Octopole Moments (Debye-Ang^2)
       XXX    -175.8598    XXY     -12.5223    XYY     -35.6661
       YYY     -23.1417    XXZ      -3.4597    XYZ      -5.5900
       YYZ      -0.0842    XZZ     -25.6422    YZZ      -6.4816
       ZZZ       4.2759
    Hexadecapole Moments (Debye-Ang^3)
      XXXX   -1783.1127   XXXY    -132.6249   XXYY    -286.0945
      XYYY    -120.5778   YYYY    -141.7513   XXXZ      14.2264
      XXYZ     -17.0145   XYYZ       2.8118   YYYZ       3.1939
      XXZZ    -241.6714   XYZZ     -31.2725   YYZZ     -29.7574
      XZZZ      24.2232   YZZZ       3.3508   ZZZZ     -63.6480
 -----------------------------------------------------------------
 Calculating analytic gradient of the SCF energy
 Gradient of SCF Energy
            1           2           3           4           5           6
    1   0.0157360   0.0005856  -0.0170261   0.0003562  -0.0000455   0.0015075
    2   0.0067721  -0.0023230  -0.0070308  -0.0002481   0.0000248  -0.0001780
    3  -0.0011163   0.0008128  -0.0014547   0.0005282  -0.0001526  -0.0005771
            7           8           9          10          11          12
    1  -0.0002279  -0.0004018  -0.0001343  -0.0000372  -0.0000389  -0.0002736
    2   0.0013906   0.0020941  -0.0000285  -0.0000086  -0.0000115  -0.0004529
    3  -0.0031004   0.0042095   0.0000219   0.0000003  -0.0000226   0.0008511
 Max gradient component =       1.703E-02
 RMS gradient           =       4.348E-03
 Gradient time:  CPU 7.86 s  wall 0.67 s
 Geometry Optimization Parameters
   NAtoms,    NIC,     NZ,  NCons,   NDum,   NFix, NCnnct, MaxDiis
       12     151       0       1       0       0       0       0

 Cartesian Hessian Update
 Hessian Updated using BFGS Update


** CONSTRAINED OPTIMIZATION IN DELOCALIZED INTERNAL COORDINATES **
   Searching for a Minimum

   Optimization Cycle:   3

                       Coordinates (Angstroms)
     ATOM                X               Y               Z
      1  S         3.6183177792    0.6854998051   -0.0959381696
      2  C        -0.8860144604    0.3521658367    0.0053602090
      3  C         0.0135970991   -0.8006069989   -0.0094842945
      4  C        -2.3758037580   -0.1224449950    0.0701166541
      5  H        -0.6895435056    0.9844892994    0.8767853236
      6  H        -0.7431733469    0.9510810383   -0.9009729666
      7  H         0.3422936596   -1.2739085011    0.9044208662
      8  H         0.2872693314   -1.2917734897   -0.9299943272
      9  H        -2.5649604068   -0.7053189742    0.9749990990
     10  H        -3.0237433255    0.7589543876    0.0824788455
     11  H        -2.6355741477   -0.7324455393   -0.7986629330
     12  H         3.3699360816    1.0981121311   -1.3561033063
   Point Group: c1    Number of degrees of freedom:    30


   Energy is   -517.206819883

              Constraints and their Current Values
                                        Value     Constraint
   Distance(Angs):        1   3             3.900000     3.900000
 Hessian Updated using BFGS Update

 29 Hessian modes will be used to form the next step
  Hessian Eigenvalues:
     0.024650    0.044281    0.045000    0.046558    0.049119    0.056160
     0.061367    0.063583    0.068985    0.072050    0.074019    0.082668
     0.084864    0.089605    0.110995    0.158063    0.159956    0.160001
     0.160627    0.231558    0.264273    0.279874    0.308294    0.325918
     0.342790    0.343479    0.344653    0.344785    0.355224

 Minimum Search - Taking Simple RFO Step
 Searching for Lamda that Minimizes Along All modes
 Value Taken    Lamda =  -0.00016793
 Step Taken.  Stepsize is  0.043889

                             Maximum     Tolerance    Cnvgd?
         Gradient           0.003103      0.000300      NO
         Displacement       0.017233      0.001200      NO
         Energy change     -0.000036      0.000001      NO


 New Cartesian Coordinates Obtained by Inverse Iteration

 Displacement from previous Coordinates is:  0.033926
 ----------------------------------------------------------------
             Standard Nuclear Orientation (Angstroms)
    I     Atom           X                Y                Z
 ----------------------------------------------------------------
    1      S       3.6210166726     0.6848999525    -0.0971924348
    2      C      -0.8872470628     0.3539486857     0.0061195270
    3      C       0.0167603563    -0.8021152887    -0.0070760282
    4      C      -2.3768040769    -0.1216599622     0.0687116024
    5      H      -0.6904355589     0.9852931725     0.8783247196
    6      H      -0.7530182403     0.9550978560    -0.8986710317
    7      H       0.3445520222    -1.2762750615     0.9121611017
    8      H       0.2894945452    -1.2969852748    -0.9337079936
    9      H      -2.5657565483    -0.7062422032     0.9724925257
   10      H      -3.0249990101     0.7594403524     0.0822401442
   11      H      -2.6350327071    -0.7304692565    -0.8012657072
   12      H       3.3740706081     1.0988710278    -1.3591314252
 ----------------------------------------------------------------
 Nuclear Repulsion Energy =   129.5672837840 hartrees
 There are       21 alpha and       21 beta electrons

                       Distance Matrix (Angstroms)
             S (  1)   C (  2)   C (  3)   C (  4)   H (  5)   H (  6)
   C (  2)  4.521575
   C (  3)  3.900000  1.467613
   C (  4)  6.054083  1.564897  2.489561
   H (  5)  4.430631  1.094565  2.116339  2.173628
   H (  6)  4.455060  1.094552  2.115490  2.175297  1.778354
   H (  7)  3.949712  2.235144  1.085022  3.074138  2.487375  3.076166
   H (  8)  3.965686  2.234632  1.085323  3.081458  3.074495  2.481922
   H (  9)  6.430837  2.208003  2.763718  1.092822  2.527249  3.089874
   H ( 10)  6.648855  2.177200  3.420341  1.093928  2.476882  2.482411
   H ( 11)  6.452685  2.209658  2.769093  1.092791  3.089712  2.528360
   H ( 12)  1.350868  4.536259  4.088195  6.049875  4.641047  4.155184
             H (  7)   H (  8)   H (  9)   H ( 10)   H ( 11)
   H (  8)  1.846806
   H (  9)  2.966222  3.483538
   H ( 10)  4.023280  4.030745  1.775297
   H ( 11)  3.480181  2.981835  1.775276  1.775524
   H ( 12)  4.469684  3.928832  6.631474  6.568170  6.306110
 
 Applying Cartesian multipole field
    Component          Value
    ---------          -----
     (2,0,0)        1.00000E-11
     (0,2,0)        2.00000E-10
     (0,0,2)       -3.00000E-10
 Nucleus-field energy     =     0.0000000172 hartrees
 Requested basis set is 6-31G(d,p)
 There are 41 shells and 104 basis functions
 A cutoff of  1.0D-14 yielded    775 shell pairs
 There are      4992 function pairs
 Smallest overlap matrix eigenvalue = 6.17E-03
 Guess from superposition of atomic densities
 Warning:  Energy on first SCF cycle will be non-variational
 SAD guess density has 42.000000 electrons

 -----------------------------------------------------------------------
  General SCF calculation program by
  Eric Jon Sundstrom, Paul Horn, Yuezhi Mao, Dmitri Zuev, Alec White,
  David Stuck, Shaama M.S., Shane Yost, Joonho Lee, David Small,
  Daniel Levine, Susi Lehtola, Hugh Burton, Evgeny Epifanovsky
 -----------------------------------------------------------------------
 Exchange:     0.2000 Hartree-Fock + 0.0800 Slater + 0.7200 B88
 Correlation:  0.1900 VWN1RPA + 0.8100 LYP
 Using SG-1 standard quadrature grid
 using 12 threads for integral computing
 -------------------------------------------------------
 OpenMP Integral computing Module                
 Release: version 1.0, May 2013, Q-Chem Inc. Pittsburgh 
 -------------------------------------------------------
 -------------------------------------------------------
 OpenMP BLAS3 based DFT computing Module                
 Release: version 1.0, May 2013, Q-Chem Inc. Pittsburgh 
 -------------------------------------------------------
 A unrestricted SCF calculation will be
 performed using DIIS
 SCF converges when DIIS error is below 1.0e-06
 Alpha HF Exchange    Energy =  -4.31936610974579
 Beta HF Exchange     Energy =  -4.31936610974579
 DFT Correlation      Energy =  -1.85468505432913
 DFT Exchange         Energy = -33.94546644634489
 One-Electron (alpha) Energy = -480.87244961802838
 One-Electron (beta)  Energy = -480.87244961802838
 Total Coulomb        Energy = 359.18179670322274
 ---------------------------------------
  Cycle       Energy         DIIS error
 ---------------------------------------
    1    -517.4347024519      2.82e-02  
 Alpha HF Exchange    Energy =  -4.35951388521897
 Beta HF Exchange     Energy =  -4.35951388521897
 DFT Correlation      Energy =  -1.88250523874411
 DFT Exchange         Energy = -34.57117977616699
 One-Electron (alpha) Energy = -484.74482441295936
 One-Electron (beta)  Energy = -484.74482441295953
 Total Coulomb        Energy = 368.06012143015045
    2    -517.0349563800      3.89e-03  
 Alpha HF Exchange    Energy =  -4.30701921324209
 Beta HF Exchange     Energy =  -4.30701921324208
 DFT Correlation      Energy =  -1.86674993998077
 DFT Exchange         Energy = -34.18281764633723
 One-Electron (alpha) Energy = -479.78314033382611
 One-Electron (beta)  Energy = -479.78314033382594
 Total Coulomb        Energy = 358.90192252287090
    3    -515.7606803565      1.20e-02  
 Alpha HF Exchange    Energy =  -4.30365471235053
 Beta HF Exchange     Energy =  -4.30365471235053
 DFT Correlation      Energy =  -1.86551690016267
 DFT Exchange         Energy = -34.17376440301918
 One-Electron (alpha) Energy = -481.05960539762691
 One-Electron (beta)  Energy = -481.05960539762668
 Total Coulomb        Energy = 360.22262087867375
    4    -516.9758968433      4.67e-03  
 Alpha HF Exchange    Energy =  -4.31736672606996
 Beta HF Exchange     Energy =  -4.31736672606995
 DFT Correlation      Energy =  -1.86599856176157
 DFT Exchange         Energy = -34.24755783278207
 One-Electron (alpha) Energy = -482.38177197512141
 One-Electron (beta)  Energy = -482.38177197512113
 Total Coulomb        Energy = 362.80975006513756
    5    -517.1347999307      2.50e-03  
 Alpha HF Exchange    Energy =  -4.31755396562948
 Beta HF Exchange     Energy =  -4.31755396562947
 DFT Correlation      Energy =  -1.87299539071341
 DFT Exchange         Energy = -34.31020922052267
 One-Electron (alpha) Energy = -482.40077479514861
 One-Electron (beta)  Energy = -482.40077479514866
 Total Coulomb        Energy = 362.93532673376797
    6    -517.1172515979      3.05e-03  
 Alpha HF Exchange    Energy =  -4.31626865185761
 Beta HF Exchange     Energy =  -4.31626865185760
 DFT Correlation      Energy =  -1.87172938645714
 DFT Exchange         Energy = -34.30107999932770
 One-Electron (alpha) Energy = -482.53067365894651
 One-Electron (beta)  Energy = -482.53067365894651
 Total Coulomb        Energy = 363.10975539880098
    7    -517.1896548075      1.36e-03  
 Alpha HF Exchange    Energy =  -4.31569311264209
 Beta HF Exchange     Energy =  -4.31569311264209
 DFT Correlation      Energy =  -1.87130139635670
 DFT Exchange         Energy = -34.29457482261400
 One-Electron (alpha) Energy = -482.50654407675893
 One-Electron (beta)  Energy = -482.50654407675916
 Total Coulomb        Energy = 363.04722200142174
    8    -517.1958447952      1.06e-03  
 Alpha HF Exchange    Energy =  -4.31652893574910
 Beta HF Exchange     Energy =  -4.31652893574911
 DFT Correlation      Energy =  -1.87115063112846
 DFT Exchange         Energy = -34.29752589489815
 One-Electron (alpha) Energy = -482.58646082591127
 One-Electron (beta)  Energy = -482.58646082591179
 Total Coulomb        Energy = 363.20319211778360
    9    -517.2041801304      5.32e-04  
 Alpha HF Exchange    Energy =  -4.31695928021265
 Beta HF Exchange     Energy =  -4.31695928021269
 DFT Correlation      Energy =  -1.87089250282441
 DFT Exchange         Energy = -34.29702668911155
 One-Electron (alpha) Energy = -482.61105873644317
 One-Electron (beta)  Energy = -482.61105873644561
 Total Coulomb        Energy = 363.24998286356731
   10    -517.2066885606      1.48e-04  
 Alpha HF Exchange    Energy =  -4.31725243045479
 Beta HF Exchange     Energy =  -4.31725243045489
 DFT Correlation      Energy =  -1.87084871510325
 DFT Exchange         Energy = -34.29777882722111
 One-Electron (alpha) Energy = -482.62998772373294
 One-Electron (beta)  Energy = -482.62998772373777
 Total Coulomb        Energy = 363.28891625892015
   11    -517.2069077907      1.04e-05  
 Alpha HF Exchange    Energy =  -4.31726632972041
 Beta HF Exchange     Energy =  -4.31726632972062
 DFT Correlation      Energy =  -1.87084238832922
 DFT Exchange         Energy = -34.29776756947950
 One-Electron (alpha) Energy = -482.63069735703704
 One-Electron (beta)  Energy = -482.63069735704750
 Total Coulomb        Energy = 363.29034450518793
   12    -517.2069090250      1.38e-06  
 Alpha HF Exchange    Energy =  -4.31726900321331
 Beta HF Exchange     Energy =  -4.31726900321381
 DFT Correlation      Energy =  -1.87084198750688
 DFT Exchange         Energy = -34.29777371698235
 One-Electron (alpha) Energy = -482.63088128589624
 One-Electron (beta)  Energy = -482.63088128592096
 Total Coulomb        Energy = 363.29072332691908
   13    -517.2069091547      1.54e-06  
 Alpha HF Exchange    Energy =  -4.31726735314106
 Beta HF Exchange     Energy =  -4.31726735314235
 DFT Correlation      Energy =  -1.87084213231531
 DFT Exchange         Energy = -34.29776843543557
 One-Electron (alpha) Energy = -482.63071783401602
 One-Electron (beta)  Energy = -482.63071783408122
 Total Coulomb        Energy = 363.29038788635296
   14    -517.2069092546      6.59e-07  Convergence criterion met
 ---------------------------------------
 SCF time:   CPU 31.70s  wall 2.00s 
<S^2> =          0.000000000
 Alpha HF Exchange    Energy =  -4.31726735314106
 Beta HF Exchange     Energy =  -4.31726735314235
 DFT Correlation      Energy =  -1.87084213231531
 DFT Exchange         Energy = -34.29776843543557
 One-Electron (alpha) Energy = -482.63071783401602
 One-Electron (beta)  Energy = -482.63071783408122
 Total Coulomb        Energy = 363.29038788635296
 Nuclear repulsion Energy = 129.56728380113222
 SCF   energy in the final basis set =     -517.2069092546
 Total energy in the final basis set =     -517.2069092546
 
 --------------------------------------------------------------
 
                    Orbital Energies (a.u.)
 --------------------------------------------------------------
 
 Alpha MOs
 -- Occupied --
-88.834 -10.278 -10.234 -10.222  -7.893  -5.857  -5.856  -5.848
 -0.832  -0.717  -0.647  -0.625  -0.516  -0.477  -0.441  -0.417
 -0.398  -0.379  -0.340  -0.208  -0.199
 -- Virtual --
 -0.155   0.069   0.092   0.104   0.107   0.124   0.144   0.147
  0.183   0.189   0.233   0.322   0.378   0.391   0.411   0.469
  0.490   0.492   0.520   0.557   0.614   0.627   0.666   0.751
  0.761   0.778   0.791   0.803   0.807   0.839   0.841   0.842
  0.849   0.870   0.901   0.926   0.973   1.156   1.178   1.255
  1.394   1.438   1.466   1.570   1.629   1.765   1.831   1.896
  1.956   1.968   2.011   2.026   2.078   2.080   2.124   2.126
  2.177   2.220   2.250   2.332   2.391   2.415   2.485   2.525
  2.624   2.674   2.686   2.753   2.765   2.837   2.840   2.877
  3.152   3.203   3.311   3.345   3.419   3.427   3.518   4.002
  4.197   4.383   4.560
 
 Beta MOs
 -- Occupied --
-88.834 -10.278 -10.234 -10.222  -7.893  -5.857  -5.856  -5.848
 -0.832  -0.717  -0.647  -0.625  -0.516  -0.477  -0.441  -0.417
 -0.398  -0.379  -0.340  -0.208  -0.199
 -- Virtual --
 -0.155   0.069   0.092   0.104   0.107   0.124   0.144   0.147
  0.183   0.189   0.233   0.322   0.378   0.391   0.411   0.469
  0.490   0.492   0.520   0.557   0.614   0.627   0.666   0.751
  0.761   0.778   0.791   0.803   0.807   0.839   0.841   0.842
  0.849   0.870   0.901   0.926   0.973   1.156   1.178   1.255
  1.394   1.438   1.466   1.570   1.629   1.765   1.831   1.896
  1.956   1.968   2.011   2.026   2.078   2.080   2.124   2.126
  2.177   2.220   2.250   2.332   2.391   2.415   2.485   2.525
  2.624   2.674   2.686   2.753   2.765   2.837   2.840   2.877
  3.152   3.203   3.311   3.345   3.419   3.427   3.518   4.002
  4.197   4.383   4.560
 --------------------------------------------------------------
 
          Ground-State Mulliken Net Atomic Charges

     Atom                 Charge (a.u.)    Spin (a.u.)
  --------------------------------------------------------
      1 S                    -0.392755      -0.000000
      2 C                    -0.221632      -0.000000
      3 C                    -0.127850       0.000000
      4 C                    -0.328971       0.000000
      5 H                     0.154420       0.000000
      6 H                     0.147061       0.000000
      7 H                     0.171550      -0.000000
      8 H                     0.167801      -0.000000
      9 H                     0.127990       0.000000
     10 H                     0.135689       0.000000
     11 H                     0.126902       0.000000
     12 H                     0.039793       0.000000
  --------------------------------------------------------
  Sum of atomic charges =     0.000000
  Sum of spin   charges =     0.000000

 -----------------------------------------------------------------
                    Cartesian Multipole Moments
 -----------------------------------------------------------------
    Charge (ESU x 10^10)
                 0.0000
    Dipole Moment (Debye)
         X      -6.9008      Y      -1.5062      Z      -0.6290
       Tot       7.0912
    Quadrupole Moments (Debye-Ang)
        XX     -54.3942     XY      -3.1043     YY     -34.5308
        XZ      -1.9905     YZ      -1.5778     ZZ     -31.8343
    Octopole Moments (Debye-Ang^2)
       XXX    -175.7976    XXY     -12.4241    XYY     -35.6937
       YYY     -23.0954    XXZ      -3.4751    XYZ      -5.5912
       YYZ      -0.0749    XZZ     -25.6517    YZZ      -6.4899
       ZZZ       4.3059
    Hexadecapole Moments (Debye-Ang^3)
      XXXX   -1785.1278   XXXY    -132.3394   XXYY    -286.4628
      XYYY    -120.4442   YYYY    -141.9859   XXXZ      14.4370
      XXYZ     -17.0519   XYYZ       2.8833   YYYZ       3.2496
      XXZZ    -241.9845   XYZZ     -31.2256   YYZZ     -29.7618
      XZZZ      24.3916   YZZZ       3.3991   ZZZZ     -63.7798
 -----------------------------------------------------------------
 Calculating analytic gradient of the SCF energy
 Gradient of SCF Energy
            1           2           3           4           5           6
    1   0.0159000  -0.0003221  -0.0167491  -0.0000278   0.0000419   0.0002835
    2   0.0064878   0.0001214  -0.0064751   0.0000694   0.0000433  -0.0001417
    3  -0.0002733   0.0000301   0.0004767  -0.0000383  -0.0000423   0.0000004
            7           8           9          10          11          12
    1   0.0006430   0.0005887   0.0000662   0.0000061  -0.0000076  -0.0004230
    2  -0.0000300   0.0001069   0.0000085  -0.0000197  -0.0000108  -0.0001601
    3  -0.0001648  -0.0000226   0.0000200   0.0000123   0.0000227  -0.0000209
 Max gradient component =       1.675E-02
 RMS gradient           =       4.146E-03
 Gradient time:  CPU 8.12 s  wall 0.73 s
 Geometry Optimization Parameters
   NAtoms,    NIC,     NZ,  NCons,   NDum,   NFix, NCnnct, MaxDiis
       12     151       0       1       0       0       0       0

 Cartesian Hessian Update
 Hessian Updated using BFGS Update


** CONSTRAINED OPTIMIZATION IN DELOCALIZED INTERNAL COORDINATES **
   Searching for a Minimum

   Optimization Cycle:   4

                       Coordinates (Angstroms)
     ATOM                X               Y               Z
      1  S         3.6210166726    0.6848999525   -0.0971924348
      2  C        -0.8872470628    0.3539486857    0.0061195270
      3  C         0.0167603563   -0.8021152887   -0.0070760282
      4  C        -2.3768040769   -0.1216599622    0.0687116024
      5  H        -0.6904355589    0.9852931725    0.8783247196
      6  H        -0.7530182403    0.9550978560   -0.8986710317
      7  H         0.3445520222   -1.2762750615    0.9121611017
      8  H         0.2894945452   -1.2969852748   -0.9337079936
      9  H        -2.5657565483   -0.7062422032    0.9724925257
     10  H        -3.0249990101    0.7594403524    0.0822401442
     11  H        -2.6350327071   -0.7304692565   -0.8012657072
     12  H         3.3740706081    1.0988710278   -1.3591314252
   Point Group: c1    Number of degrees of freedom:    30


   Energy is   -517.206909255

              Constraints and their Current Values
                                        Value     Constraint
   Distance(Angs):        1   3             3.900000     3.900000
 Hessian Updated using BFGS Update

 29 Hessian modes will be used to form the next step
  Hessian Eigenvalues:
     0.022157    0.043264    0.044999    0.046465    0.049209    0.055351
     0.061097    0.062465    0.068600    0.071672    0.073913    0.082673
     0.084874    0.089523    0.110739    0.158071    0.159975    0.160005
     0.160588    0.231754    0.264343    0.283933    0.308926    0.326544
     0.343077    0.343523    0.344735    0.344788    0.388371

 Minimum Search - Taking Simple RFO Step
 Searching for Lamda that Minimizes Along All modes
 Value Taken    Lamda =  -0.00000756
 Step Taken.  Stepsize is  0.015665

                             Maximum     Tolerance    Cnvgd?
         Gradient           0.000264      0.000300     YES
         Displacement       0.007122      0.001200      NO
         Energy change     -0.000089      0.000001      NO


 New Cartesian Coordinates Obtained by Inverse Iteration

 Displacement from previous Coordinates is:  0.010277
 ----------------------------------------------------------------
             Standard Nuclear Orientation (Angstroms)
    I     Atom           X                Y                Z
 ----------------------------------------------------------------
    1      S       3.6218748956     0.6841651030    -0.0977388285
    2      C      -0.8872270693     0.3547773081     0.0061960438
    3      C       0.0170508141    -0.8014292978    -0.0069010328
    4      C      -2.3764770309    -0.1222243505     0.0686777493
    5      H      -0.6906633133     0.9857587360     0.8787318034
    6      H      -0.7551054132     0.9567714562    -0.8983297636
    7      H       0.3428908573    -1.2754864446     0.9133250327
    8      H       0.2883823688    -1.2972641661    -0.9338396152
    9      H      -2.5654505531    -0.7075522120     0.9719842975
   10      H      -3.0254123591     0.7583429165     0.0825387038
   11      H      -2.6339664172    -0.7307265701    -0.8017473881
   12      H       3.3767042204     1.0986715212    -1.3598920024
 ----------------------------------------------------------------
 Nuclear Repulsion Energy =   129.5560847307 hartrees
 There are       21 alpha and       21 beta electrons

                       Distance Matrix (Angstroms)
             S (  1)   C (  2)   C (  3)   C (  4)   H (  5)   H (  6)
   C (  2)  4.522311
   C (  3)  3.900000  1.467891
   C (  4)  6.054600  1.565024  2.489178
   H (  5)  4.431979  1.094575  2.116423  2.173886
   H (  6)  4.457939  1.094541  2.117107  2.174438  1.778466
   H (  7)  3.951483  2.234689  1.085227  3.072199  2.486496  3.077444
   H (  8)  3.967026  2.234942  1.085674  3.080136  3.075084  2.484110
   H (  9)  6.431499  2.208557  2.763393  1.092832  2.528008  3.089563
   H ( 10)  6.650145  2.177276  3.420157  1.093941  2.477235  2.481083
   H ( 11)  6.452371  2.209568  2.768514  1.092802  3.089783  2.527271
   H ( 12)  1.350909  4.538798  4.090017  6.052313  4.644100  4.159931
             H (  7)   H (  8)   H (  9)   H ( 10)   H ( 11)
   H (  8)  1.848097
   H (  9)  2.963856  3.481995
   H ( 10)  4.021459  4.029861  1.775254
   H ( 11)  3.478493  2.979687  1.775206  1.775534
   H ( 12)  4.473049  3.931890  6.633950  6.571417  6.307645
 
 Applying Cartesian multipole field
    Component          Value
    ---------          -----
     (2,0,0)        1.00000E-11
     (0,2,0)        2.00000E-10
     (0,0,2)       -3.00000E-10
 Nucleus-field energy     =     0.0000000172 hartrees
 Requested basis set is 6-31G(d,p)
 There are 41 shells and 104 basis functions
 A cutoff of  1.0D-14 yielded    775 shell pairs
 There are      4992 function pairs
 Smallest overlap matrix eigenvalue = 6.17E-03
 Guess from superposition of atomic densities
 Warning:  Energy on first SCF cycle will be non-variational
 SAD guess density has 42.000000 electrons

 -----------------------------------------------------------------------
  General SCF calculation program by
  Eric Jon Sundstrom, Paul Horn, Yuezhi Mao, Dmitri Zuev, Alec White,
  David Stuck, Shaama M.S., Shane Yost, Joonho Lee, David Small,
  Daniel Levine, Susi Lehtola, Hugh Burton, Evgeny Epifanovsky
 -----------------------------------------------------------------------
 Exchange:     0.2000 Hartree-Fock + 0.0800 Slater + 0.7200 B88
[...]
   10      H      -3.0247927360     0.7589949427     0.0855456661
   11      H      -2.6375427961    -0.7324456750    -0.7962119265
   12      H       3.4274784227     1.1250336538    -1.3639331487
 ----------------------------------------------------------------
 Nuclear Repulsion Energy =   129.5738007565 hartrees
 There are       21 alpha and       21 beta electrons

                       Distance Matrix (Angstroms)
             S (  1)   C (  2)   C (  3)   C (  4)   H (  5)   H (  6)
   C (  2)  4.513865
   C (  3)  3.900000  1.467508
   C (  4)  6.047131  1.565422  2.486403
   H (  5)  4.418914  1.094481  2.116802  2.174219
   H (  6)  4.452840  1.094497  2.118780  2.173978  1.778458
   H (  7)  3.963911  2.231624  1.084975  3.060514  2.485889  3.078798
   H (  8)  3.985969  2.233719  1.085177  3.070358  3.076519  2.487969
   H (  9)  6.423784  2.209631  2.760687  1.092839  2.529217  3.089751
   H ( 10)  6.640882  2.177438  3.418001  1.094008  2.477519  2.479990
   H ( 11)  6.448111  2.209773  2.765458  1.092840  3.089944  2.526468
   H ( 12)  1.350871  4.591399  4.150941  6.108085  4.685810  4.214859
             H (  7)   H (  8)   H (  9)   H ( 10)   H ( 11)
   H (  8)  1.848399
   H (  9)  2.949311  3.470749
   H ( 10)  4.011357  4.022113  1.775300
   H ( 11)  3.466531  2.966836  1.775237  1.775346
   H ( 12)  4.538634  4.013129  6.688392  6.623200  6.368439
 
 Applying Cartesian multipole field
    Component          Value
    ---------          -----
     (2,0,0)        1.00000E-11
     (0,2,0)        2.00000E-10
     (0,0,2)       -3.00000E-10
 Nucleus-field energy     =     0.0000000173 hartrees
 Requested basis set is 6-31G(d,p)
 There are 41 shells and 104 basis functions
 A cutoff of  1.0D-14 yielded    775 shell pairs
 There are      4992 function pairs
 Smallest overlap matrix eigenvalue = 6.17E-03
 Guess from superposition of atomic densities
 Warning:  Energy on first SCF cycle will be non-variational
 SAD guess density has 42.000000 electrons

 -----------------------------------------------------------------------
  General SCF calculation program by
  Eric Jon Sundstrom, Paul Horn, Yuezhi Mao, Dmitri Zuev, Alec White,
  David Stuck, Shaama M.S., Shane Yost, Joonho Lee, David Small,
  Daniel Levine, Susi Lehtola, Hugh Burton, Evgeny Epifanovsky
 -----------------------------------------------------------------------
 Exchange:     0.2000 Hartree-Fock + 0.0800 Slater + 0.7200 B88
 Correlation:  0.1900 VWN1RPA + 0.8100 LYP
 Using SG-1 standard quadrature grid
 using 12 threads for integral computing
 -------------------------------------------------------
 OpenMP Integral computing Module                
 Release: version 1.0, May 2013, Q-Chem Inc. Pittsburgh 
 -------------------------------------------------------
 -------------------------------------------------------
 OpenMP BLAS3 based DFT computing Module                
 Release: version 1.0, May 2013, Q-Chem Inc. Pittsburgh 
 -------------------------------------------------------
 A unrestricted SCF calculation will be
 performed using DIIS
 SCF converges when DIIS error is below 1.0e-06
 Alpha HF Exchange    Energy =  -4.31937392354039
 Beta HF Exchange     Energy =  -4.31937392354039
 DFT Correlation      Energy =  -1.85469032432515
 DFT Exchange         Energy = -33.94546745642234
 One-Electron (alpha) Energy = -480.87899346376804
 One-Electron (beta)  Energy = -480.87899346376804
 Total Coulomb        Energy = 359.18844253173091
 ---------------------------------------
  Cycle       Energy         DIIS error
 ---------------------------------------
    1    -517.4346492498      2.82e-02  
 Alpha HF Exchange    Energy =  -4.35947169702938
 Beta HF Exchange     Energy =  -4.35947169702938
 DFT Correlation      Energy =  -1.88250593926176
 DFT Exchange         Energy = -34.57095331399787
 One-Electron (alpha) Energy = -484.75609257963930
 One-Electron (beta)  Energy = -484.75609257963930
 Total Coulomb        Energy = 368.07527829455330
    2    -517.0355087382      3.88e-03  
 Alpha HF Exchange    Energy =  -4.30727694644978
 Beta HF Exchange     Energy =  -4.30727694644978
 DFT Correlation      Energy =  -1.86681128334294
 DFT Exchange         Energy = -34.18384790664038
 One-Electron (alpha) Energy = -479.81356661655940
 One-Electron (beta)  Energy = -479.81356661655940
 Total Coulomb        Energy = 358.93922085899521
    3    -515.7793246832      1.19e-02  
 Alpha HF Exchange    Energy =  -4.30315879256591
 Beta HF Exchange     Energy =  -4.30315879256590
 DFT Correlation      Energy =  -1.86540030602715
 DFT Exchange         Energy = -34.17186209953756
 One-Electron (alpha) Energy = -481.07844102700108
 One-Electron (beta)  Energy = -481.07844102700091
 Total Coulomb        Energy = 360.23794052559344
    4    -516.9887207453      4.57e-03  
 Alpha HF Exchange    Energy =  -4.31737466035839
 Beta HF Exchange     Energy =  -4.31737466035840
 DFT Correlation      Energy =  -1.86614464603209
 DFT Exchange         Energy = -34.24904134662067
 One-Electron (alpha) Energy = -482.40192491960511
 One-Electron (beta)  Energy = -482.40192491960545
 Total Coulomb        Energy = 362.84167258346088
    5    -517.1383117953      2.44e-03  
 Alpha HF Exchange    Energy =  -4.31755269197409
 Beta HF Exchange     Energy =  -4.31755269197409
 DFT Correlation      Energy =  -1.87298988441850
 DFT Exchange         Energy = -34.31028443354315
 One-Electron (alpha) Energy = -482.41496840160210
 One-Electron (beta)  Energy = -482.41496840160187
 Total Coulomb        Energy = 362.95567263635053
    6    -517.1188430950      3.02e-03  
 Alpha HF Exchange    Energy =  -4.31628885714532
 Beta HF Exchange     Energy =  -4.31628885714532
 DFT Correlation      Energy =  -1.87164977148502
 DFT Exchange         Energy = -34.30059026122256
 One-Electron (alpha) Energy = -482.54840018004541
 One-Electron (beta)  Energy = -482.54840018004558
 Total Coulomb        Energy = 363.13534119176154
    7    -517.1924761415      1.25e-03  
 Alpha HF Exchange    Energy =  -4.31583702335602
 Beta HF Exchange     Energy =  -4.31583702335601
 DFT Correlation      Energy =  -1.87122903142030
 DFT Exchange         Energy = -34.29471607504857
 One-Electron (alpha) Energy = -482.53245211296979
 One-Electron (beta)  Energy = -482.53245211296917
 Total Coulomb        Energy = 363.08996750602751
    8    -517.1987550993      9.11e-04  
 Alpha HF Exchange    Energy =  -4.31663367936318
 Beta HF Exchange     Energy =  -4.31663367936318
 DFT Correlation      Energy =  -1.87109890513052
 DFT Exchange         Energy = -34.29748535626649
 One-Electron (alpha) Energy = -482.60330533919210
 One-Electron (beta)  Energy = -482.60330533919159
 Total Coulomb        Energy = 363.22963461586971
    9    -517.2050269088      4.46e-04  
 Alpha HF Exchange    Energy =  -4.31699660235435
 Beta HF Exchange     Energy =  -4.31699660235433
 DFT Correlation      Energy =  -1.87088221870653
 DFT Exchange         Energy = -34.29702497672319
 One-Electron (alpha) Energy = -482.62292254581757
 One-Electron (beta)  Energy = -482.62292254581610
 Total Coulomb        Energy = 363.26715614647964
   10    -517.2067885715      1.29e-04  
 Alpha HF Exchange    Energy =  -4.31725297521902
 Beta HF Exchange     Energy =  -4.31725297521896
 DFT Correlation      Energy =  -1.87084443862467
 DFT Exchange         Energy = -34.29769025624624
 One-Electron (alpha) Energy = -482.63929275031995
 One-Electron (beta)  Energy = -482.63929275031677
 Total Coulomb        Energy = 363.30086958139964
   11    -517.2069557907      1.01e-05  
 Alpha HF Exchange    Energy =  -4.31726525172000
 Beta HF Exchange     Energy =  -4.31726525171986
 DFT Correlation      Energy =  -1.87083902653779
 DFT Exchange         Energy = -34.29768192208834
 One-Electron (alpha) Energy = -482.63996762581746
 One-Electron (beta)  Energy = -482.63996762581030
 Total Coulomb        Energy = 363.30222917557569
   12    -517.2069567543      1.24e-06  
 Alpha HF Exchange    Energy =  -4.31726760043017
 Beta HF Exchange     Energy =  -4.31726760042991
 DFT Correlation      Energy =  -1.87083859333751
 DFT Exchange         Energy = -34.29768685326248
 One-Electron (alpha) Energy = -482.64013127080710
 One-Electron (beta)  Energy = -482.64013127079352
 Total Coulomb        Energy = 363.30256564728086
   13    -517.2069567680      2.66e-07  Convergence criterion met
 ---------------------------------------
 SCF time:   CPU 28.67s  wall 2.00s 
<S^2> =         -0.000000000
 Alpha HF Exchange    Energy =  -4.31726760043017
 Beta HF Exchange     Energy =  -4.31726760042991
 DFT Correlation      Energy =  -1.87083859333751
 DFT Exchange         Energy = -34.29768685326248
 One-Electron (alpha) Energy = -482.64013127080710
 One-Electron (beta)  Energy = -482.64013127079352
 Total Coulomb        Energy = 363.30256564728086
 Nuclear repulsion Energy = 129.57380077380722
 SCF   energy in the final basis set =     -517.2069567680
 Total energy in the final basis set =     -517.2069567680
 
 --------------------------------------------------------------
 
                    Orbital Energies (a.u.)
 --------------------------------------------------------------
 
 Alpha MOs
 -- Occupied --
-88.834 -10.278 -10.233 -10.222  -7.893  -5.857  -5.856  -5.848
 -0.832  -0.717  -0.647  -0.625  -0.516  -0.477  -0.441  -0.417
 -0.398  -0.379  -0.340  -0.207  -0.199
 -- Virtual --
 -0.155   0.069   0.092   0.104   0.107   0.124   0.144   0.147
  0.183   0.188   0.233   0.323   0.377   0.392   0.411   0.470
  0.490   0.492   0.521   0.557   0.614   0.627   0.666   0.750
  0.761   0.778   0.792   0.803   0.808   0.840   0.841   0.842
  0.849   0.871   0.901   0.926   0.974   1.156   1.180   1.254
  1.391   1.438   1.469   1.570   1.629   1.764   1.831   1.896
  1.956   1.970   2.011   2.026   2.077   2.080   2.124   2.126
  2.179   2.219   2.250   2.332   2.393   2.413   2.482   2.528
  2.625   2.675   2.687   2.754   2.765   2.834   2.839   2.876
  3.152   3.203   3.312   3.345   3.419   3.427   3.517   4.002
  4.198   4.384   4.560
 
 Beta MOs
 -- Occupied --
-88.834 -10.278 -10.233 -10.222  -7.893  -5.857  -5.856  -5.848
 -0.832  -0.717  -0.647  -0.625  -0.516  -0.477  -0.441  -0.417
 -0.398  -0.379  -0.340  -0.207  -0.199
 -- Virtual --
 -0.155   0.069   0.092   0.104   0.107   0.124   0.144   0.147
  0.183   0.188   0.233   0.323   0.377   0.392   0.411   0.470
  0.490   0.492   0.521   0.557   0.614   0.627   0.666   0.750
  0.761   0.778   0.792   0.803   0.808   0.840   0.841   0.842
  0.849   0.871   0.901   0.926   0.974   1.156   1.180   1.254
  1.391   1.438   1.469   1.570   1.629   1.764   1.831   1.896
  1.956   1.970   2.011   2.026   2.077   2.080   2.124   2.126
  2.179   2.219   2.250   2.332   2.393   2.413   2.482   2.528
  2.625   2.675   2.687   2.754   2.765   2.834   2.839   2.876
  3.152   3.203   3.312   3.345   3.419   3.427   3.517   4.002
  4.198   4.384   4.560
 --------------------------------------------------------------
 
          Ground-State Mulliken Net Atomic Charges

     Atom                 Charge (a.u.)    Spin (a.u.)
  --------------------------------------------------------
      1 S                    -0.393729       0.000000
      2 C                    -0.221466       0.000000
      3 C                    -0.125915      -0.000000
      4 C                    -0.329485      -0.000000
      5 H                     0.154392      -0.000000
      6 H                     0.147150      -0.000000
      7 H                     0.170698       0.000000
      8 H                     0.167336       0.000000
      9 H                     0.127875      -0.000000
     10 H                     0.135808      -0.000000
     11 H                     0.126831      -0.000000
     12 H                     0.040505      -0.000000
  --------------------------------------------------------
  Sum of atomic charges =    -0.000000
  Sum of spin   charges =     0.000000

 -----------------------------------------------------------------
                    Cartesian Multipole Moments
 -----------------------------------------------------------------
    Charge (ESU x 10^10)
                 0.0000
    Dipole Moment (Debye)
         X      -6.8787      Y      -1.5102      Z      -0.6285
       Tot       7.0705
    Quadrupole Moments (Debye-Ang)
        XX     -54.1014     XY      -2.9923     YY     -34.4594
        XZ      -2.0597     YZ      -1.6058     ZZ     -31.8197
    Octopole Moments (Debye-Ang^2)
       XXX    -173.8782    XXY     -11.9153    XYY     -35.3967
       YYY     -23.2002    XXZ      -4.0173    XYZ      -5.7549
       YYZ      -0.1321    XZZ     -25.4808    YZZ      -6.4991
       ZZZ       4.3594
    Hexadecapole Moments (Debye-Ang^3)
      XXXX   -1775.0081   XXXY    -130.8071   XXYY    -285.1211
      XYYY    -121.0103   YYYY    -142.9234   XXXZ      11.9206
      XXYZ     -17.7920   XYYZ       2.8083   YYYZ       3.3602
      XXZZ    -241.1117   XYZZ     -31.3027   YYZZ     -29.8410
      XZZZ      24.7575   YZZZ       3.4663   ZZZZ     -63.8416
 -----------------------------------------------------------------
 Calculating analytic gradient of the SCF energy
 Gradient of SCF Energy
            1           2           3           4           5           6
    1   0.0154691   0.0000290  -0.0155400   0.0000263   0.0000185  -0.0000531
    2   0.0064516   0.0000146  -0.0063854   0.0000162   0.0000165   0.0000080
    3  -0.0004114   0.0000243   0.0004656   0.0000020  -0.0000140  -0.0000158
            7           8           9          10          11          12
    1   0.0000007   0.0000763  -0.0000099  -0.0000074   0.0000034  -0.0000127
    2  -0.0000683  -0.0000316  -0.0000153  -0.0000124  -0.0000142   0.0000203
    3   0.0000187  -0.0000282  -0.0000003  -0.0000103   0.0000002  -0.0000308
 Max gradient component =       1.554E-02
 RMS gradient           =       3.957E-03
 Gradient time:  CPU 7.83 s  wall 0.67 s
 Geometry Optimization Parameters
   NAtoms,    NIC,     NZ,  NCons,   NDum,   NFix, NCnnct, MaxDiis
       12     151       0       1       0       0       0       0

 Cartesian Hessian Update
 Hessian Updated using BFGS Update


** CONSTRAINED OPTIMIZATION IN DELOCALIZED INTERNAL COORDINATES **
   Searching for a Minimum

   Optimization Cycle:  15

                       Coordinates (Angstroms)
     ATOM                X               Y               Z
      1  S         3.6131582829    0.6890447042   -0.0989074133
      2  C        -0.8870376292    0.3533602582    0.0036978749
      3  C         0.0123186107   -0.8062049862   -0.0084590467
      4  C        -2.3768412280   -0.1223870476    0.0722133037
      5  H        -0.6870802080    0.9863082704    0.8739173694
      6  H        -0.7585491542    0.9531003383   -0.9027937149
      7  H         0.3271179019   -1.2829305405    0.9139315005
      8  H         0.2687735774   -1.3126593970   -0.9333069117
      9  H        -2.5644020440   -0.7054105212    0.9773114472
     10  H        -3.0247927360    0.7589949427    0.0855456661
     11  H        -2.6375427961   -0.7324456750   -0.7962119265
     12  H         3.4274784227    1.1250336538   -1.3639331487
   Point Group: c1    Number of degrees of freedom:    30


   Energy is   -517.206956768

              Constraints and their Current Values
                                        Value     Constraint
   Distance(Angs):        1   3             3.900000     3.900000
 Hessian Updated using BFGS Update

 29 Hessian modes will be used to form the next step
  Hessian Eigenvalues:
     0.001227    0.007159    0.018060    0.038539    0.045012    0.046839
     0.050418    0.060997    0.063056    0.067951    0.072648    0.082657
     0.083917    0.088176    0.105521    0.155206    0.159471    0.159989
     0.160222    0.230392    0.262085    0.283881    0.308027    0.325893
     0.343088    0.343512    0.344738    0.344819    0.397738

 Minimum Search - Taking Simple RFO Step
 Searching for Lamda that Minimizes Along All modes
 Value Taken    Lamda =   0.00000000
 Step Taken.  Stepsize is  0.002843

                             Maximum     Tolerance    Cnvgd?
         Gradient           0.000066      0.000300     YES
         Displacement       0.001204      0.001200      NO
         Energy change     -0.000001      0.000001     YES


                       Distance Matrix (Angstroms)
             S (  1)   C (  2)   C (  3)   C (  4)   H (  5)   H (  6)
   C (  2)  4.513865
   C (  3)  3.900000  1.467508
   C (  4)  6.047131  1.565422  2.486403
   H (  5)  4.418914  1.094481  2.116802  2.174219
   H (  6)  4.452840  1.094497  2.118780  2.173978  1.778458
   H (  7)  3.963911  2.231624  1.084975  3.060514  2.485889  3.078798
   H (  8)  3.985969  2.233719  1.085177  3.070358  3.076519  2.487969
   H (  9)  6.423784  2.209631  2.760687  1.092839  2.529217  3.089751
   H ( 10)  6.640882  2.177438  3.418001  1.094008  2.477519  2.479990
   H ( 11)  6.448111  2.209773  2.765458  1.092840  3.089944  2.526468
   H ( 12)  1.350871  4.591399  4.150941  6.108085  4.685810  4.214859
             H (  7)   H (  8)   H (  9)   H ( 10)   H ( 11)
   H (  8)  1.848399
   H (  9)  2.949311  3.470749
   H ( 10)  4.011357  4.022113  1.775300
   H ( 11)  3.466531  2.966836  1.775237  1.775346
   H ( 12)  4.538634  4.013129  6.688392  6.623200  6.368439
 
 Final energy is   -517.206956767973     


 ******************************
 **  OPTIMIZATION CONVERGED  **
 ******************************

                       Coordinates (Angstroms)
     ATOM                X               Y               Z
      1  S         3.6131582829    0.6890447042   -0.0989074133
      2  C        -0.8870376292    0.3533602582    0.0036978749
      3  C         0.0123186107   -0.8062049862   -0.0084590467
      4  C        -2.3768412280   -0.1223870476    0.0722133037
      5  H        -0.6870802080    0.9863082704    0.8739173694
      6  H        -0.7585491542    0.9531003383   -0.9027937149
      7  H         0.3271179019   -1.2829305405    0.9139315005
      8  H         0.2687735774   -1.3126593970   -0.9333069117
      9  H        -2.5644020440   -0.7054105212    0.9773114472
     10  H        -3.0247927360    0.7589949427    0.0855456661
     11  H        -2.6375427961   -0.7324456750   -0.7962119265
     12  H         3.4274784227    1.1250336538   -1.3639331487

Z-matrix Print:
$molecule
0 1
S 
H  1 1.350871
C  1 3.900000 2 91.062894
H  3 1.084975 1 85.428045 2 169.292819 0
H  3 1.085177 1 86.615832 2 52.043041 0
C  3 1.467508 1 105.253068 2 -69.590790 0
H  6 1.094481 3 110.583875 1 -59.052827 0
H  6 1.094497 3 110.742526 1 61.474762 0
C  6 1.565422 3 110.088267 1 -178.750571 0
H  9 1.092839 6 111.205855 3 60.305025 0
H  9 1.092840 6 111.217108 3 -60.900624 0
H  9 1.094008 6 108.623809 3 179.696250 0
$end

PES scan, value:    3.9000 energy: -517.2069567680
------- Summary of potential scan: ------ 
    3.9000      -517.2069567680
----------------------------------------- 
Archival summary:
1\1\hpc0250\JobtypUnspecified\ProcedureUnspecified\6-31G**\138\knomura\WedMar1319:32:392019WedMar1319:32:392019\0\\#,JobtypUnspecified,ProcedureUnspecified,6-31G**,\\0,1\S\H,1,1.35087\C,1,3.9,2,91.0629\H,3,1.08497,1,85.428,2,169.293,0\H,3,1.08518,1,86.6158,2,52.043,0\C,3,1.46751,1,105.253,2,-69.5908,0\H,6,1.09448,3,110.584,1,-59.0528,0\H,6,1.0945,3,110.743,1,61.4748,0\C,6,1.56542,3,110.088,1,-178.751,0\H,9,1.09284,6,111.206,3,60.305,0\H,9,1.09284,6,111.217,3,-60.9006,0\H,9,1.09401,6,108.624,3,179.696,0\\\@

 Total job time:  53.46s(wall), 622.46s(cpu) 
 Wed Mar 13 19:32:39 2019

        *************************************************************
        *                                                           *
        *  Thank you very much for using Q-Chem.  Have a nice day.  *
        *                                                           *
        *************************************************************


