
Running Job 1 of 1 thiol/02/C-S.xyz.data/inputs/bond_triplet_5.2.in
qchem thiol/02/C-S.xyz.data/inputs/bond_triplet_5.2.in_21122.0 /staging/scratch/2868767/qchem21122/ 1
/usr/usc/qchem/5.1.1/exe/qcprog.exe_s thiol/02/C-S.xyz.data/inputs/bond_triplet_5.2.in_21122.0 /staging/scratch/2868767/qchem21122/
Check license passed

                  Welcome to Q-Chem
     A Quantum Leap Into The Future Of Chemistry


 Q-Chem 5.1, Q-Chem, Inc., Pleasanton, CA (2018)

 Yihan Shao,  Zhengting Gan,  E. Epifanovsky,  A. T. B. Gilbert,  M. Wormit,  
 J. Kussmann,  A. W. Lange,  A. Behn,  Jia Deng,  Xintian Feng,  D. Ghosh,  
 M. Goldey,  P. R. Horn,  L. D. Jacobson,  I. Kaliman,  T. Kus,  A. Landau,  
 Jie Liu,  E. I. Proynov,  R. M. Richard,  R. P. Steele,  E. J. Sundstrom,  
 H. L. Woodcock III,  P. M. Zimmerman,  D. Zuev,  B. Albrecht,  E. Alguire,  
 S. A. Baeppler,  D. Barton,  Z. Benda,  Y. A. Bernard,  E. J. Berquist,  
 K. B. Bravaya,  H. Burton,  D. Casanova,  Chun-Min Chang,  Yunqing Chen,  
 A. Chien,  K. D. Closser,  M. P. Coons,  S. Coriani,  S. Dasgupta,  
 A. L. Dempwolff,  M. Diedenhofen,  Hainam Do,  R. G. Edgar,  Po-Tung Fang,  
 S. Faraji,  S. Fatehi,  Qingguo Feng,  K. D. Fenk,  J. Fosso-Tande,  
 Qinghui Ge,  A. Ghysels,  G. Gidofalvi,  J. Gomes,  J. Gonthier,  A. Gunina,  
 D. Hait,  M. W. D. Hanson-Heine,  P. H. P. Harbach,  A. W. Hauser,  
 J. E. Herr,  E. G. Hohenstein,  Z. C. Holden,  Kerwin Hui,  B. C. Huynh,  
 T.-C. Jagau,  Hyunjun Ji,  B. Kaduk,  K. Khistyaev,  Jaehoon Kim,  
 P. Klunzinger,  K. Koh,  D. Kosenkov,  L. Koulias,  T. Kowalczyk,  
 C. M. Krauter,  A. Kunitsa,  Ka Un Lao,  A. Laurent,  K. V. Lawler,  
 Joonho Lee,  D. Lefrancois,  S. Lehtola,  D. S. Levine,  Yi-Pei Li,  
 You-Sheng Lin,  Fenglai Liu,  E. Livshits,  A. Luenser,  P. Manohar,  
 E. Mansoor,  S. F. Manzer,  Shan-Ping Mao,  Yuezhi Mao,  N. Mardirossian,  
 A. V. Marenich,  T. Markovich,  L. A. Martinez-Martinez,  S. A. Maurer,  
 N. J. Mayhall,  S. C. McKenzie,  J.-M. Mewes,  A. F. Morrison,  
 J. W. Mullinax,  K. Nanda,  T. S. Nguyen-Beck,  R. Olivares-Amaya,  
 J. A. Parkhill,  T. M. Perrine,  F. Plasser,  P. Pokhilko,  S. Prager,  
 A. Prociuk,  E. Ramos,  D. R. Rehn,  F. Rob,  M. Schneider,  N. Sergueev,  
 S. M. Sharada,  S. Sharma,  D. W. Small,  T. Stauch,  T. Stein,  
 Yu-Chuan Su,  A. J. W. Thom,  A. Tkatchenko,  T. Tsuchimochi,  N. M. Tubman,  
 L. Vogt,  M. L. Vidal,  O. Vydrov,  M. A. Watson,  J. Wenzel,  
 M. de Wergifosse,  T. A. Wesolowski,  A. White,  J. Witte,  A. Yamada,  
 Jun Yang,  K. Yao,  S. Yeganeh,  S. R. Yost,  Zhi-Qiang You,  A. Zech,  
 Igor Ying Zhang,  Xing Zhang,  Yan Zhao,  Ying Zhu,  B. R. Brooks,  
 G. K. L. Chan,  C. J. Cramer,  M. S. Gordon,  W. J. Hehre,  A. Klamt,  
 M. W. Schmidt,  C. D. Sherrill,  D. G. Truhlar,  A. Aspuru-Guzik,  R. Baer,  
 A. T. Bell,  N. A. Besley,  Jeng-Da Chai,  A. E. DePrince, III,  
 R. A. DiStasio Jr.,  A. Dreuw,  B. D. Dunietz,  T. R. Furlani,  
 Chao-Ping Hsu,  Yousung Jung,  Jing Kong,  D. S. Lambrecht,  WanZhen Liang,  
 C. Ochsenfeld,  V. A. Rassolov,  L. V. Slipchenko,  J. E. Subotnik,  
 T. Van Voorhis,  J. M. Herbert,  A. I. Krylov,  P. M. W. Gill,  M. Head-Gordon

 Contributors to earlier versions of Q-Chem not listed above: 
 R. D. Adamson,  B. Austin,  J. Baker,  G. J. O. Beran,  K. Brandhorst,  
 S. T. Brown,  E. F. C. Byrd,  A. K. Chakraborty,  C.-L. Cheng,  
 Siu Hung Chien,  D. M. Chipman,  D. L. Crittenden,  H. Dachsel,  
 R. J. Doerksen,  A. D. Dutoi,  L. Fusti-Molnar,  W. A. Goddard III,  
 A. Golubeva-Zadorozhnaya,  S. R. Gwaltney,  G. Hawkins,  A. Heyden,  
 S. Hirata,  G. Kedziora,  F. J. Keil,  C. Kelley,  Jihan Kim,  R. A. King,  
 R. Z. Khaliullin,  P. P. Korambath,  W. Kurlancheek,  A. M. Lee,  M. S. Lee,  
 S. V. Levchenko,  Ching Yeh Lin,  D. Liotard,  R. C. Lochan,  I. Lotan,  
 P. E. Maslen,  N. Nair,  D. P. O'Neill,  D. Neuhauser,  E. Neuscamman,  
 C. M. Oana,  R. Olson,  B. Peters,  R. Peverati,  P. A. Pieniazek,  
 Y. M. Rhee,  J. Ritchie,  M. A. Rohrdanz,  E. Rosta,  N. J. Russ,  
 H. F. Schaefer III,  N. E. Schultz,  N. Shenvi,  A. C. Simmonett,  A. Sodt,  
 D. Stuck,  K. S. Thanthiriwatte,  V. Vanovschi,  Tao Wang,  A. Warshel,  
 C. F. Williams,  Q. Wu,  X. Xu,  W. Zhang

 Please cite Q-Chem as follows:
 Y. Shao et al., Mol. Phys. 113, 184-215 (2015)
 DOI: 10.1080/00268976.2014.952696

 Q-Chem 5.1.1 for Intel X86 EM64T Linux

 Parts of Q-Chem use Armadillo 8.300.2 (Tropical Shenanigans).
 http://arma.sourceforge.net/

 Q-Chem begins on Wed Mar 13 21:08:45 2019  

Host: 
0

     Scratch files written to /staging/scratch/2868767/qchem21122//
 Aug318 |scratch|qcdevops|jenkins|workspace|build_RNUM 6013   
Processing $rem in /usr/usc/qchem/5.1.1/config/preferences.
 MEM_TOTAL  2000 
Input Ideriv = 2
Curr. Ideriv = -1
Max.  Ideriv = 2

Checking the input file for inconsistencies... 	...done.

--------------------------------------------------------------
User input:
--------------------------------------------------------------

$comment
potential surface scanner
$end

$rem
JOBTYPE  PES_SCAN
UNRESTRICTED TRUE
SYM_IGNORE  TRUE
GEOM_OPT_MAX_CYCLES 400
SCF_MAX_CYCLES 400
METHOD   B3LYP
BASIS   6-31G**
PDB_PRINT 2
SCF_CONVERGENCE 6
THRESH 14
SCF_PRINT 1
$end
$molecule
0 3
S 4.672447 1.122810 -0.176113
C -1.069779 0.229489 -0.010859
C -0.191461 -0.976681 -0.019457
C -2.574938 -0.101182 0.130484
H -0.783033 0.894453 0.815083
H -0.926091 0.802420 -0.936347
H 0.105179 -1.456753 0.907841
H 0.028794 -1.499277 -0.945009
H -2.773082 -0.638418 1.063401
H -3.174712 0.815862 0.132872
H -2.918286 -0.729289 -0.697567
H 4.317567 1.440367 -1.441322
$end
$scan
stre 1 3 5.200000 5.201000 0.100000
$end
--------------------------------------------------------------
 ----------------------------------------------------------------
             Standard Nuclear Orientation (Angstroms)
    I     Atom           X                Y                Z
 ----------------------------------------------------------------
    1      S       4.6724470000     1.1228100000    -0.1761130000
    2      C      -1.0697790000     0.2294890000    -0.0108590000
    3      C      -0.1914610000    -0.9766810000    -0.0194570000
    4      C      -2.5749380000    -0.1011820000     0.1304840000
    5      H      -0.7830330000     0.8944530000     0.8150830000
    6      H      -0.9260910000     0.8024200000    -0.9363470000
    7      H       0.1051790000    -1.4567530000     0.9078410000
    8      H       0.0287940000    -1.4992770000    -0.9450090000
    9      H      -2.7730820000    -0.6384180000     1.0634010000
   10      H      -3.1747120000     0.8158620000     0.1328720000
   11      H      -2.9182860000    -0.7292890000    -0.6975670000
   12      H       4.3175670000     1.4403670000    -1.4413220000
 ----------------------------------------------------------------
 Nuclear Repulsion Energy =   118.6285923194 hartrees
 There are       22 alpha and       20 beta electrons
 Requested basis set is 6-31G(d,p)
 There are 41 shells and 104 basis functions

 Total QAlloc Memory Limit   2000 MB
 Mega-Array Size       188 MB
 MEM_STATIC part       192 MB
A total of 1 constraints
  
            1
    1   1.0100000
    2   1.0100000
    3   3.0100000
    4   5.2000000
    5   5.2010000
    6   0.1000000
    7   0.0000000
    8   0.0000000
    9   0.0000000
   10   0.0000000

                       Distance Matrix (Angstroms)
             S (  1)   C (  2)   C (  3)   C (  4)   H (  5)   H (  6)
   C (  2)  5.813647
   C (  3)  5.300000  1.492100
   C (  4)  7.356409  1.547522  2.543608
   H (  5)  5.549494  1.098445  2.132500  2.161224
   H (  6)  5.658996  1.097918  2.132034  2.161787  1.759671
   H (  7)  5.356215  2.251210  1.085516  3.102400  2.515093  3.093285
   H (  8)  5.387955  2.251251  1.085479  3.144960  3.080086  2.491925
   H (  9)  7.750756  2.192838  2.819888  1.094631  2.524213  3.079997
   H ( 10)  7.859236  2.189802  3.483705  1.095767  2.488316  2.489921
   H ( 11)  7.830799  2.192670  2.820746  1.094566  3.079603  2.524280
   H ( 12)  1.351864  5.704029  5.309911  7.235577  5.604062  5.306404
             H (  7)   H (  8)   H (  9)   H ( 10)   H ( 11)
   H (  8)  1.854911
   H (  9)  2.996374  3.553210
   H ( 10)  4.064854  4.096846  1.772603
   H ( 11)  3.499697  3.056041  1.769280  1.772816
   H ( 12)  5.626374  5.223161  7.802069  7.681298  7.590662
 
 A cutoff of  1.0D-14 yielded    729 shell pairs
 There are      4592 function pairs
 
 -------------------------------------------------------
 OpenMP Integral Computing Module                       
 Release: version 1.0, May 2013, Q-Chem Inc. Pittsburgh 
 -------------------------------------------------------
 Integral Job Info:
 Integral job number is                      11
 Integral operator is                         1
 short-range coefficients                     0
 long-range coefficients              100000000
 Omega coefficients                           0
 if combine SR and LR in K                    0
 Integral screening is                        0
 Integral computing path is                   2
 max size of driver memory is            800000
 size of driver memory is                593474
 size of scratch memory is             15267112
 max col of scratch BK array               1296
 max len of scratch array in speh3          155
 max len of scratch index in speh4           18
 max int batch size is                      520
 min int batch size is                       52
 fixed nKL is                                52
 max L of basis functions is                  2
 order of int derivative is                   0
 number of shells is                         41
 number of basis is                         104
 number of cartesian basis is               104
 number of contracted shell pairs           729
 number of primitive shell pairs           2503
 maxK2 (contraction) of shell pair           36
 max number of K2 of shell pair               1
 max number of CS2 of shell pair             74
 max number of PS2 of shell pair            204
 mem total for path MDJ                  511952
 -------------------------------------------------------
 Smallest overlap matrix eigenvalue = 6.42E-03

 Scale SEOQF with 1.000000e-01/1.000000e-01/1.000000e+00

 Standard Electronic Orientation quadrupole field applied
 Nucleus-field energy     =     0.0000000102 hartrees
 Guess from superposition of atomic densities
 Warning:  Energy on first SCF cycle will be non-variational
 SAD guess density has 42.000000 electrons

 -----------------------------------------------------------------------
  General SCF calculation program by
  Eric Jon Sundstrom, Paul Horn, Yuezhi Mao, Dmitri Zuev, Alec White,
  David Stuck, Shaama M.S., Shane Yost, Joonho Lee, David Small,
  Daniel Levine, Susi Lehtola, Hugh Burton, Evgeny Epifanovsky
 -----------------------------------------------------------------------
 Exchange:     0.2000 Hartree-Fock + 0.0800 Slater + 0.7200 B88
 Correlation:  0.1900 VWN1RPA + 0.8100 LYP
 Using SG-1 standard quadrature grid
 using 12 threads for integral computing
 -------------------------------------------------------
 OpenMP Integral computing Module                
 Release: version 1.0, May 2013, Q-Chem Inc. Pittsburgh 
 -------------------------------------------------------
 -------------------------------------------------------
 OpenMP BLAS3 based DFT computing Module                
 Release: version 1.0, May 2013, Q-Chem Inc. Pittsburgh 
 -------------------------------------------------------
 A unrestricted SCF calculation will be
 performed using DIIS
 SCF converges when DIIS error is below 1.0e-06
 Alpha HF Exchange    Energy =  -4.31709139789524
 Beta HF Exchange     Energy =  -4.31709139789524
 DFT Correlation      Energy =  -1.85320926485008
 DFT Exchange         Energy = -33.94175455729847
 One-Electron (alpha) Energy = -469.94666987995618
 One-Electron (beta)  Energy = -469.94666987995618
 Total Coulomb        Energy = 348.27765357340195
 ---------------------------------------
  Cycle       Energy         DIIS error
 ---------------------------------------
    1    -517.4162404748      2.80e-02  
 Alpha HF Exchange    Energy =  -4.45358264524509
 Beta HF Exchange     Energy =  -4.27119061363118
 DFT Correlation      Energy =  -1.87339581355327
 DFT Exchange         Energy = -34.59029495728047
 One-Electron (alpha) Energy = -483.96575580738198
 One-Electron (beta)  Energy = -462.71919051192270
 Total Coulomb        Energy = 356.10292792590667
    2    -517.1418900935      3.62e-03  
 Alpha HF Exchange    Energy =  -4.39680635578033
 Beta HF Exchange     Energy =  -4.21964699212746
 DFT Correlation      Energy =  -1.84532686361620
 DFT Exchange         Energy = -34.13432360496815
 One-Electron (alpha) Energy = -480.62871301685504
 One-Electron (beta)  Energy = -459.41550802883722
 Total Coulomb        Energy = 348.87476567290901
    3    -517.1369668596      3.85e-03  
 Alpha HF Exchange    Energy =  -4.42583072612634
 Beta HF Exchange     Energy =  -4.24467624892290
 DFT Correlation      Energy =  -1.85864612366716
 DFT Exchange         Energy = -34.35871116791977
 One-Electron (alpha) Energy = -482.46704607476772
 One-Electron (beta)  Energy = -461.04497629024485
 Total Coulomb        Energy = 352.54743895812749
    4    -517.2238553439      2.71e-04  
 Alpha HF Exchange    Energy =  -4.42716717297929
 Beta HF Exchange     Energy =  -4.24466763797564
 DFT Correlation      Energy =  -1.85856840912929
 DFT Exchange         Energy = -34.36338464699422
 One-Electron (alpha) Energy = -482.50793784489662
 One-Electron (beta)  Energy = -461.01814184910160
 Total Coulomb        Energy = 352.56707818772156
    5    -517.2241970437      1.43e-04  
 Alpha HF Exchange    Energy =  -4.42686042317481
 Beta HF Exchange     Energy =  -4.24453732488057
 DFT Correlation      Energy =  -1.85835030207580
 DFT Exchange         Energy = -34.36142588993349
 One-Electron (alpha) Energy = -482.49928274725454
 One-Electron (beta)  Energy = -460.99641965904311
 Total Coulomb        Energy = 352.53396985101466
    6    -517.2243141657      3.72e-05  
 Alpha HF Exchange    Energy =  -4.42698396481669
 Beta HF Exchange     Energy =  -4.24445737362227
 DFT Correlation      Energy =  -1.85832354019331
 DFT Exchange         Energy = -34.36153810364880
 One-Electron (alpha) Energy = -482.50584965398241
 One-Electron (beta)  Energy = -460.99061477116697
 Total Coulomb        Energy = 352.53485149124617
    7    -517.2243235865      9.03e-06  
 Alpha HF Exchange    Energy =  -4.42704373884911
 Beta HF Exchange     Energy =  -4.24445990514846
 DFT Correlation      Energy =  -1.85831431995611
 DFT Exchange         Energy = -34.36175303008532
 One-Electron (alpha) Energy = -482.51003690404661
 One-Electron (beta)  Energy = -460.98950434745399
 Total Coulomb        Energy = 352.53819530759631
    8    -517.2243246083      3.97e-06  
 Alpha HF Exchange    Energy =  -4.42704021987485
 Beta HF Exchange     Energy =  -4.24444278356072
 DFT Correlation      Energy =  -1.85830675024381
 DFT Exchange         Energy = -34.36167144541111
 One-Electron (alpha) Energy = -482.50952339332997
 One-Electron (beta)  Energy = -460.98795578399631
 Total Coulomb        Energy = 352.53602313495384
    9    -517.2243249118      1.81e-06  
 Alpha HF Exchange    Energy =  -4.42704240814348
 Beta HF Exchange     Energy =  -4.24444232169991
 DFT Correlation      Energy =  -1.85830646734668
 DFT Exchange         Energy = -34.36167829550845
 One-Electron (alpha) Energy = -482.50965956477080
 One-Electron (beta)  Energy = -460.98784258494794
 Total Coulomb        Energy = 352.53605420730827
   10    -517.2243251055      1.35e-06  
 Alpha HF Exchange    Energy =  -4.42704430679160
 Beta HF Exchange     Energy =  -4.24444302515321
 DFT Correlation      Energy =  -1.85830698990862
 DFT Exchange         Energy = -34.36168908137995
 One-Electron (alpha) Energy = -482.50981975730713
 One-Electron (beta)  Energy = -460.98789229023254
 Total Coulomb        Energy = 352.53627782827613
   11    -517.2243252929      1.26e-06  
 Alpha HF Exchange    Energy =  -4.42704383117460
 Beta HF Exchange     Energy =  -4.24444267404133
 DFT Correlation      Energy =  -1.85830684122216
 DFT Exchange         Energy = -34.36168591772016
 One-Electron (alpha) Energy = -482.50978032837065
 One-Electron (beta)  Energy = -460.98782584124899
 Total Coulomb        Energy = 352.53616765788274
   12    -517.2243254463      1.26e-06  
 Alpha HF Exchange    Energy =  -4.42704384968177
 Beta HF Exchange     Energy =  -4.24444269771197
 DFT Correlation      Energy =  -1.85830685108651
 DFT Exchange         Energy = -34.36168609182592
 One-Electron (alpha) Energy = -482.50978200223028
 One-Electron (beta)  Energy = -460.98781532062554
 Total Coulomb        Energy = 352.53615898321038
   13    -517.2243255003      1.26e-06  
 Alpha HF Exchange    Energy =  -4.42704390794253
 Beta HF Exchange     Energy =  -4.24444359300286
 DFT Correlation      Energy =  -1.85830674360890
 DFT Exchange         Energy = -34.36168959838768
 One-Electron (alpha) Energy = -482.50976117697235
 One-Electron (beta)  Energy = -460.98856982804830
 Total Coulomb        Energy = 352.53690008577206
   14    -517.2243224325      1.24e-06  
 Alpha HF Exchange    Energy =  -4.42704304803339
 Beta HF Exchange     Energy =  -4.24444773771437
 DFT Correlation      Energy =  -1.85830625148608
 DFT Exchange         Energy = -34.36170173084011
 One-Electron (alpha) Energy = -482.50965866751238
 One-Electron (beta)  Energy = -460.98999025447455
 Total Coulomb        Energy = 352.53823792319776
   15    -517.2243174372      1.60e-06  
 Alpha HF Exchange    Energy =  -4.42704291427699
 Beta HF Exchange     Energy =  -4.24447404380535
 DFT Correlation      Energy =  -1.85830443138014
 DFT Exchange         Energy = -34.36180079444862
 One-Electron (alpha) Energy = -482.50949162303942
 One-Electron (beta)  Energy = -460.99363174250209
 Total Coulomb        Energy = 352.54184466560991
   16    -517.2243085542      7.07e-06  
 Alpha HF Exchange    Energy =  -4.42704251969826
 Beta HF Exchange     Energy =  -4.24450030886955
 DFT Correlation      Energy =  -1.85830281796347
 DFT Exchange         Energy = -34.36189946337418
 One-Electron (alpha) Energy = -482.50932596097147
 One-Electron (beta)  Energy = -460.99692259050710
 Total Coulomb        Energy = 352.54510018366693
   17    -517.2243011481      1.27e-05  
 Alpha HF Exchange    Energy =  -4.42704128186875
 Beta HF Exchange     Energy =  -4.24454887886169
 DFT Correlation      Energy =  -1.85829937525139
 DFT Exchange         Energy = -34.36207949327777
 One-Electron (alpha) Energy = -482.50900775383963
 One-Electron (beta)  Energy = -461.00155918375293
 Total Coulomb        Energy = 352.54965217154279
   18    -517.2242914657      2.34e-05  
 Alpha HF Exchange    Energy =  -4.42704201111998
 Beta HF Exchange     Energy =  -4.24453000474037
 DFT Correlation      Energy =  -1.85830099681232
 DFT Exchange         Energy = -34.36201102918402
 One-Electron (alpha) Energy = -482.50913893240562
 One-Electron (beta)  Energy = -461.00002967598670
 Total Coulomb        Energy = 352.54816568901384
   19    -517.2242946316      1.91e-05  
 Alpha HF Exchange    Energy =  -4.42704045454749
 Beta HF Exchange     Energy =  -4.24452173104601
 DFT Correlation      Energy =  -1.85830065636804
 DFT Exchange         Energy = -34.36197311533200
 One-Electron (alpha) Energy = -482.50905645225981
 One-Electron (beta)  Energy = -461.00004134076408
 Total Coulomb        Energy = 352.54804770234614
   20    -517.2242937183      1.75e-05  
 Alpha HF Exchange    Energy =  -4.42704036629593
 Beta HF Exchange     Energy =  -4.24458234079131
 DFT Correlation      Energy =  -1.85829636088670
 DFT Exchange         Energy = -34.36220539429389
 One-Electron (alpha) Energy = -482.50871100116319
 One-Electron (beta)  Energy = -461.00658613015827
 Total Coulomb        Energy = 352.55454955622832
   21    -517.2242797077      3.10e-05  
 Alpha HF Exchange    Energy =  -4.42703844397867
 Beta HF Exchange     Energy =  -4.24462292123616
 DFT Correlation      Energy =  -1.85829276577091
 DFT Exchange         Energy = -34.36235173807620
 One-Electron (alpha) Energy = -482.50839339233511
 One-Electron (beta)  Energy = -461.00951208661064
 Total Coulomb        Energy = 352.55734688343574
   22    -517.2242721349      4.03e-05  
 Alpha HF Exchange    Energy =  -4.42703884133617
 Beta HF Exchange     Energy =  -4.24462372659039
 DFT Correlation      Energy =  -1.85829267319928
 DFT Exchange         Energy = -34.36235660354688
 One-Electron (alpha) Energy = -482.50840138857444
 One-Electron (beta)  Energy = -461.00976995130310
 Total Coulomb        Energy = 352.55761917198799
   23    -517.2242716829      4.05e-05  
 Alpha HF Exchange    Energy =  -4.42703878562132
 Beta HF Exchange     Energy =  -4.24462303898288
 DFT Correlation      Energy =  -1.85829267092721
 DFT Exchange         Energy = -34.36235378880696
 One-Electron (alpha) Energy = -482.50840169616828
 One-Electron (beta)  Energy = -461.00976282131433
 Total Coulomb        Energy = 352.55760871502287
   24    -517.2242717572      4.04e-05  
 Alpha HF Exchange    Energy =  -4.42703880502748
 Beta HF Exchange     Energy =  -4.24463717873659
 DFT Correlation      Energy =  -1.85829172820948
 DFT Exchange         Energy = -34.36240750997152
 One-Electron (alpha) Energy = -482.50834995814591
 One-Electron (beta)  Energy = -461.01059553201890
 Total Coulomb        Energy = 352.55845924573072
   25    -517.2242691367      4.36e-05  
 Alpha HF Exchange    Energy =  -4.42703913070386
 Beta HF Exchange     Energy =  -4.24458813753985
 DFT Correlation      Energy =  -1.85829497512444
 DFT Exchange         Energy = -34.36222306509749
 One-Electron (alpha) Energy = -482.50855106976172
 One-Electron (beta)  Energy = -461.00790640190269
 Total Coulomb        Energy = 352.55573327927499
   26    -517.2242771712      3.25e-05  
 Alpha HF Exchange    Energy =  -4.42703942720513
 Beta HF Exchange     Energy =  -4.24452436599720
 DFT Correlation      Energy =  -1.85829893173826
 DFT Exchange         Energy = -34.36198305829873
 One-Electron (alpha) Energy = -482.50877459109410
 One-Electron (beta)  Energy = -461.00463247559446
 Total Coulomb        Energy = 352.55237664909384
   27    -517.2242838712      1.83e-05  
 Alpha HF Exchange    Energy =  -4.42703993223007
 Beta HF Exchange     Energy =  -4.24448512944339
 DFT Correlation      Energy =  -1.85830134022196
 DFT Exchange         Energy = -34.36183713337314
 One-Electron (alpha) Energy = -482.50893107795270
 One-Electron (beta)  Energy = -461.00280578185163
 Total Coulomb        Energy = 352.55052204687780
   28    -517.2242860186      9.54e-06  
 Alpha HF Exchange    Energy =  -4.42704027422149
 Beta HF Exchange     Energy =  -4.24443642785998
 DFT Correlation      Energy =  -1.85830421491137
 DFT Exchange         Energy = -34.36165450300901
 One-Electron (alpha) Energy = -482.50910402765334
 One-Electron (beta)  Energy = -461.00025194165170
 Total Coulomb        Energy = 352.54791220524595
   29    -517.2242868544      1.26e-06  
 Alpha HF Exchange    Energy =  -4.42704039137134
 Beta HF Exchange     Energy =  -4.24444247273381
 DFT Correlation      Energy =  -1.85830385377032
 DFT Exchange         Energy = -34.36167784860185
 One-Electron (alpha) Energy = -482.50909035413616
 One-Electron (beta)  Energy = -461.00059640483119
 Total Coulomb        Energy = 352.54827212610815
   30    -517.2242868697      9.83e-08  Convergence criterion met
 ---------------------------------------
 SCF time:   CPU 64.15s  wall 6.00s 
<S^2> =          2.006185318
 Alpha HF Exchange    Energy =  -4.42704039137134
 Beta HF Exchange     Energy =  -4.24444247273381
 DFT Correlation      Energy =  -1.85830385377032
 DFT Exchange         Energy = -34.36167784860185
 One-Electron (alpha) Energy = -482.50909035413616
 One-Electron (beta)  Energy = -461.00059640483119
 Total Coulomb        Energy = 352.54827212610815
 Nuclear repulsion Energy = 118.62859232964504
 SCF   energy in the final basis set =     -517.2242868697
 Total energy in the final basis set =     -517.2242868697
 
 --------------------------------------------------------------
 
                    Orbital Energies (a.u.)
 --------------------------------------------------------------
 
 Alpha MOs
 -- Occupied --
-88.910 -10.184 -10.183 -10.175  -7.971  -5.943  -5.933  -5.924
 -0.777  -0.737  -0.671  -0.577  -0.459  -0.425  -0.412  -0.390
 -0.376  -0.347  -0.330  -0.320  -0.272  -0.196
 -- Virtual --
  0.032   0.106   0.141   0.145   0.159   0.179   0.180   0.223
  0.233   0.273   0.276   0.327   0.333   0.360   0.514   0.535
  0.535   0.549   0.594   0.599   0.657   0.689   0.694   0.696
  0.728   0.738   0.743   0.791   0.813   0.859   0.878   0.883
  0.911   0.938   0.961   1.001   1.085   1.212   1.309   1.437
  1.480   1.521   1.603   1.684   1.823   1.874   1.955   1.983
  1.996   2.054   2.058   2.066   2.071   2.122   2.127   2.227
  2.263   2.292   2.370   2.444   2.450   2.526   2.576   2.676
  2.699   2.711   2.742   2.802   2.863   2.884   2.923   3.186
  3.259   3.359   3.382   3.466   3.479   3.558   3.919   4.241
  4.431   4.607
 
 Beta MOs
 -- Occupied --
-88.904 -10.185 -10.174 -10.169  -7.966  -5.929  -5.925  -5.920
 -0.767  -0.698  -0.652  -0.563  -0.455  -0.419  -0.398  -0.385
 -0.364  -0.341  -0.328  -0.257
 -- Virtual --
 -0.177  -0.037   0.043   0.110   0.146   0.153   0.161   0.181
  0.183   0.228   0.238   0.285   0.286   0.334   0.366   0.372
  0.518   0.537   0.551   0.568   0.601   0.632   0.670   0.707
  0.713   0.735   0.743   0.792   0.795   0.798   0.820   0.863
  0.880   0.886   0.918   0.944   0.973   1.004   1.095   1.223
  1.319   1.468   1.484   1.535   1.624   1.684   1.832   1.878
  1.958   2.003   2.041   2.054   2.061   2.063   2.072   2.125
  2.130   2.228   2.275   2.293   2.377   2.449   2.461   2.535
  2.600   2.682   2.701   2.712   2.746   2.805   2.865   2.886
  2.926   3.187   3.262   3.364   3.383   3.468   3.485   3.561
  3.938   4.260   4.447   4.610
 --------------------------------------------------------------
 
          Ground-State Mulliken Net Atomic Charges

     Atom                 Charge (a.u.)    Spin (a.u.)
  --------------------------------------------------------
      1 S                    -0.073373       1.027554
      2 C                    -0.188662      -0.074321
      3 C                    -0.217993       1.081023
      4 C                    -0.307018       0.049688
      5 H                     0.103311       0.015630
      6 H                     0.099189       0.011176
      7 H                     0.101802      -0.047818
      8 H                     0.099227      -0.048025
      9 H                     0.105431      -0.000672
     10 H                     0.099795       0.013481
     11 H                     0.104932      -0.000321
     12 H                     0.073358      -0.027395
  --------------------------------------------------------
  Sum of atomic charges =    -0.000000
  Sum of spin   charges =     2.000000

 -----------------------------------------------------------------
                    Cartesian Multipole Moments
 -----------------------------------------------------------------
    Charge (ESU x 10^10)
                 0.0000
    Dipole Moment (Debye)
         X      -0.4697      Y       0.3138      Z      -0.9500
       Tot       1.1053
    Quadrupole Moments (Debye-Ang)
        XX     -38.8907     XY      -0.8322     YY     -33.5438
        XZ      -3.8880     YZ      -1.1492     ZZ     -31.6062
    Octopole Moments (Debye-Ang^2)
       XXX    -142.6034    XXY     -19.2799    XYY     -34.6307
       YYY     -26.5331    XXZ     -13.3036    XYZ      -4.6433
       YYZ       0.7906    XZZ     -27.2807    YZZ      -8.2401
       ZZZ       5.2538
    Hexadecapole Moments (Debye-Ang^3)
      XXXX   -2476.8372   XXXY    -317.8067   XXYY    -411.7610
      XYYY    -218.8618   YYYY    -208.5810   XXXZ      -6.4499
      XXYZ     -12.4364   XYYZ      11.4151   YYYZ      10.0138
      XXZZ    -336.5386   XYZZ     -61.6922   YYZZ     -41.3074
      XZZZ      42.4772   YZZZ       8.6963   ZZZZ     -66.0142
 -----------------------------------------------------------------
 Calculating analytic gradient of the SCF energy
 Gradient of SCF Energy
            1           2           3           4           5           6
    1  -0.0001874   0.0000009   0.0000606  -0.0001461   0.0000764  -0.0000127
    2  -0.0000153  -0.0000379  -0.0000189  -0.0002030   0.0000154  -0.0000634
    3   0.0000186   0.0000135   0.0002380  -0.0000109  -0.0000110  -0.0000682
            7           8           9          10          11          12
    1   0.0000083   0.0000228   0.0000285   0.0000205   0.0000206   0.0001076
    2  -0.0000673   0.0001655   0.0001085   0.0000047   0.0000973   0.0000141
    3  -0.0000028  -0.0001008   0.0000399  -0.0000022  -0.0000517  -0.0000625
 Max gradient component =       2.380E-04
 RMS gradient           =       8.519E-05
 Gradient time:  CPU 7.45 s  wall 0.68 s
 Geometry Optimization Parameters
   NAtoms,    NIC,     NZ,  NCons,   NDum,   NFix, NCnnct, MaxDiis
       12     329       0       1       0       0       0       0


** CONSTRAINED OPTIMIZATION IN DELOCALIZED INTERNAL COORDINATES **
   Searching for a Minimum

   Optimization Cycle:   1

                       Coordinates (Angstroms)
     ATOM                X               Y               Z
      1  S         4.6724470000    1.1228100000   -0.1761130000
      2  C        -1.0697790000    0.2294890000   -0.0108590000
      3  C        -0.1914610000   -0.9766810000   -0.0194570000
      4  C        -2.5749380000   -0.1011820000    0.1304840000
      5  H        -0.7830330000    0.8944530000    0.8150830000
      6  H        -0.9260910000    0.8024200000   -0.9363470000
      7  H         0.1051790000   -1.4567530000    0.9078410000
      8  H         0.0287940000   -1.4992770000   -0.9450090000
      9  H        -2.7730820000   -0.6384180000    1.0634010000
     10  H        -3.1747120000    0.8158620000    0.1328720000
     11  H        -2.9182860000   -0.7292890000   -0.6975670000
     12  H         4.3175670000    1.4403670000   -1.4413220000
   Point Group: c1    Number of degrees of freedom:    30


   Energy is   -517.224286870

              Constraints and their Current Values
                                        Value     Constraint
   Distance(Angs):        1   3             5.300000     5.200000

 Attempting to Generate Delocalized Internal Coordinates

   Using Lagrange Multiplier Algorithm


 31 Hessian modes will be used to form the next step
  Hessian Eigenvalues:
    -0.998586    0.019604    0.040674    0.045336    0.045690    0.047330
     0.050113    0.052359    0.053424    0.055438    0.058032    0.060349
     0.062380    0.062734    0.081623    0.115442    0.134144    0.156808
     0.159071    0.159376    0.188848    0.194677    0.219008    0.220427
     0.230315    0.277032    0.283217    0.341535    0.342821    0.342901
     1.001416

 Minimum Search - Taking P-RFO Step
 Searching for Lamda that Maximizes Along the Constraint modes Only
 Value Taken    Lamda =   0.01761511
 Searching for Lamda that Minimizes Along All other modes
 Value Taken    Lamda =  -0.01748051
 Step Taken.  Stepsize is  0.185726

                             Maximum     Tolerance    Cnvgd?
         Gradient            0.188973       0.000300      NO
         Displacement        0.185714       0.001200      NO
         Energy change     *********       0.000001      NO


 New Cartesian Coordinates Obtained by Inverse Iteration

 Displacement from previous Coordinates is:  0.162549
 ----------------------------------------------------------------
             Standard Nuclear Orientation (Angstroms)
    I     Atom           X                Y                Z
 ----------------------------------------------------------------
    1      S       4.6167913692     1.1003339911    -0.1691853779
    2      C      -1.0683226600     0.2359413505    -0.0113888897
    3      C      -0.1519433339    -0.9722928419    -0.0231522123
    4      C      -2.5729422038    -0.0952902923     0.1312640637
    5      H      -0.7976125007     0.8946155021     0.8179255643
    6      H      -0.9413657698     0.8097652568    -0.9422283994
    7      H       0.1263364322    -1.4600107865     0.9135253653
    8      H       0.0536075504    -1.5096566365    -0.9544297582
    9      H      -2.7700289232    -0.6328834777     1.0642540820
   10      H      -3.1732633918     0.8213897959     0.1346491596
   11      H      -2.9171839888    -0.7232075398    -0.6966121425
   12      H       4.3085324201     1.4350966785    -1.4416144549
 ----------------------------------------------------------------
 Nuclear Repulsion Energy =   118.6167864871 hartrees
 There are       22 alpha and       20 beta electrons

                       Distance Matrix (Angstroms)
             S (  1)   C (  2)   C (  3)   C (  4)   H (  5)   H (  6)
   C (  2)  5.752616
   C (  3)  5.201725  1.516483
   C (  4)  7.294659  1.547238  2.579576
   H (  5)  5.507493  1.093114  2.147009  2.145510
   H (  6)  5.619176  1.100842  2.154906  2.152569  1.768052
   H (  7)  5.281270  2.271328  1.092096  3.124180  2.531222  3.120207
   H (  8)  5.315196  2.279291  1.094664  3.174575  3.105856  2.523854
   H (  9)  7.687036  2.192640  2.855175  1.094678  2.506862  3.074283
   H ( 10)  7.800967  2.189715  3.517183  1.095764  2.473044  2.478138
   H ( 11)  7.769444  2.192666  2.856947  1.094606  3.066555  2.512805
   H ( 12)  1.351357  5.691581  5.263402  7.222930  5.609845  5.310542
             H (  7)   H (  8)   H (  9)   H ( 10)   H ( 11)
   H (  8)  1.870030
   H (  9)  3.015923  3.580047
   H ( 10)  4.086416  4.127053  1.772477
   H ( 11)  3.521142  3.083922  1.769311  1.772668
   H ( 12)  5.605274  5.197433  7.788578  7.670627  7.577881
 
 Applying Cartesian multipole field
    Component          Value
    ---------          -----
     (2,0,0)        1.00000E-11
     (0,2,0)        2.00000E-11
     (0,0,2)       -3.00000E-10
 Nucleus-field energy     =     0.0000000099 hartrees
 Requested basis set is 6-31G(d,p)
 There are 41 shells and 104 basis functions
 A cutoff of  1.0D-14 yielded    729 shell pairs
 There are      4587 function pairs
 Smallest overlap matrix eigenvalue = 6.58E-03
 Guess from superposition of atomic densities
 Warning:  Energy on first SCF cycle will be non-variational
 SAD guess density has 42.000000 electrons

 -----------------------------------------------------------------------
  General SCF calculation program by
  Eric Jon Sundstrom, Paul Horn, Yuezhi Mao, Dmitri Zuev, Alec White,
  David Stuck, Shaama M.S., Shane Yost, Joonho Lee, David Small,
  Daniel Levine, Susi Lehtola, Hugh Burton, Evgeny Epifanovsky
 -----------------------------------------------------------------------
 Exchange:     0.2000 Hartree-Fock + 0.0800 Slater + 0.7200 B88
 Correlation:  0.1900 VWN1RPA + 0.8100 LYP
 Using SG-1 standard quadrature grid
 using 12 threads for integral computing
 -------------------------------------------------------
 OpenMP Integral computing Module                
 Release: version 1.0, May 2013, Q-Chem Inc. Pittsburgh 
 -------------------------------------------------------
 -------------------------------------------------------
 OpenMP BLAS3 based DFT computing Module                
 Release: version 1.0, May 2013, Q-Chem Inc. Pittsburgh 
 -------------------------------------------------------
 A unrestricted SCF calculation will be
 performed using DIIS
 SCF converges when DIIS error is below 1.0e-06
 Alpha HF Exchange    Energy =  -4.31365875007478
 Beta HF Exchange     Energy =  -4.31365875007478
 DFT Correlation      Energy =  -1.85240110180413
 DFT Exchange         Energy = -33.93478145116330
 One-Electron (alpha) Energy = -469.95210401243253
 One-Electron (beta)  Energy = -469.95210401243253
 Total Coulomb        Energy = 348.31567862669885
 ---------------------------------------
  Cycle       Energy         DIIS error
 ---------------------------------------
    1    -517.3862429543      2.77e-02  
 Alpha HF Exchange    Energy =  -4.45141407207570
 Beta HF Exchange     Energy =  -4.26956408993857
 DFT Correlation      Energy =  -1.87220387753937
 DFT Exchange         Energy = -34.57615707717618
 One-Electron (alpha) Energy = -483.94039411444402
 One-Electron (beta)  Energy = -462.69515828553261
 Total Coulomb        Energy = 356.04493117802406
    2    -517.1431738417      3.58e-03  
 Alpha HF Exchange    Energy =  -4.39580996250172
 Beta HF Exchange     Energy =  -4.21859048817632
 DFT Correlation      Energy =  -1.84453144630323
 DFT Exchange         Energy = -34.12717076823741
 One-Electron (alpha) Energy = -480.66984240260871
 One-Electron (beta)  Energy = -459.43867045468488
 Total Coulomb        Energy = 348.93914333791139
    3    -517.1386856876      3.80e-03  
 Alpha HF Exchange    Energy =  -4.42422510644245
 Beta HF Exchange     Energy =  -4.24330072537319
 DFT Correlation      Energy =  -1.85761137183736
 DFT Exchange         Energy = -34.34784502730261
 One-Electron (alpha) Energy = -482.46971951871882
 One-Electron (beta)  Energy = -461.03941009811825
 Total Coulomb        Energy = 352.54205094904148
    4    -517.2232744018      2.72e-04  
 Alpha HF Exchange    Energy =  -4.42561717398952
 Beta HF Exchange     Energy =  -4.24330270615279
 DFT Correlation      Energy =  -1.85755416347973
 DFT Exchange         Energy = -34.35280321316414
 One-Electron (alpha) Energy = -482.51358808772477
 One-Electron (beta)  Energy = -461.01459697929477
 Total Coulomb        Energy = 352.56706110506707
    5    -517.2236147218      1.47e-04  
 Alpha HF Exchange    Energy =  -4.42528660412871
 Beta HF Exchange     Energy =  -4.24315647158263
 DFT Correlation      Energy =  -1.85732324149322
 DFT Exchange         Energy = -34.35067662433800
 One-Electron (alpha) Energy = -482.50374931977797
 One-Electron (beta)  Energy = -460.99179316416308
 Total Coulomb        Energy = 352.53145903945244
    6    -517.2237398891      3.71e-05  
 Alpha HF Exchange    Energy =  -4.42541188617136
 Beta HF Exchange     Energy =  -4.24307600449822
 DFT Correlation      Energy =  -1.85729568834320
 DFT Exchange         Energy = -34.35079609376945
 One-Electron (alpha) Energy = -482.51031643556166
 One-Electron (beta)  Energy = -460.98579772882482
 Total Coulomb        Energy = 352.53215785179219
    7    -517.2237494884      9.10e-06  
 Alpha HF Exchange    Energy =  -4.42547486526391
 Beta HF Exchange     Energy =  -4.24307813939158
 DFT Correlation      Energy =  -1.85728623515802
 DFT Exchange         Energy = -34.35102150095942
 One-Electron (alpha) Energy = -482.51472707050857
 One-Electron (beta)  Energy = -460.98472972366920
 Total Coulomb        Energy = 352.53578046194963
    8    -517.2237505760      3.90e-06  
 Alpha HF Exchange    Energy =  -4.42547019906643
 Beta HF Exchange     Energy =  -4.24306001275859
 DFT Correlation      Energy =  -1.85727806559939
 DFT Exchange         Energy = -34.35093165559665
 One-Electron (alpha) Energy = -482.51409465285843
 One-Electron (beta)  Energy = -460.98306404811819
 Total Coulomb        Energy = 352.53336123254269
    9    -517.2237509045      1.78e-06  
 Alpha HF Exchange    Energy =  -4.42547318397995
 Beta HF Exchange     Energy =  -4.24306019986034
 DFT Correlation      Energy =  -1.85727805350512
 DFT Exchange         Energy = -34.35094415960211
 One-Electron (alpha) Energy = -482.51430153092724
 One-Electron (beta)  Energy = -460.98301171183761
 Total Coulomb        Energy = 352.53353122045388
   10    -517.2237511223      1.41e-06  
 Alpha HF Exchange    Energy =  -4.42547479186724
 Beta HF Exchange     Energy =  -4.24306074441682
 DFT Correlation      Energy =  -1.85727850227413
 DFT Exchange         Energy = -34.35095319585570
 One-Electron (alpha) Energy = -482.51443682623977
 One-Electron (beta)  Energy = -460.98304685338383
 Total Coulomb        Energy = 352.53371309686599
   11    -517.2237513202      1.33e-06  
 Alpha HF Exchange    Energy =  -4.42547434599736
 Beta HF Exchange     Energy =  -4.24306042698336
 DFT Correlation      Energy =  -1.85727836021626
 DFT Exchange         Energy = -34.35095025298922
 One-Electron (alpha) Energy = -482.51439975238441
 One-Electron (beta)  Energy = -460.98298264764838
 Total Coulomb        Energy = 352.53360780735727
   12    -517.2237514819      1.32e-06  
 Alpha HF Exchange    Energy =  -4.42547433946715
 Beta HF Exchange     Energy =  -4.24306041829722
 DFT Correlation      Energy =  -1.85727835677004
 DFT Exchange         Energy = -34.35095019079792
 One-Electron (alpha) Energy = -482.51439912643468
 One-Electron (beta)  Energy = -460.98298674882068
 Total Coulomb        Energy = 352.53361122373917
   13    -517.2237514599      1.32e-06  
 Alpha HF Exchange    Energy =  -4.42547440201212
 Beta HF Exchange     Energy =  -4.24306224249662
 DFT Correlation      Energy =  -1.85727819476964
 DFT Exchange         Energy = -34.35095736132745
 One-Electron (alpha) Energy = -482.51436130556402
 One-Electron (beta)  Energy = -460.98410239308402
 Total Coulomb        Energy = 352.53470253964861
   14    -517.2237468626      1.31e-06  
 Alpha HF Exchange    Energy =  -4.42547363671175
 Beta HF Exchange     Energy =  -4.24306497210258
 DFT Correlation      Energy =  -1.85727785570883
 DFT Exchange         Energy = -34.35096471835423
 One-Electron (alpha) Energy = -482.51427682079952
 One-Electron (beta)  Energy = -460.98504616312385
 Total Coulomb        Energy = 352.53557425606959
   15    -517.2237434138      1.57e-06  
 Alpha HF Exchange    Energy =  -4.42547337634975
 Beta HF Exchange     Energy =  -4.24308762246707
 DFT Correlation      Energy =  -1.85727621471187
 DFT Exchange         Energy = -34.35104965242220
 One-Electron (alpha) Energy = -482.51411312986363
 One-Electron (beta)  Energy = -460.98812406579384
 Total Coulomb        Energy = 352.53860190410506
   16    -517.2237356605      6.26e-06  
 Alpha HF Exchange    Energy =  -4.42547284998512
 Beta HF Exchange     Energy =  -4.24312711276822
 DFT Correlation      Energy =  -1.85727376717400
 DFT Exchange         Energy = -34.35119871914006
 One-Electron (alpha) Energy = -482.51384099202050
 One-Electron (beta)  Energy = -460.99305055425043
 Total Coulomb        Energy = 352.54345338054395
   17    -517.2237241178      1.47e-05  
 Alpha HF Exchange    Energy =  -4.42547258222133
 Beta HF Exchange     Energy =  -4.24313385081417
 DFT Correlation      Energy =  -1.85727324994233
 DFT Exchange         Energy = -34.35122331431061
 One-Electron (alpha) Energy = -482.51378785382815
 One-Electron (beta)  Energy = -460.99370826900076
 Total Coulomb        Energy = 352.54408988468640
   18    -517.2237227385      1.62e-05  
 Alpha HF Exchange    Energy =  -4.42547254947045
 Beta HF Exchange     Energy =  -4.24312539057549
 DFT Correlation      Energy =  -1.85727394929918
 DFT Exchange         Energy = -34.35119149998335
 One-Electron (alpha) Energy = -482.51381512494822
 One-Electron (beta)  Energy = -460.99328048624932
 Total Coulomb        Energy = 352.54364935181809
   19    -517.2237231517      1.42e-05  
 Alpha HF Exchange    Energy =  -4.42546997086664
 Beta HF Exchange     Energy =  -4.24313557342358
 DFT Correlation      Energy =  -1.85727185134554
 DFT Exchange         Energy = -34.35121987358731
 One-Electron (alpha) Energy = -482.51355119213832
 One-Electron (beta)  Energy = -460.99539998784360
 Total Coulomb        Energy = 352.54554445399799
   20    -517.2237174982      1.69e-05  
 Alpha HF Exchange    Energy =  -4.42547049216964
 Beta HF Exchange     Energy =  -4.24318909778868
 DFT Correlation      Energy =  -1.85726845384555
 DFT Exchange         Energy = -34.35142758652788
 One-Electron (alpha) Energy = -482.51328402451742
 One-Electron (beta)  Energy = -461.00050596098396
 Total Coulomb        Energy = 352.55065184735770
   21    -517.2237072715      2.86e-05  
 Alpha HF Exchange    Energy =  -4.42546963248489
 Beta HF Exchange     Energy =  -4.24319644020759
 DFT Correlation      Energy =  -1.85726753975383
 DFT Exchange         Energy = -34.35145167848756
 One-Electron (alpha) Energy = -482.51319444694809
 One-Electron (beta)  Energy = -461.00096652939402
 Total Coulomb        Energy = 352.55105363008136
   22    -517.2237061402      3.04e-05  
 Alpha HF Exchange    Energy =  -4.42546961441271
 Beta HF Exchange     Energy =  -4.24319797253219
 DFT Correlation      Energy =  -1.85726737174929
 DFT Exchange         Energy = -34.35145760972777
 One-Electron (alpha) Energy = -482.51317923578506
 One-Electron (beta)  Energy = -461.00120851236750
 Total Coulomb        Energy = 352.55128816413094
   23    -517.2237056555      3.08e-05  
 Alpha HF Exchange    Energy =  -4.42546993039540
 Beta HF Exchange     Energy =  -4.24320641994710
 DFT Correlation      Energy =  -1.85726686739675
 DFT Exchange         Energy = -34.35149096408504
 One-Electron (alpha) Energy = -482.51315618504287
 One-Electron (beta)  Energy = -461.00174919870864
 Total Coulomb        Energy = 352.55184867964203
   24    -517.2237043890      3.27e-05  
 Alpha HF Exchange    Energy =  -4.42546994124614
 Beta HF Exchange     Energy =  -4.24321545211859
 DFT Correlation      Energy =  -1.85726623666131
 DFT Exchange         Energy = -34.35152520428552
 One-Electron (alpha) Energy = -482.51312394076115
 One-Electron (beta)  Energy = -461.00224826247324
 Total Coulomb        Energy = 352.55235946810154
   25    -517.2237030725      3.47e-05  
 Alpha HF Exchange    Energy =  -4.42546997296312
 Beta HF Exchange     Energy =  -4.24316856657501
 DFT Correlation      Energy =  -1.85726928039225
 DFT Exchange         Energy = -34.35134831946081
 One-Electron (alpha) Energy = -482.51327643744509
 One-Electron (beta)  Energy = -460.99995847284714
 Total Coulomb        Energy = 352.54999597774554
   26    -517.2237085750      2.42e-05  
 Alpha HF Exchange    Energy =  -4.42547005596969
 Beta HF Exchange     Energy =  -4.24313229132782
 DFT Correlation      Energy =  -1.85727150927957
 DFT Exchange         Energy = -34.35121193211000
 One-Electron (alpha) Energy = -482.51338595328662
 One-Electron (beta)  Energy = -460.99834681406975
 Total Coulomb        Energy = 352.54832073608964
   27    -517.2237113230      1.61e-05  
 Alpha HF Exchange    Energy =  -4.42547033598390
 Beta HF Exchange     Energy =  -4.24309765983570
 DFT Correlation      Energy =  -1.85727363513621
 DFT Exchange         Energy = -34.35108217973338
 One-Electron (alpha) Energy = -482.51351970004220
 One-Electron (beta)  Energy = -460.99655268453006
 Total Coulomb        Energy = 352.54649662638849
   28    -517.2237130719      8.43e-06  
 Alpha HF Exchange    Energy =  -4.42547090545000
 Beta HF Exchange     Energy =  -4.24304457371711
 DFT Correlation      Energy =  -1.85727671330661
 DFT Exchange         Energy = -34.35088385320275
 One-Electron (alpha) Energy = -482.51371978027220
 One-Electron (beta)  Energy = -460.99380198391930
 Total Coulomb        Energy = 352.54369770676345
   29    -517.2237136061      3.34e-06  
 Alpha HF Exchange    Energy =  -4.42547105466151
 Beta HF Exchange     Energy =  -4.24306190214440
 DFT Correlation      Energy =  -1.85727570558767
 DFT Exchange         Energy = -34.35094995034464
 One-Electron (alpha) Energy = -482.51367522823733
 One-Electron (beta)  Energy = -460.99473663516852
 Total Coulomb        Energy = 352.54467026927671
   30    -517.2237137099      5.24e-07  Convergence criterion met
 ---------------------------------------
 SCF time:   CPU 63.41s  wall 5.00s 
<S^2> =          2.006245392
 Alpha HF Exchange    Energy =  -4.42547105466151
 Beta HF Exchange     Energy =  -4.24306190214440
 DFT Correlation      Energy =  -1.85727570558767
 DFT Exchange         Energy = -34.35094995034464
 One-Electron (alpha) Energy = -482.51367522823733
 One-Electron (beta)  Energy = -460.99473663516852
 Total Coulomb        Energy = 352.54467026927671
 Nuclear repulsion Energy = 118.61678649696096
 SCF   energy in the final basis set =     -517.2237137099
 Total energy in the final basis set =     -517.2237137099
 
 --------------------------------------------------------------
 
                    Orbital Energies (a.u.)
 --------------------------------------------------------------
 
 Alpha MOs
 -- Occupied --
-88.910 -10.187 -10.185 -10.175  -7.971  -5.942  -5.932  -5.923
 -0.773  -0.737  -0.669  -0.576  -0.458  -0.423  -0.412  -0.391
 -0.374  -0.344  -0.331  -0.320  -0.272  -0.198
 -- Virtual --
  0.033   0.105   0.138   0.146   0.160   0.177   0.180   0.220
  0.231   0.270   0.273   0.327   0.333   0.360   0.516   0.533
  0.536   0.550   0.594   0.597   0.650   0.689   0.694   0.697
  0.728   0.738   0.744   0.786   0.809   0.861   0.877   0.884
  0.908   0.938   0.958   0.999   1.086   1.205   1.313   1.425
  1.480   1.529   1.598   1.687   1.814   1.862   1.950   1.963
  1.995   2.054   2.058   2.067   2.071   2.121   2.128   2.221
  2.257   2.294   2.370   2.429   2.453   2.513   2.567   2.670
  2.700   2.702   2.739   2.798   2.846   2.886   2.916   3.184
  3.251   3.351   3.375   3.464   3.465   3.551   3.920   4.230
  4.429   4.605
 
 Beta MOs
 -- Occupied --
-88.904 -10.186 -10.174 -10.173  -7.966  -5.929  -5.925  -5.920
 -0.764  -0.697  -0.650  -0.562  -0.454  -0.418  -0.398  -0.385
 -0.363  -0.339  -0.329  -0.257
 -- Virtual --
 -0.177  -0.038   0.044   0.109   0.148   0.151   0.162   0.181
  0.182   0.224   0.236   0.278   0.286   0.334   0.366   0.372
  0.521   0.537   0.554   0.562   0.597   0.630   0.665   0.707
  0.713   0.736   0.744   0.790   0.792   0.798   0.817   0.864
  0.879   0.887   0.916   0.943   0.969   1.002   1.096   1.215
  1.322   1.452   1.485   1.547   1.619   1.688   1.824   1.867
  1.954   1.990   2.034   2.054   2.061   2.064   2.072   2.127
  2.129   2.223   2.268   2.295   2.376   2.434   2.464   2.522
  2.592   2.676   2.702   2.703   2.742   2.800   2.848   2.888
  2.919   3.185   3.255   3.355   3.376   3.467   3.470   3.553
  3.938   4.249   4.445   4.607
 --------------------------------------------------------------
 
          Ground-State Mulliken Net Atomic Charges

     Atom                 Charge (a.u.)    Spin (a.u.)
  --------------------------------------------------------
      1 S                    -0.073279       1.027603
      2 C                    -0.188663      -0.073399
      3 C                    -0.218428       1.085024
      4 C                    -0.308072       0.047339
      5 H                     0.105025       0.014226
      6 H                     0.099171       0.010491
      7 H                     0.101675      -0.047459
      8 H                     0.099137      -0.047649
      9 H                     0.104939      -0.000629
     10 H                     0.100615       0.012104
     11 H                     0.104621      -0.000273
     12 H                     0.073258      -0.027377
  --------------------------------------------------------
  Sum of atomic charges =    -0.000000
  Sum of spin   charges =     2.000000

 -----------------------------------------------------------------
                    Cartesian Multipole Moments
 -----------------------------------------------------------------
    Charge (ESU x 10^10)
                -0.0000
    Dipole Moment (Debye)
         X      -0.4738      Y       0.3129      Z      -0.9470
       Tot       1.1042
    Quadrupole Moments (Debye-Ang)
        XX     -38.6485     XY      -0.7361     YY     -33.4231
        XZ      -3.9694     YZ      -1.1812     ZZ     -31.5846
    Octopole Moments (Debye-Ang^2)
       XXX    -139.6396    XXY     -17.8654    XYY     -33.6592
       YYY     -25.7650    XXZ     -14.0147    XYZ      -4.9315
       YYZ       0.6158    XZZ     -26.7668    YZZ      -8.0198
       ZZZ       5.0801
    Hexadecapole Moments (Debye-Ang^3)
      XXXX   -2425.7786   XXXY    -302.7222   XXYY    -400.6073
      XYYY    -209.6082   YYYY    -204.0234   XXXZ     -12.5948
      XXYZ     -14.3935   XYYZ      10.2396   YYYZ       9.2988
      XXZZ    -329.6348   XYZZ     -59.1219   YYZZ     -40.5408
      XZZZ      40.8490   YZZZ       8.1384   ZZZZ     -65.9990
 -----------------------------------------------------------------
 Calculating analytic gradient of the SCF energy
 Gradient of SCF Energy
            1           2           3           4           5           6
    1  -0.0002247  -0.0044152   0.0080058  -0.0010671  -0.0025291  -0.0017507
    2   0.0000496   0.0085750  -0.0049120   0.0028085  -0.0022418   0.0006525
    3  -0.0002002   0.0040352   0.0009805   0.0000864  -0.0012600  -0.0024019
            7           8           9          10          11          12
    1   0.0006423   0.0010220   0.0003073  -0.0004627   0.0003337   0.0001384
    2  -0.0019698  -0.0031513   0.0001712  -0.0000810   0.0001470  -0.0000481
    3   0.0039282  -0.0052694   0.0000107   0.0000366  -0.0000988   0.0001526
 Max gradient component =       8.575E-03
 RMS gradient           =       2.833E-03
 Gradient time:  CPU 7.44 s  wall 0.67 s
 Geometry Optimization Parameters
   NAtoms,    NIC,     NZ,  NCons,   NDum,   NFix, NCnnct, MaxDiis
       12     331       0       1       0       0       0       0

 Cartesian Hessian Update
 Hessian Updated using BFGS Update


** CONSTRAINED OPTIMIZATION IN DELOCALIZED INTERNAL COORDINATES **
   Searching for a Minimum

   Optimization Cycle:   2

                       Coordinates (Angstroms)
     ATOM                X               Y               Z
      1  S         4.6167913692    1.1003339911   -0.1691853779
      2  C        -1.0683226600    0.2359413505   -0.0113888897
      3  C        -0.1519433339   -0.9722928419   -0.0231522123
      4  C        -2.5729422038   -0.0952902923    0.1312640637
      5  H        -0.7976125007    0.8946155021    0.8179255643
      6  H        -0.9413657698    0.8097652568   -0.9422283994
      7  H         0.1263364322   -1.4600107865    0.9135253653
      8  H         0.0536075504   -1.5096566365   -0.9544297582
      9  H        -2.7700289232   -0.6328834777    1.0642540820
     10  H        -3.1732633918    0.8213897959    0.1346491596
     11  H        -2.9171839888   -0.7232075398   -0.6966121425
     12  H         4.3085324201    1.4350966785   -1.4416144549
   Point Group: c1    Number of degrees of freedom:    30


   Energy is   -517.223713710

              Constraints and their Current Values
                                        Value     Constraint
   Distance(Angs):        1   3             5.201725     5.200000
 Hessian Updated using BFGS Update

   Using Lagrange Multiplier Algorithm


 31 Hessian modes will be used to form the next step
  Hessian Eigenvalues:
    -0.986010    0.020572    0.040749    0.045338    0.045688    0.047316
     0.050106    0.052373    0.053482    0.055427    0.058041    0.060335
     0.062591    0.062718    0.082103    0.115519    0.135546    0.157119
     0.159094    0.159421    0.194336    0.211668    0.220355    0.224261
     0.235252    0.277146    0.341473    0.342791    0.342887    0.385751
     1.019347

 Minimum Search - Taking P-RFO Step
 Searching for Lamda that Maximizes Along the Constraint modes Only
 Value Taken    Lamda =   0.00003221
 Searching for Lamda that Minimizes Along All other modes
 Value Taken    Lamda =  -0.00046945
 Step Taken.  Stepsize is  0.053374

                             Maximum     Tolerance    Cnvgd?
         Gradient            0.009748       0.000300      NO
         Displacement        0.025926       0.001200      NO
         Energy change      0.000573       0.000001      NO


 New Cartesian Coordinates Obtained by Inverse Iteration

 Displacement from previous Coordinates is:  0.045373
 ----------------------------------------------------------------
             Standard Nuclear Orientation (Angstroms)
    I     Atom           X                Y                Z
 ----------------------------------------------------------------
    1      S       4.6118649288     1.0985276859    -0.1684144980
    2      C      -1.0647788501     0.2347383555    -0.0123362481
    3      C      -0.1581849958    -0.9668026448    -0.0233697530
    4      C      -2.5685338330    -0.0987754458     0.1306907783
    5      H      -0.7913319237     0.8951435499     0.8176083039
    6      H      -0.9360093834     0.8083206996    -0.9409607825
    7      H       0.1184911387    -1.4536872833     0.9103069245
    8      H       0.0451930341    -1.5025462034    -0.9503436110
    9      H      -2.7665611274    -0.6365385281     1.0635513285
   10      H      -3.1676242868     0.8185017304     0.1338378604
   11      H      -2.9142090107    -0.7271242583    -0.6964231973
   12      H       4.3042893094     1.4340433425    -1.4411401059
 ----------------------------------------------------------------
 Nuclear Repulsion Energy =   118.8637538510 hartrees
 There are       22 alpha and       20 beta electrons

                       Distance Matrix (Angstroms)
             S (  1)   C (  2)   C (  3)   C (  4)   H (  5)   H (  6)
   C (  2)  5.744108
   C (  3)  5.200000  1.505236
   C (  4)  7.285679  1.546922  2.566513
   H (  5)  5.496193  1.095316  2.138916  2.148994
   H (  6)  5.608918  1.099055  2.144306  2.153229  1.766645
   H (  7)  5.279001  2.258800  1.088742  3.108648  2.520591  3.107385
   H (  8)  5.313331  2.264962  1.089800  3.157654  3.094244  2.510568
   H (  9)  7.679151  2.193791  2.845013  1.094821  2.511587  3.075160
   H ( 10)  7.790393  2.187260  3.502678  1.095590  2.473900  2.476974
   H ( 11)  7.762318  2.193980  2.847124  1.094729  3.070937  2.516081
   H ( 12)  1.351667  5.683899  5.261921  7.214976  5.599796  5.301173
             H (  7)   H (  8)   H (  9)   H ( 10)   H ( 11)
   H (  8)  1.862735
   H (  9)  3.002456  3.565348
   H ( 10)  4.069926  4.109125  1.772671
   H ( 11)  3.508097  3.069823  1.768478  1.772713
   H ( 12)  5.602606  5.196570  7.781884  7.660871  7.571788
 
 Applying Cartesian multipole field
    Component          Value
    ---------          -----
     (2,0,0)        1.00000E-11
     (0,2,0)        2.00000E-11
     (0,0,2)       -3.00000E-10
 Nucleus-field energy     =     0.0000000099 hartrees
 Requested basis set is 6-31G(d,p)
 There are 41 shells and 104 basis functions
 A cutoff of  1.0D-14 yielded    730 shell pairs
 There are      4596 function pairs
 Smallest overlap matrix eigenvalue = 6.50E-03
 Guess from superposition of atomic densities
 Warning:  Energy on first SCF cycle will be non-variational
 SAD guess density has 42.000000 electrons

 -----------------------------------------------------------------------
  General SCF calculation program by
  Eric Jon Sundstrom, Paul Horn, Yuezhi Mao, Dmitri Zuev, Alec White,
  David Stuck, Shaama M.S., Shane Yost, Joonho Lee, David Small,
  Daniel Levine, Susi Lehtola, Hugh Burton, Evgeny Epifanovsky
 -----------------------------------------------------------------------
 Exchange:     0.2000 Hartree-Fock + 0.0800 Slater + 0.7200 B88
 Correlation:  0.1900 VWN1RPA + 0.8100 LYP
 Using SG-1 standard quadrature grid
 using 12 threads for integral computing
 -------------------------------------------------------
 OpenMP Integral computing Module                
 Release: version 1.0, May 2013, Q-Chem Inc. Pittsburgh 
 -------------------------------------------------------
 -------------------------------------------------------
 OpenMP BLAS3 based DFT computing Module                
 Release: version 1.0, May 2013, Q-Chem Inc. Pittsburgh 
 -------------------------------------------------------
 A unrestricted SCF calculation will be
 performed using DIIS
 SCF converges when DIIS error is below 1.0e-06
 Alpha HF Exchange    Energy =  -4.31537840205092
 Beta HF Exchange     Energy =  -4.31537840205092
 DFT Correlation      Energy =  -1.85280956053073
 DFT Exchange         Energy = -33.93825814319570
 One-Electron (alpha) Energy = -470.19039072864371
 One-Electron (beta)  Energy = -470.19039072864371
 Total Coulomb        Energy = 348.53780013936353
 ---------------------------------------
  Cycle       Energy         DIIS error
 ---------------------------------------
    1    -517.4010519649      2.78e-02  
 Alpha HF Exchange    Energy =  -4.45250930653955
 Beta HF Exchange     Energy =  -4.27037251036282
 DFT Correlation      Energy =  -1.87278406963990
 DFT Exchange         Energy = -34.58324757336372
 One-Electron (alpha) Energy = -484.20925367414543
 One-Electron (beta)  Energy = -462.93699012049058
 Total Coulomb        Energy = 356.31878840813806
    2    -517.1426149855      3.60e-03  
 Alpha HF Exchange    Energy =  -4.39636052127821
 Beta HF Exchange     Energy =  -4.21912568989828
 DFT Correlation      Energy =  -1.84492947337326
 DFT Exchange         Energy = -34.13096350695373
 One-Electron (alpha) Energy = -480.90741143415653
 One-Electron (beta)  Energy = -459.65783968070048
 Total Coulomb        Energy = 349.15484331589028
    3    -517.1380331296      3.82e-03  
 Alpha HF Exchange    Energy =  -4.42505307400000
 Beta HF Exchange     Energy =  -4.24399541525634
 DFT Correlation      Energy =  -1.85811189684859
 DFT Exchange         Energy = -34.35337623004985
 One-Electron (alpha) Energy = -482.72463107167761
 One-Electron (beta)  Energy = -461.27180200766941
 Total Coulomb        Energy = 352.78959764556885
    4    -517.2236181891      2.72e-04  
 Alpha HF Exchange    Energy =  -4.42642136417424
 Beta HF Exchange     Energy =  -4.24398945760817
 DFT Correlation      Energy =  -1.85804662776217
 DFT Exchange         Energy = -34.35820014710871
 One-Electron (alpha) Energy = -482.76725664135978
 One-Electron (beta)  Energy = -461.24621385675670
 Total Coulomb        Energy = 352.81241422464012
    5    -517.2239600093      1.46e-04  
 Alpha HF Exchange    Energy =  -4.42610085663775
 Beta HF Exchange     Energy =  -4.24385257705221
 DFT Correlation      Energy =  -1.85782069025442
 DFT Exchange         Energy = -34.35615227864098
 One-Electron (alpha) Energy = -482.75788453573347
 One-Electron (beta)  Energy = -461.22388359632225
 Total Coulomb        Energy = 352.77785785179492
    6    -517.2240828220      3.70e-05  
 Alpha HF Exchange    Energy =  -4.42622451985117
 Beta HF Exchange     Energy =  -4.24377251959105
 DFT Correlation      Energy =  -1.85779325937728
 DFT Exchange         Energy = -34.35626606292637
 One-Electron (alpha) Energy = -482.76442656427332
 One-Electron (beta)  Energy = -461.21797387926347
 Total Coulomb        Energy = 352.77861066430347
    7    -517.2240922801      9.06e-06  
 Alpha HF Exchange    Energy =  -4.42628567621555
 Beta HF Exchange     Energy =  -4.24377484609725
 DFT Correlation      Energy =  -1.85778391023913
 DFT Exchange         Energy = -34.35648519238558
 One-Electron (alpha) Energy = -482.76870487631197
 One-Electron (beta)  Energy = -461.21688720982308
 Total Coulomb        Energy = 352.78207453127584
    8    -517.2240933189      3.96e-06  
 Alpha HF Exchange    Energy =  -4.42628178148166
 Beta HF Exchange     Energy =  -4.24375742260791
 DFT Correlation      Energy =  -1.85777612595410
 DFT Exchange         Energy = -34.35640109783329
 One-Electron (alpha) Energy = -482.76815311104951
 One-Electron (beta)  Energy = -461.21529943527412
 Total Coulomb        Energy = 352.77982148692746
    9    -517.2240936264      1.79e-06  
 Alpha HF Exchange    Energy =  -4.42628415245090
 Beta HF Exchange     Energy =  -4.24375710122431
 DFT Correlation      Energy =  -1.85777589040159
 DFT Exchange         Energy = -34.35640919650685
 One-Electron (alpha) Energy = -482.76830600601102
 One-Electron (beta)  Energy = -461.21519994755590
 Total Coulomb        Energy = 352.77988461046544
   10    -517.2240938228      1.35e-06  
 Alpha HF Exchange    Energy =  -4.42628600590539
 Beta HF Exchange     Energy =  -4.24375778219115
 DFT Correlation      Energy =  -1.85777640271777
 DFT Exchange         Energy = -34.35641972145331
 One-Electron (alpha) Energy = -482.76846255248716
 One-Electron (beta)  Energy = -461.21524854000666
 Total Coulomb        Energy = 352.78010313507201
   11    -517.2240940088      1.27e-06  
 Alpha HF Exchange    Energy =  -4.42628555055198
 Beta HF Exchange     Energy =  -4.24375744542773
 DFT Correlation      Energy =  -1.85777625797466
 DFT Exchange         Energy = -34.35641667766546
 One-Electron (alpha) Energy = -482.76842476009051
 One-Electron (beta)  Energy = -461.21518428218440
 Total Coulomb        Energy = 352.77999695358642
   12    -517.2240941594      1.27e-06  
 Alpha HF Exchange    Energy =  -4.42628554751923
 Beta HF Exchange     Energy =  -4.24375744150626
 DFT Correlation      Energy =  -1.85777625641603
 DFT Exchange         Energy = -34.35641664934420
 One-Electron (alpha) Energy = -482.76842447219042
 One-Electron (beta)  Energy = -461.21518603752611
 Total Coulomb        Energy = 352.77999839332318
   13    -517.2240941503      1.26e-06  
 Alpha HF Exchange    Energy =  -4.42628561540248
 Beta HF Exchange     Energy =  -4.24375898120463
 DFT Correlation      Energy =  -1.85777611969077
 DFT Exchange         Energy = -34.35642280107025
 One-Electron (alpha) Energy = -482.76839040324302
 One-Electron (beta)  Energy = -461.21619615264188
 Total Coulomb        Energy = 352.78098610302084
   14    -517.2240901094      1.24e-06  
 Alpha HF Exchange    Energy =  -4.42628480409322
 Beta HF Exchange     Energy =  -4.24376200548810
 DFT Correlation      Energy =  -1.85777574919812
 DFT Exchange         Energy = -34.35643113395281
 One-Electron (alpha) Energy = -482.76829882904354
 One-Electron (beta)  Energy = -461.21724281231548
 Total Coulomb        Energy = 352.78195504118275
   15    -517.2240864320      1.52e-06  
 Alpha HF Exchange    Energy =  -4.42628463874490
 Beta HF Exchange     Energy =  -4.24378362312913
 DFT Correlation      Energy =  -1.85777420556155
 DFT Exchange         Energy = -34.35651262286460
 One-Electron (alpha) Energy = -482.76814618930467
 One-Electron (beta)  Energy = -461.22020524727219
 Total Coulomb        Energy = 352.78487341048481
   16    -517.2240792555      6.01e-06  
 Alpha HF Exchange    Energy =  -4.42628417916608
 Beta HF Exchange     Energy =  -4.24381746227329
 DFT Correlation      Energy =  -1.85777211511002
 DFT Exchange         Energy = -34.35664041227918
 One-Electron (alpha) Energy = -482.76791194699746
 One-Electron (beta)  Energy = -461.22450908603707
 Total Coulomb        Energy = 352.78911179447516
   17    -517.2240695465      1.32e-05  
 Alpha HF Exchange    Energy =  -4.42628378792881
 Beta HF Exchange     Energy =  -4.24382907026916
 DFT Correlation      Energy =  -1.85777125205281
 DFT Exchange         Energy = -34.35668310944111
 One-Electron (alpha) Energy = -482.76782428493794
 One-Electron (beta)  Energy = -461.22566208137437
 Total Coulomb        Energy = 352.79023249296887
   18    -517.2240672322      1.58e-05  
 Alpha HF Exchange    Energy =  -4.42628392567421
 Beta HF Exchange     Energy =  -4.24382051438302
 DFT Correlation      Energy =  -1.85777202094186
 DFT Exchange         Energy = -34.35665157850974
 One-Electron (alpha) Energy = -482.76786672923686
 One-Electron (beta)  Energy = -461.22513648632884
 Total Coulomb        Energy = 352.78970945373288
   19    -517.2240679405      1.38e-05  
 Alpha HF Exchange    Energy =  -4.42628162183220
 Beta HF Exchange     Energy =  -4.24382643095732
 DFT Correlation      Energy =  -1.85777039475792
 DFT Exchange         Energy = -34.35666479611079
 One-Electron (alpha) Energy = -482.76765122797525
 One-Electron (beta)  Energy = -461.22669376868515
 Total Coulomb        Energy = 352.79107060625216
   20    -517.2240637732      1.55e-05  
 Alpha HF Exchange    Energy =  -4.42628218034467
 Beta HF Exchange     Energy =  -4.24387310133464
 DFT Correlation      Energy =  -1.85776744750604
 DFT Exchange         Energy = -34.35684654375044
 One-Electron (alpha) Energy = -482.76741640415719
 One-Electron (beta)  Energy = -461.23141757744548
 Total Coulomb        Energy = 352.79579461280474
   21    -517.2240547809      2.57e-05  
 Alpha HF Exchange    Energy =  -4.42628112551532
 Beta HF Exchange     Energy =  -4.24388623739821
 DFT Correlation      Energy =  -1.85776604745783
 DFT Exchange         Energy = -34.35689191352142
 One-Electron (alpha) Energy = -482.76728369107036
 One-Electron (beta)  Energy = -461.23233506243764
 Total Coulomb        Energy = 352.79663740971438
   22    -517.2240528068      2.88e-05  
 Alpha HF Exchange    Energy =  -4.42628125865566
 Beta HF Exchange     Energy =  -4.24388633212740
 DFT Correlation      Energy =  -1.85776599976424
 DFT Exchange         Energy = -34.35689297217040
 One-Electron (alpha) Energy = -482.76728217751531
 One-Electron (beta)  Energy = -461.23248319043677
 Total Coulomb        Energy = 352.79678551176323
   23    -517.2240525580      2.89e-05  
 Alpha HF Exchange    Energy =  -4.42628124718127
 Beta HF Exchange     Energy =  -4.24388621074329
 DFT Correlation      Energy =  -1.85776600805649
 DFT Exchange         Energy = -34.35689247142323
 One-Electron (alpha) Energy = -482.76728188134888
 One-Electron (beta)  Energy = -461.23247716596541
 Total Coulomb        Energy = 352.79677855180580
   24    -517.2240525720      2.89e-05  
 Alpha HF Exchange    Energy =  -4.42628131985328
 Beta HF Exchange     Energy =  -4.24388214006020
 DFT Correlation      Energy =  -1.85776631946578
 DFT Exchange         Energy = -34.35687757712753
 One-Electron (alpha) Energy = -482.76729533572666
 One-Electron (beta)  Energy = -461.23238395111190
 Total Coulomb        Energy = 352.79667988553302
   25    -517.2240528969      2.79e-05  
 Alpha HF Exchange    Energy =  -4.42628114022886
 Beta HF Exchange     Energy =  -4.24387225128300
 DFT Correlation      Energy =  -1.85776701681403
 DFT Exchange         Energy = -34.35683949851389
 One-Electron (alpha) Energy = -482.76732044379298
 One-Electron (beta)  Energy = -461.23182780771526
 Total Coulomb        Energy = 352.79610023766338
   26    -517.2240540598      2.57e-05  
 Alpha HF Exchange    Energy =  -4.42628086912755
 Beta HF Exchange     Energy =  -4.24386405310240
 DFT Correlation      Energy =  -1.85776750940330
 DFT Exchange         Energy = -34.35680735678342
 One-Electron (alpha) Energy = -482.76732643250023
 One-Electron (beta)  Energy = -461.23135284782154
 Total Coulomb        Energy = 352.79559026025248
   27    -517.2240549476      2.39e-05  
 Alpha HF Exchange    Energy =  -4.42628114150579
 Beta HF Exchange     Energy =  -4.24385306286109
 DFT Correlation      Energy =  -1.85776817543649
 DFT Exchange         Energy = -34.35676711705126
 One-Electron (alpha) Energy = -482.76737717208897
 One-Electron (beta)  Energy = -461.23100696030394
 Total Coulomb        Energy = 352.79524407497877
   28    -517.2240556934      2.14e-05  
 Alpha HF Exchange    Energy =  -4.42628143442837
 Beta HF Exchange     Energy =  -4.24380959455381
 DFT Correlation      Energy =  -1.85777078014049
 DFT Exchange         Energy = -34.35660413449396
 One-Electron (alpha) Energy = -482.76752310532612
 One-Electron (beta)  Energy = -461.22889530014510
 Total Coulomb        Energy = 352.79307199664805
   29    -517.2240584916      1.17e-05  
 Alpha HF Exchange    Energy =  -4.42628194924568
 Beta HF Exchange     Energy =  -4.24377013859263
 DFT Correlation      Energy =  -1.85777306248881
 DFT Exchange         Energy = -34.35645740454569
 One-Electron (alpha) Energy = -482.76767343169257
 One-Electron (beta)  Energy = -461.22702673627384
 Total Coulomb        Energy = 352.79116926699083
   30    -517.2240595950      2.99e-06  
 Alpha HF Exchange    Energy =  -4.42628229430338
 Beta HF Exchange     Energy =  -4.24375924418034
 DFT Correlation      Energy =  -1.85777374467612
 DFT Exchange         Energy = -34.35641761015896
 One-Electron (alpha) Energy = -482.76773086481580
 One-Electron (beta)  Energy = -461.22644023161376
 Total Coulomb        Energy = 352.79059045193912
   31    -517.2240596769      5.95e-07  Convergence criterion met
 ---------------------------------------
 SCF time:   CPU 65.86s  wall 6.00s 
<S^2> =          2.006191172
 Alpha HF Exchange    Energy =  -4.42628229430338
 Beta HF Exchange     Energy =  -4.24375924418034
 DFT Correlation      Energy =  -1.85777374467612
 DFT Exchange         Energy = -34.35641761015896
 One-Electron (alpha) Energy = -482.76773086481580
 One-Electron (beta)  Energy = -461.22644023161376
 Total Coulomb        Energy = 352.79059045193912
 Nuclear repulsion Energy = 118.86375386086397
 SCF   energy in the final basis set =     -517.2240596769
 Total energy in the final basis set =     -517.2240596769
 
 --------------------------------------------------------------
 
                    Orbital Energies (a.u.)
 --------------------------------------------------------------
 
 Alpha MOs
 -- Occupied --
-88.910 -10.185 -10.184 -10.175  -7.971  -5.942  -5.932  -5.923
 -0.775  -0.737  -0.670  -0.576  -0.459  -0.423  -0.412  -0.391
 -0.375  -0.345  -0.331  -0.320  -0.272  -0.197
 -- Virtual --
  0.033   0.105   0.140   0.146   0.160   0.178   0.180   0.221
  0.232   0.273   0.274   0.327   0.333   0.360   0.515   0.534
  0.536   0.549   0.594   0.597   0.654   0.689   0.694   0.697
  0.728   0.738   0.744   0.786   0.812   0.861   0.878   0.884
  0.910   0.938   0.959   1.001   1.086   1.208   1.312   1.426
  1.481   1.531   1.599   1.686   1.820   1.866   1.953   1.968
  2.001   2.054   2.058   2.067   2.071   2.122   2.127   2.224
  2.258   2.294   2.371   2.433   2.454   2.517   2.573   2.673
  2.699   2.708   2.741   2.802   2.851   2.886   2.919   3.185
  3.256   3.356   3.377   3.466   3.473   3.553   3.920   4.234
  4.430   4.606
 
 Beta MOs
 -- Occupied --
-88.904 -10.185 -10.174 -10.171  -7.966  -5.929  -5.925  -5.920
 -0.765  -0.697  -0.651  -0.563  -0.454  -0.418  -0.398  -0.385
 -0.364  -0.340  -0.328  -0.257
 -- Virtual --
 -0.177  -0.038   0.043   0.109   0.148   0.153   0.162   0.181
  0.182   0.225   0.237   0.282   0.286   0.334   0.366   0.372
  0.520   0.538   0.553   0.564   0.599   0.632   0.667   0.707
  0.713   0.736   0.744   0.790   0.792   0.798   0.819   0.864
  0.880   0.887   0.917   0.944   0.971   1.003   1.096   1.219
  1.321   1.453   1.486   1.549   1.621   1.686   1.829   1.871
  1.957   1.995   2.039   2.054   2.061   2.064   2.072   2.126
  2.130   2.225   2.269   2.295   2.377   2.438   2.465   2.526
  2.597   2.679   2.701   2.710   2.744   2.805   2.853   2.887
  2.923   3.186   3.260   3.361   3.378   3.468   3.479   3.555
  3.938   4.253   4.446   4.608
 --------------------------------------------------------------
 
          Ground-State Mulliken Net Atomic Charges

     Atom                 Charge (a.u.)    Spin (a.u.)
  --------------------------------------------------------
      1 S                    -0.073272       1.027615
      2 C                    -0.188707      -0.073565
      3 C                    -0.217360       1.082113
      4 C                    -0.307835       0.048799
      5 H                     0.104314       0.014796
      6 H                     0.099252       0.010766
      7 H                     0.101415      -0.047298
      8 H                     0.099037      -0.047442
      9 H                     0.104911      -0.000669
     10 H                     0.100468       0.012583
     11 H                     0.104527      -0.000309
     12 H                     0.073251      -0.027389
  --------------------------------------------------------
  Sum of atomic charges =    -0.000000
  Sum of spin   charges =     2.000000

 -----------------------------------------------------------------
                    Cartesian Multipole Moments
 -----------------------------------------------------------------
    Charge (ESU x 10^10)
                 0.0000
    Dipole Moment (Debye)
         X      -0.4714      Y       0.3126      Z      -0.9498
       Tot       1.1055
    Quadrupole Moments (Debye-Ang)
        XX     -38.6280     XY      -0.7109     YY     -33.4319
        XZ      -3.9677     YZ      -1.1848     ZZ     -31.5838
    Octopole Moments (Debye-Ang^2)
       XXX    -139.2540    XXY     -17.9479    XYY     -33.6763
       YYY     -25.7671    XXZ     -14.0383    XYZ      -4.9284
       YYZ       0.6134    XZZ     -26.7211    YZZ      -8.0024
       ZZZ       5.0662
    Hexadecapole Moments (Debye-Ang^3)
      XXXX   -2418.9301   XXXY    -302.4239   XXYY    -399.8765
      XYYY    -209.5758   YYYY    -203.2372   XXXZ     -13.0106
      XXYZ     -14.4429   XYYZ      10.1675   YYYZ       9.2573
      XXZZ    -328.8548   XYZZ     -59.0608   YYZZ     -40.4269
      XZZZ      40.6278   YZZZ       8.1006   ZZZZ     -65.8865
 -----------------------------------------------------------------
 Calculating analytic gradient of the SCF energy
 Gradient of SCF Energy
            1           2           3           4           5           6
    1  -0.0001859  -0.0024238   0.0055054  -0.0003389  -0.0016388  -0.0013556
    2   0.0000108   0.0048398  -0.0029736   0.0020355  -0.0015752  -0.0000349
    3  -0.0000493   0.0020797   0.0003128  -0.0000159  -0.0004565  -0.0013257
            7           8           9          10          11          12
    1  -0.0000114   0.0002773   0.0000748  -0.0000718   0.0000691   0.0000997
    2  -0.0008714  -0.0014350   0.0000261  -0.0000389   0.0000264  -0.0000095
    3   0.0020129  -0.0025499   0.0000072  -0.0000074  -0.0000105   0.0000025
 Max gradient component =       5.505E-03
 RMS gradient           =       1.663E-03
 Gradient time:  CPU 7.48 s  wall 0.68 s
 Geometry Optimization Parameters
   NAtoms,    NIC,     NZ,  NCons,   NDum,   NFix, NCnnct, MaxDiis
       12     331       0       1       0       0       0       0

 Cartesian Hessian Update
 Hessian Updated using BFGS Update


** CONSTRAINED OPTIMIZATION IN DELOCALIZED INTERNAL COORDINATES **
   Searching for a Minimum

   Optimization Cycle:   3

                       Coordinates (Angstroms)
     ATOM                X               Y               Z
      1  S         4.6118649288    1.0985276859   -0.1684144980
      2  C        -1.0647788501    0.2347383555   -0.0123362481
      3  C        -0.1581849958   -0.9668026448   -0.0233697530
      4  C        -2.5685338330   -0.0987754458    0.1306907783
      5  H        -0.7913319237    0.8951435499    0.8176083039
      6  H        -0.9360093834    0.8083206996   -0.9409607825
      7  H         0.1184911387   -1.4536872833    0.9103069245
      8  H         0.0451930341   -1.5025462034   -0.9503436110
      9  H        -2.7665611274   -0.6365385281    1.0635513285
     10  H        -3.1676242868    0.8185017304    0.1338378604
     11  H        -2.9142090107   -0.7271242583   -0.6964231973
     12  H         4.3042893094    1.4340433425   -1.4411401059
   Point Group: c1    Number of degrees of freedom:    30


   Energy is   -517.224059677

              Constraints and their Current Values
                                        Value     Constraint
   Distance(Angs):        1   3             5.200000     5.200000
 Hessian Updated using BFGS Update

 29 Hessian modes will be used to form the next step
  Hessian Eigenvalues:
     0.017815    0.040571    0.045331    0.045675    0.047315    0.050094
     0.052232    0.053040    0.055411    0.058054    0.060336    0.061568
     0.062710    0.080761    0.115281    0.127640    0.157283    0.159116
     0.159708    0.174418    0.194386    0.220128    0.220558    0.230480
     0.274497    0.289179    0.341718    0.342854    0.342929

 Minimum Search - Taking Simple RFO Step
 Searching for Lamda that Minimizes Along All modes
 Value Taken    Lamda =  -0.00033776
 Step Taken.  Stepsize is  0.083095

                             Maximum     Tolerance    Cnvgd?
[...]
 One-Electron (beta)  Energy = -461.53390897099490
 Total Coulomb        Energy = 353.11839017487591
    9    -517.2242866515      1.75e-06  
 Alpha HF Exchange    Energy =  -4.42706154081887
 Beta HF Exchange     Energy =  -4.24440743770846
 DFT Correlation      Energy =  -1.85829335140077
 DFT Exchange         Energy = -34.36158770787335
 One-Electron (alpha) Energy = -483.12086270443746
 One-Electron (beta)  Energy = -461.53379341171791
 Total Coulomb        Energy = 353.11841423421174
   10    -517.2242868180      1.26e-06  
 Alpha HF Exchange    Energy =  -4.42706346519860
 Beta HF Exchange     Energy =  -4.24440814619541
 DFT Correlation      Energy =  -1.85829387678393
 DFT Exchange         Energy = -34.36159860206760
 One-Electron (alpha) Energy = -483.12102574708115
 One-Electron (beta)  Energy = -461.53384757833862
 Total Coulomb        Energy = 353.11864533550704
   11    -517.2242869784      1.17e-06  
 Alpha HF Exchange    Energy =  -4.42706299626631
 Beta HF Exchange     Energy =  -4.24440779686825
 DFT Correlation      Energy =  -1.85829372808581
 DFT Exchange         Energy = -34.36159546155142
 One-Electron (alpha) Energy = -483.12098691449245
 One-Electron (beta)  Energy = -461.53378473325722
 Total Coulomb        Energy = 353.11853942072133
   12    -517.2242871081      1.16e-06  
 Alpha HF Exchange    Energy =  -4.42706300343941
 Beta HF Exchange     Energy =  -4.24440780621711
 DFT Correlation      Energy =  -1.85829373169576
 DFT Exchange         Energy = -34.36159552850395
 One-Electron (alpha) Energy = -483.12098757995665
 One-Electron (beta)  Energy = -461.53378109530121
 Total Coulomb        Energy = 353.11853651743115
   13    -517.2242871260      1.16e-06  
 Alpha HF Exchange    Energy =  -4.42706308750068
 Beta HF Exchange     Energy =  -4.24440880983488
 DFT Correlation      Energy =  -1.85829364215383
 DFT Exchange         Energy = -34.36159974156217
 One-Electron (alpha) Energy = -483.12096231289746
 One-Electron (beta)  Energy = -461.53458620766804
 Total Coulomb        Energy = 353.11932461725451
   14    -517.2242840826      1.13e-06  
 Alpha HF Exchange    Energy =  -4.42706218500890
 Beta HF Exchange     Energy =  -4.24441275369273
 DFT Correlation      Energy =  -1.85829318565409
 DFT Exchange         Energy = -34.36161127348784
 One-Electron (alpha) Energy = -483.12085341520094
 One-Electron (beta)  Energy = -461.53592740452996
 Total Coulomb        Energy = 353.12057536422833
   15    -517.2242797516      1.51e-06  
 Alpha HF Exchange    Energy =  -4.42706220787263
 Beta HF Exchange     Energy =  -4.24443253827406
 DFT Correlation      Energy =  -1.85829182204153
 DFT Exchange         Energy = -34.36168667030994
 One-Electron (alpha) Energy = -483.12072335250326
 One-Electron (beta)  Energy = -461.53867398001955
 Total Coulomb        Energy = 353.12329183868684
   16    -517.2242736306      5.66e-06  
 Alpha HF Exchange    Energy =  -4.42706185176426
 Beta HF Exchange     Energy =  -4.24445613503069
 DFT Correlation      Energy =  -1.85829038168506
 DFT Exchange         Energy = -34.36177574504259
 One-Electron (alpha) Energy = -483.12055694553641
 One-Electron (beta)  Energy = -461.54182585726431
 Total Coulomb        Energy = 353.12639480147067
   17    -517.2242670131      1.07e-05  
 Alpha HF Exchange    Energy =  -4.42706112679297
 Beta HF Exchange     Energy =  -4.24447831329493
 DFT Correlation      Energy =  -1.85828875596128
 DFT Exchange         Energy = -34.36185750954454
 One-Electron (alpha) Energy = -483.12038885672501
 One-Electron (beta)  Energy = -461.54411618822974
 Total Coulomb        Energy = 353.12862287604156
   18    -517.2242627728      1.56e-05  
 Alpha HF Exchange    Energy =  -4.42706157250841
 Beta HF Exchange     Energy =  -4.24446752519349
 DFT Correlation      Energy =  -1.85828975953230
 DFT Exchange         Energy = -34.36181859412198
 One-Electron (alpha) Energy = -483.12046810414586
 One-Electron (beta)  Energy = -461.54323106155965
 Total Coulomb        Energy = 353.12776727380060
   19    -517.2242642415      1.31e-05  
 Alpha HF Exchange    Energy =  -4.42705985622784
 Beta HF Exchange     Energy =  -4.24446730481347
 DFT Correlation      Energy =  -1.85828888921418
 DFT Exchange         Energy = -34.36181076716622
 One-Electron (alpha) Energy = -483.12033503070091
 One-Electron (beta)  Energy = -461.54391795744795
 Total Coulomb        Energy = 353.12831245552559
   20    -517.2242622483      1.33e-05  
 Alpha HF Exchange    Energy =  -4.42706025748312
 Beta HF Exchange     Energy =  -4.24450119134203
 DFT Correlation      Energy =  -1.85828672213246
 DFT Exchange         Energy = -34.36194317205278
 One-Electron (alpha) Energy = -483.12014633372661
 One-Electron (beta)  Energy = -461.54794854717477
 Total Coulomb        Energy = 353.13232598009336
   21    -517.2242551421      2.07e-05  
 Alpha HF Exchange    Energy =  -4.42705904713442
 Beta HF Exchange     Energy =  -4.24452147978883
 DFT Correlation      Energy =  -1.85828473036235
 DFT Exchange         Energy = -34.36201530936872
 One-Electron (alpha) Energy = -483.11996042906225
 One-Electron (beta)  Energy = -461.54957777935465
 Total Coulomb        Energy = 353.13386141437877
   22    -517.2242522590      2.55e-05  
 Alpha HF Exchange    Energy =  -4.42705916309936
 Beta HF Exchange     Energy =  -4.24452097559736
 DFT Correlation      Energy =  -1.85828475839497
 DFT Exchange         Energy = -34.36201389328122
 One-Electron (alpha) Energy = -483.11996613950203
 One-Electron (beta)  Energy = -461.54958886450169
 Total Coulomb        Energy = 353.13387643340803
   23    -517.2242522592      2.54e-05  
 Alpha HF Exchange    Energy =  -4.42705910440229
 Beta HF Exchange     Energy =  -4.24452064930248
 DFT Correlation      Energy =  -1.85828472685382
 DFT Exchange         Energy = -34.36201243477458
 One-Electron (alpha) Energy = -483.11996541047671
 One-Electron (beta)  Energy = -461.54960637592552
 Total Coulomb        Energy = 353.13389135608509
   24    -517.2242522439      2.53e-05  
 Alpha HF Exchange    Energy =  -4.42705913681358
 Beta HF Exchange     Energy =  -4.24452378453292
 DFT Correlation      Energy =  -1.85828453581240
 DFT Exchange         Energy = -34.36202445653578
 One-Electron (alpha) Energy = -483.11995610253450
 One-Electron (beta)  Energy = -461.54978414757227
 Total Coulomb        Energy = 353.13407516571129
   25    -517.2242518964      2.60e-05  
 Alpha HF Exchange    Energy =  -4.42705934333924
 Beta HF Exchange     Energy =  -4.24449570757933
 DFT Correlation      Energy =  -1.85828631310902
 DFT Exchange         Energy = -34.36191920244043
 One-Electron (alpha) Energy = -483.12005777287817
 One-Electron (beta)  Energy = -461.54839323569774
 Total Coulomb        Energy = 353.13265201665456
   26    -517.2242544567      1.98e-05  
 Alpha HF Exchange    Energy =  -4.42705958772036
 Beta HF Exchange     Energy =  -4.24444853077374
 DFT Correlation      Energy =  -1.85828910888714
 DFT Exchange         Energy = -34.36174230104710
 One-Electron (alpha) Energy = -483.12020104038493
 One-Electron (beta)  Energy = -461.54631117031687
 Total Coulomb        Energy = 353.13048966263926
   27    -517.2242569748      9.28e-06  
 Alpha HF Exchange    Energy =  -4.42705975777385
 Beta HF Exchange     Energy =  -4.24443097425617
 DFT Correlation      Energy =  -1.85829021660992
 DFT Exchange         Energy = -34.36167681745021
 One-Electron (alpha) Energy = -483.12027024599445
 One-Electron (beta)  Energy = -461.54548981886734
 Total Coulomb        Energy = 353.12965524227843
   28    -517.2242574869      5.37e-06  
 Alpha HF Exchange    Energy =  -4.42705996696208
 Beta HF Exchange     Energy =  -4.24439928024652
 DFT Correlation      Energy =  -1.85829211118750
 DFT Exchange         Energy = -34.36155791366475
 One-Electron (alpha) Energy = -483.12038392161571
 One-Electron (beta)  Energy = -461.54382169071641
 Total Coulomb        Energy = 353.12795204853569
   29    -517.2242577341      1.65e-06  
 Alpha HF Exchange    Energy =  -4.42706011114856
 Beta HF Exchange     Energy =  -4.24440540529311
 DFT Correlation      Energy =  -1.85829176580434
 DFT Exchange         Energy = -34.36158163169029
 One-Electron (alpha) Energy = -483.12037428638956
 One-Electron (beta)  Energy = -461.54414375285381
 Total Coulomb        Energy = 353.12829409238151
   30    -517.2242577591      2.83e-07  Convergence criterion met
 ---------------------------------------
 SCF time:   CPU 63.48s  wall 6.00s 
<S^2> =          2.006157025
 Alpha HF Exchange    Energy =  -4.42706011114856
 Beta HF Exchange     Energy =  -4.24440540529311
 DFT Correlation      Energy =  -1.85829176580434
 DFT Exchange         Energy = -34.36158163169029
 One-Electron (alpha) Energy = -483.12037428638956
 One-Electron (beta)  Energy = -461.54414375285381
 Total Coulomb        Energy = 353.12829409238151
 Nuclear repulsion Energy = 119.20330510172414
 SCF   energy in the final basis set =     -517.2242577591
 Total energy in the final basis set =     -517.2242577591
 
 --------------------------------------------------------------
 
                    Orbital Energies (a.u.)
 --------------------------------------------------------------
 
 Alpha MOs
 -- Occupied --
-88.910 -10.184 -10.183 -10.175  -7.971  -5.943  -5.933  -5.923
 -0.777  -0.737  -0.670  -0.577  -0.459  -0.425  -0.412  -0.390
 -0.376  -0.347  -0.330  -0.320  -0.272  -0.196
 -- Virtual --
  0.033   0.106   0.142   0.145   0.159   0.179   0.181   0.222
  0.233   0.273   0.277   0.327   0.333   0.360   0.514   0.535
  0.535   0.549   0.594   0.598   0.659   0.689   0.694   0.697
  0.728   0.738   0.744   0.788   0.814   0.860   0.879   0.883
  0.912   0.939   0.961   1.000   1.086   1.214   1.309   1.431
  1.480   1.529   1.603   1.683   1.823   1.873   1.957   1.977
  2.002   2.054   2.058   2.066   2.071   2.123   2.126   2.227
  2.260   2.291   2.372   2.439   2.453   2.522   2.576   2.678
  2.699   2.712   2.743   2.805   2.860   2.883   2.923   3.186
  3.259   3.358   3.381   3.466   3.482   3.556   3.919   4.241
  4.431   4.607
 
 Beta MOs
 -- Occupied --
-88.904 -10.184 -10.174 -10.169  -7.966  -5.929  -5.925  -5.920
 -0.767  -0.697  -0.652  -0.563  -0.455  -0.419  -0.398  -0.385
 -0.364  -0.341  -0.328  -0.257
 -- Virtual --
 -0.177  -0.037   0.043   0.110   0.147   0.154   0.161   0.182
  0.183   0.227   0.238   0.285   0.286   0.334   0.366   0.372
  0.518   0.537   0.550   0.568   0.600   0.633   0.670   0.707
  0.714   0.736   0.743   0.792   0.792   0.798   0.821   0.863
  0.881   0.886   0.919   0.944   0.973   1.003   1.096   1.225
  1.318   1.460   1.484   1.545   1.624   1.684   1.832   1.878
  1.961   2.002   2.042   2.054   2.061   2.064   2.073   2.125
  2.131   2.229   2.272   2.292   2.378   2.444   2.465   2.531
  2.601   2.684   2.701   2.713   2.747   2.808   2.862   2.885
  2.926   3.187   3.263   3.363   3.382   3.468   3.488   3.559
  3.938   4.260   4.448   4.609
 --------------------------------------------------------------
 
          Ground-State Mulliken Net Atomic Charges

     Atom                 Charge (a.u.)    Spin (a.u.)
  --------------------------------------------------------
      1 S                    -0.073269       1.027616
      2 C                    -0.188957      -0.073799
      3 C                    -0.216749       1.079984
      4 C                    -0.307226       0.049748
      5 H                     0.103368       0.015203
      6 H                     0.099238       0.010948
      7 H                     0.101337      -0.047415
      8 H                     0.098903      -0.047569
      9 H                     0.105356      -0.000716
     10 H                     0.099903       0.013762
     11 H                     0.104848      -0.000371
     12 H                     0.073248      -0.027392
  --------------------------------------------------------
  Sum of atomic charges =    -0.000000
  Sum of spin   charges =     2.000000

 -----------------------------------------------------------------
                    Cartesian Multipole Moments
 -----------------------------------------------------------------
    Charge (ESU x 10^10)
                 0.0000
    Dipole Moment (Debye)
         X      -0.4575      Y       0.3170      Z      -0.9529
       Tot       1.1035
    Quadrupole Moments (Debye-Ang)
        XX     -38.5960     XY      -0.6913     YY     -33.4513
        XZ      -3.9616     YZ      -1.1902     ZZ     -31.6054
    Octopole Moments (Debye-Ang^2)
       XXX    -138.2422    XXY     -18.1263    XYY     -33.6384
       YYY     -25.7852    XXZ     -14.0304    XYZ      -4.9178
       YYZ       0.6001    XZZ     -26.5585    YZZ      -7.9875
       ZZZ       5.0093
    Hexadecapole Moments (Debye-Ang^3)
      XXXX   -2401.2555   XXXY    -301.9298   XXYY    -398.5139
      XYYY    -209.3708   YYYY    -202.7509   XXXZ     -13.7450
      XXYZ     -14.4206   XYYZ      10.0074   YYYZ       9.1729
      XXZZ    -326.9878   XYZZ     -58.8570   YYZZ     -40.3361
      XZZZ      40.0513   YZZZ       8.0126   ZZZZ     -65.7114
 -----------------------------------------------------------------
 Calculating analytic gradient of the SCF energy
 Gradient of SCF Energy
            1           2           3           4           5           6
    1  -0.0001735  -0.0001804   0.0005281  -0.0000411   0.0000416   0.0000508
    2  -0.0000005  -0.0000961   0.0002686  -0.0001634   0.0000869   0.0001240
    3  -0.0000030  -0.0001532   0.0000977   0.0000685  -0.0000721   0.0000839
            7           8           9          10          11          12
    1  -0.0002357  -0.0001202   0.0000210   0.0000069   0.0000170   0.0000855
    2  -0.0001799  -0.0000874   0.0000338  -0.0000042   0.0000176   0.0000006
    3   0.0000187  -0.0000111   0.0000133   0.0000076  -0.0000083  -0.0000422
 Max gradient component =       5.281E-04
 RMS gradient           =       1.344E-04
 Gradient time:  CPU 7.33 s  wall 0.64 s
 Geometry Optimization Parameters
   NAtoms,    NIC,     NZ,  NCons,   NDum,   NFix, NCnnct, MaxDiis
       12     331       0       1       0       0       0       0

 Cartesian Hessian Update
 Hessian Updated using BFGS Update


** CONSTRAINED OPTIMIZATION IN DELOCALIZED INTERNAL COORDINATES **
   Searching for a Minimum

   Optimization Cycle:   7

                       Coordinates (Angstroms)
     ATOM                X               Y               Z
      1  S         4.5981659532    1.0951629099   -0.1661924089
      2  C        -1.0587292310    0.2387442345   -0.0140589795
      3  C        -0.1747796551   -0.9635616660   -0.0225018422
      4  C        -2.5611209407   -0.1027233602    0.1298481414
      5  H        -0.7751895392    0.9049712098    0.8119439975
      6  H        -0.9186591004    0.8143342252   -0.9383613764
      7  H         0.1069909781   -1.4499723551    0.9063857430
      8  H         0.0292091645   -1.4985370056   -0.9449525607
      9  H        -2.7531245783   -0.6426487716    1.0625594200
     10  H        -3.1682109345    0.8094882833    0.1343600473
     11  H        -2.9016310071   -0.7333523245   -0.6975393497
     12  H         4.2896838905    1.4318956203   -1.4384838320
   Point Group: c1    Number of degrees of freedom:    30


   Energy is   -517.224257759

              Constraints and their Current Values
                                        Value     Constraint
   Distance(Angs):        1   3             5.200000     5.200000
 Hessian Updated using BFGS Update

 29 Hessian modes will be used to form the next step
  Hessian Eigenvalues:
     0.003543    0.014251    0.041394    0.045150    0.045534    0.047333
     0.047743    0.052214    0.053958    0.055565    0.058360    0.060623
     0.062901    0.079147    0.113855    0.117039    0.155411    0.158740
     0.159846    0.182845    0.196810    0.220204    0.220650    0.230482
     0.273471    0.310506    0.341991    0.342865    0.345290

 Minimum Search - Taking Simple RFO Step
 Searching for Lamda that Minimizes Along All modes
 Value Taken    Lamda =  -0.00000472
 Step Taken.  Stepsize is  0.032244

                             Maximum     Tolerance    Cnvgd?
         Gradient           0.000103      0.000300     YES
         Displacement       0.028155      0.001200      NO
         Energy change     -0.000001      0.000001     YES


                       Distance Matrix (Angstroms)
             S (  1)   C (  2)   C (  3)   C (  4)   H (  5)   H (  6)
   C (  2)  5.723378
   C (  3)  5.200000  1.492306
   C (  4)  7.264844  1.547414  2.541432
   H (  5)  5.464968  1.098423  2.132653  2.161077
   H (  6)  5.577676  1.097843  2.133792  2.163272  1.758513
   H (  7)  5.272456  2.248974  1.085736  3.088189  2.516530  3.095502
   H (  8)  5.311225  2.251293  1.085691  3.132619  3.083925  2.499574
   H (  9)  7.653188  2.192473  2.815707  1.094685  2.523918  3.080868
   H ( 10)  7.777439  2.190363  3.482663  1.095769  2.488933  2.492236
   H ( 11)  7.737749  2.192807  2.818579  1.094628  3.079675  2.526956
   H ( 12)  1.351768  5.661989  5.260671  7.193625  5.567317  5.268619
             H (  7)   H (  8)   H (  9)   H ( 10)   H ( 11)
   H (  8)  1.853608
   H (  9)  2.975974  3.536104
   H ( 10)  4.053163  4.088446  1.772725
   H ( 11)  3.483953  3.039168  1.768680  1.772986
   H ( 12)  5.594506  5.194483  7.756294  7.647315  7.546675
 
 Final energy is   -517.224257759074     


 ******************************
 **  OPTIMIZATION CONVERGED  **
 ******************************

                       Coordinates (Angstroms)
     ATOM                X               Y               Z
      1  S         4.5981659532    1.0951629099   -0.1661924089
      2  C        -1.0587292310    0.2387442345   -0.0140589795
      3  C        -0.1747796551   -0.9635616660   -0.0225018422
      4  C        -2.5611209407   -0.1027233602    0.1298481414
      5  H        -0.7751895392    0.9049712098    0.8119439975
      6  H        -0.9186591004    0.8143342252   -0.9383613764
      7  H         0.1069909781   -1.4499723551    0.9063857430
      8  H         0.0292091645   -1.4985370056   -0.9449525607
      9  H        -2.7531245783   -0.6426487716    1.0625594200
     10  H        -3.1682109345    0.8094882833    0.1343600473
     11  H        -2.9016310071   -0.7333523245   -0.6975393497
     12  H         4.2896838905    1.4318956203   -1.4384838320

Z-matrix Print:
$molecule
0 3
C 
H  1 1.097843
H  1 1.098423 2 106.390741
C  1 1.492306 2 110.002942 3 -118.963174 0
H  4 1.085691 1 120.870200 2 -35.518321 0
H  4 1.085736 1 120.652131 2 157.653967 0
C  1 1.547414 2 108.534027 3 116.385138 0
H  7 1.094628 1 111.030187 2 62.494822 0
H  7 1.094685 1 111.000180 2 -177.640601 0
H  7 1.095769 1 110.768320 2 -57.600029 0
H  5 5.194483 4 87.526789 1 93.610155 0
S  11 1.351768 5 87.547989 4 50.425006 0
$end

PES scan, value:    5.2000 energy: -517.2242577591
------- Summary of potential scan: ------ 
    5.2000      -517.2242577591
----------------------------------------- 
Archival summary:
1\1\hpc0250\JobtypUnspecified\ProcedureUnspecified\6-31G**\138(3)\knomura\WedMar1321:09:312019WedMar1321:09:312019\0\\#,JobtypUnspecified,ProcedureUnspecified,6-31G**,\\0,3\C\H,1,1.09784\H,1,1.09842,2,106.391\C,1,1.49231,2,110.003,3,-118.963,0\H,4,1.08569,1,120.87,2,-35.5183,0\H,4,1.08574,1,120.652,2,157.654,0\C,1,1.54741,2,108.534,3,116.385,0\H,7,1.09463,1,111.03,2,62.4948,0\H,7,1.09468,1,111,2,-177.641,0\H,7,1.09577,1,110.768,2,-57.6,0\H,5,5.19448,4,87.5268,1,93.6102,0\S,11,1.35177,5,87.548,4,50.425,0\\\@

 Total job time:  45.92s(wall), 534.88s(cpu) 
 Wed Mar 13 21:09:31 2019

        *************************************************************
        *                                                           *
        *  Thank you very much for using Q-Chem.  Have a nice day.  *
        *                                                           *
        *************************************************************


