
Running Job 1 of 1 thiol/02/C-S.xyz.data/inputs/bond_singlet_3.2.in
qchem thiol/02/C-S.xyz.data/inputs/bond_singlet_3.2.in_18867.0 /staging/scratch/2868767/qchem18867/ 1
/usr/usc/qchem/5.1.1/exe/qcprog.exe_s thiol/02/C-S.xyz.data/inputs/bond_singlet_3.2.in_18867.0 /staging/scratch/2868767/qchem18867/
Check license passed

                  Welcome to Q-Chem
     A Quantum Leap Into The Future Of Chemistry


 Q-Chem 5.1, Q-Chem, Inc., Pleasanton, CA (2018)

 Yihan Shao,  Zhengting Gan,  E. Epifanovsky,  A. T. B. Gilbert,  M. Wormit,  
 J. Kussmann,  A. W. Lange,  A. Behn,  Jia Deng,  Xintian Feng,  D. Ghosh,  
 M. Goldey,  P. R. Horn,  L. D. Jacobson,  I. Kaliman,  T. Kus,  A. Landau,  
 Jie Liu,  E. I. Proynov,  R. M. Richard,  R. P. Steele,  E. J. Sundstrom,  
 H. L. Woodcock III,  P. M. Zimmerman,  D. Zuev,  B. Albrecht,  E. Alguire,  
 S. A. Baeppler,  D. Barton,  Z. Benda,  Y. A. Bernard,  E. J. Berquist,  
 K. B. Bravaya,  H. Burton,  D. Casanova,  Chun-Min Chang,  Yunqing Chen,  
 A. Chien,  K. D. Closser,  M. P. Coons,  S. Coriani,  S. Dasgupta,  
 A. L. Dempwolff,  M. Diedenhofen,  Hainam Do,  R. G. Edgar,  Po-Tung Fang,  
 S. Faraji,  S. Fatehi,  Qingguo Feng,  K. D. Fenk,  J. Fosso-Tande,  
 Qinghui Ge,  A. Ghysels,  G. Gidofalvi,  J. Gomes,  J. Gonthier,  A. Gunina,  
 D. Hait,  M. W. D. Hanson-Heine,  P. H. P. Harbach,  A. W. Hauser,  
 J. E. Herr,  E. G. Hohenstein,  Z. C. Holden,  Kerwin Hui,  B. C. Huynh,  
 T.-C. Jagau,  Hyunjun Ji,  B. Kaduk,  K. Khistyaev,  Jaehoon Kim,  
 P. Klunzinger,  K. Koh,  D. Kosenkov,  L. Koulias,  T. Kowalczyk,  
 C. M. Krauter,  A. Kunitsa,  Ka Un Lao,  A. Laurent,  K. V. Lawler,  
 Joonho Lee,  D. Lefrancois,  S. Lehtola,  D. S. Levine,  Yi-Pei Li,  
 You-Sheng Lin,  Fenglai Liu,  E. Livshits,  A. Luenser,  P. Manohar,  
 E. Mansoor,  S. F. Manzer,  Shan-Ping Mao,  Yuezhi Mao,  N. Mardirossian,  
 A. V. Marenich,  T. Markovich,  L. A. Martinez-Martinez,  S. A. Maurer,  
 N. J. Mayhall,  S. C. McKenzie,  J.-M. Mewes,  A. F. Morrison,  
 J. W. Mullinax,  K. Nanda,  T. S. Nguyen-Beck,  R. Olivares-Amaya,  
 J. A. Parkhill,  T. M. Perrine,  F. Plasser,  P. Pokhilko,  S. Prager,  
 A. Prociuk,  E. Ramos,  D. R. Rehn,  F. Rob,  M. Schneider,  N. Sergueev,  
 S. M. Sharada,  S. Sharma,  D. W. Small,  T. Stauch,  T. Stein,  
 Yu-Chuan Su,  A. J. W. Thom,  A. Tkatchenko,  T. Tsuchimochi,  N. M. Tubman,  
 L. Vogt,  M. L. Vidal,  O. Vydrov,  M. A. Watson,  J. Wenzel,  
 M. de Wergifosse,  T. A. Wesolowski,  A. White,  J. Witte,  A. Yamada,  
 Jun Yang,  K. Yao,  S. Yeganeh,  S. R. Yost,  Zhi-Qiang You,  A. Zech,  
 Igor Ying Zhang,  Xing Zhang,  Yan Zhao,  Ying Zhu,  B. R. Brooks,  
 G. K. L. Chan,  C. J. Cramer,  M. S. Gordon,  W. J. Hehre,  A. Klamt,  
 M. W. Schmidt,  C. D. Sherrill,  D. G. Truhlar,  A. Aspuru-Guzik,  R. Baer,  
 A. T. Bell,  N. A. Besley,  Jeng-Da Chai,  A. E. DePrince, III,  
 R. A. DiStasio Jr.,  A. Dreuw,  B. D. Dunietz,  T. R. Furlani,  
 Chao-Ping Hsu,  Yousung Jung,  Jing Kong,  D. S. Lambrecht,  WanZhen Liang,  
 C. Ochsenfeld,  V. A. Rassolov,  L. V. Slipchenko,  J. E. Subotnik,  
 T. Van Voorhis,  J. M. Herbert,  A. I. Krylov,  P. M. W. Gill,  M. Head-Gordon

 Contributors to earlier versions of Q-Chem not listed above: 
 R. D. Adamson,  B. Austin,  J. Baker,  G. J. O. Beran,  K. Brandhorst,  
 S. T. Brown,  E. F. C. Byrd,  A. K. Chakraborty,  C.-L. Cheng,  
 Siu Hung Chien,  D. M. Chipman,  D. L. Crittenden,  H. Dachsel,  
 R. J. Doerksen,  A. D. Dutoi,  L. Fusti-Molnar,  W. A. Goddard III,  
 A. Golubeva-Zadorozhnaya,  S. R. Gwaltney,  G. Hawkins,  A. Heyden,  
 S. Hirata,  G. Kedziora,  F. J. Keil,  C. Kelley,  Jihan Kim,  R. A. King,  
 R. Z. Khaliullin,  P. P. Korambath,  W. Kurlancheek,  A. M. Lee,  M. S. Lee,  
 S. V. Levchenko,  Ching Yeh Lin,  D. Liotard,  R. C. Lochan,  I. Lotan,  
 P. E. Maslen,  N. Nair,  D. P. O'Neill,  D. Neuhauser,  E. Neuscamman,  
 C. M. Oana,  R. Olson,  B. Peters,  R. Peverati,  P. A. Pieniazek,  
 Y. M. Rhee,  J. Ritchie,  M. A. Rohrdanz,  E. Rosta,  N. J. Russ,  
 H. F. Schaefer III,  N. E. Schultz,  N. Shenvi,  A. C. Simmonett,  A. Sodt,  
 D. Stuck,  K. S. Thanthiriwatte,  V. Vanovschi,  Tao Wang,  A. Warshel,  
 C. F. Williams,  Q. Wu,  X. Xu,  W. Zhang

 Please cite Q-Chem as follows:
 Y. Shao et al., Mol. Phys. 113, 184-215 (2015)
 DOI: 10.1080/00268976.2014.952696

 Q-Chem 5.1.1 for Intel X86 EM64T Linux

 Parts of Q-Chem use Armadillo 8.300.2 (Tropical Shenanigans).
 http://arma.sourceforge.net/

 Q-Chem begins on Wed Mar 13 19:26:25 2019  

Host: 
0

     Scratch files written to /staging/scratch/2868767/qchem18867//
 Aug318 |scratch|qcdevops|jenkins|workspace|build_RNUM 6013   
Processing $rem in /usr/usc/qchem/5.1.1/config/preferences.
 MEM_TOTAL  2000 
Input Ideriv = 2
Curr. Ideriv = -1
Max.  Ideriv = 2

Checking the input file for inconsistencies... 	...done.

--------------------------------------------------------------
User input:
--------------------------------------------------------------

$comment
potential surface scanner
$end

$rem
JOBTYPE  PES_SCAN
UNRESTRICTED TRUE
SYM_IGNORE  TRUE
GEOM_OPT_MAX_CYCLES 400
SCF_MAX_CYCLES 400
METHOD   B3LYP
BASIS   6-31G**
PDB_PRINT 2
SCF_CONVERGENCE 6
THRESH 14
SCF_PRINT 1
$end
$molecule
0 1
S 3.017413 0.487154 -0.028027
C -0.770473 0.415271 -0.007380
C 0.165419 -0.727767 -0.018166
C -2.235409 -0.110756 0.045803
H -0.587006 1.048982 0.864622
H -0.644164 1.026134 -0.905628
H 0.399970 -1.251399 0.902424
H 0.379053 -1.260847 -0.938660
H -2.412749 -0.705224 0.946446
H -2.921326 0.741654 0.057868
H -2.471007 -0.727320 -0.826212
H 2.792879 0.967916 -1.270088
$end
$scan
stre 1 3 3.200000 3.201000 0.100000
$end
--------------------------------------------------------------
 ----------------------------------------------------------------
             Standard Nuclear Orientation (Angstroms)
    I     Atom           X                Y                Z
 ----------------------------------------------------------------
    1      S       3.0174130000     0.4871540000    -0.0280270000
    2      C      -0.7704730000     0.4152710000    -0.0073800000
    3      C       0.1654190000    -0.7277670000    -0.0181660000
    4      C      -2.2354090000    -0.1107560000     0.0458030000
    5      H      -0.5870060000     1.0489820000     0.8646220000
    6      H      -0.6441640000     1.0261340000    -0.9056280000
    7      H       0.3999700000    -1.2513990000     0.9024240000
    8      H       0.3790530000    -1.2608470000    -0.9386600000
    9      H      -2.4127490000    -0.7052240000     0.9464460000
   10      H      -2.9213260000     0.7416540000     0.0578680000
   11      H      -2.4710070000    -0.7273200000    -0.8262120000
   12      H       2.7928790000     0.9679160000    -1.2700880000
 ----------------------------------------------------------------
 Nuclear Repulsion Energy =   138.9407327740 hartrees
 There are       21 alpha and       21 beta electrons
 Requested basis set is 6-31G(d,p)
 There are 41 shells and 104 basis functions

 Total QAlloc Memory Limit   2000 MB
 Mega-Array Size       188 MB
 MEM_STATIC part       192 MB
A total of 1 constraints
  
            1
    1   1.0100000
    2   1.0100000
    3   3.0100000
    4   3.2000000
    5   3.2010000
    6   0.1000000
    7   0.0000000
    8   0.0000000
    9   0.0000000
   10   0.0000000

                       Distance Matrix (Angstroms)
             S (  1)   C (  2)   C (  3)   C (  4)   H (  5)   H (  6)
   C (  2)  3.788624
   C (  3)  3.100000  1.477344
   C (  4)  5.287257  1.557424  2.479671
   H (  5)  3.755570  1.093452  2.121861  2.175474
   H (  6)  3.803660  1.093598  2.125837  2.174810  1.771320
   H (  7)  3.277089  2.230576  1.084754  2.996680  2.503458  3.089729
   H (  8)  3.293282  2.235635  1.084953  3.021140  3.085516  2.505663
   H (  9)  5.644291  2.205077  2.752805  1.093618  2.533233  3.091225
   H ( 10)  5.944810  2.176454  3.419499  1.094180  2.488846  2.488919
   H ( 11)  5.677570  2.206313  2.757477  1.093649  3.092512  2.533429
   H ( 12)  1.350653  3.820645  3.368411  5.308369  3.998397  3.456803
             H (  7)   H (  8)   H (  9)   H ( 10)   H ( 11)
   H (  8)  1.841227
   H (  9)  2.865595  3.414162
   H ( 10)  3.964409  3.986926  1.772478
   H ( 11)  3.391954  2.901747  1.773753  1.772645
   H ( 12)  3.920610  3.302088  5.900083  5.870843  5.547914
 
 A cutoff of  1.0D-14 yielded    801 shell pairs
 There are      5203 function pairs
 
 -------------------------------------------------------
 OpenMP Integral Computing Module                       
 Release: version 1.0, May 2013, Q-Chem Inc. Pittsburgh 
 -------------------------------------------------------
 Integral Job Info:
 Integral job number is                      11
 Integral operator is                         1
 short-range coefficients                     0
 long-range coefficients              100000000
 Omega coefficients                           0
 if combine SR and LR in K                    0
 Integral screening is                        0
 Integral computing path is                   2
 max size of driver memory is            800000
 size of driver memory is                593474
 size of scratch memory is             15267112
 max col of scratch BK array               1296
 max len of scratch array in speh3          155
 max len of scratch index in speh4           18
 max int batch size is                      520
 min int batch size is                       52
 fixed nKL is                                52
 max L of basis functions is                  2
 order of int derivative is                   0
 number of shells is                         41
 number of basis is                         104
 number of cartesian basis is               104
 number of contracted shell pairs           801
 number of primitive shell pairs           2811
 maxK2 (contraction) of shell pair           36
 max number of K2 of shell pair               1
 max number of CS2 of shell pair             78
 max number of PS2 of shell pair            246
 mem total for path MDJ                  513348
 -------------------------------------------------------
 Smallest overlap matrix eigenvalue = 6.10E-03

 Scale SEOQF with 1.000000e-01/1.000000e+00/1.000000e+00

 Standard Electronic Orientation quadrupole field applied
 Nucleus-field energy     =     0.0000000119 hartrees
 Guess from superposition of atomic densities
 Warning:  Energy on first SCF cycle will be non-variational
 SAD guess density has 42.000000 electrons

 -----------------------------------------------------------------------
  General SCF calculation program by
  Eric Jon Sundstrom, Paul Horn, Yuezhi Mao, Dmitri Zuev, Alec White,
  David Stuck, Shaama M.S., Shane Yost, Joonho Lee, David Small,
  Daniel Levine, Susi Lehtola, Hugh Burton, Evgeny Epifanovsky
 -----------------------------------------------------------------------
 Exchange:     0.2000 Hartree-Fock + 0.0800 Slater + 0.7200 B88
 Correlation:  0.1900 VWN1RPA + 0.8100 LYP
 Using SG-1 standard quadrature grid
 using 12 threads for integral computing
 -------------------------------------------------------
 OpenMP Integral computing Module                
 Release: version 1.0, May 2013, Q-Chem Inc. Pittsburgh 
 -------------------------------------------------------
 -------------------------------------------------------
 OpenMP BLAS3 based DFT computing Module                
 Release: version 1.0, May 2013, Q-Chem Inc. Pittsburgh 
 -------------------------------------------------------
 A unrestricted SCF calculation will be
 performed using DIIS
 SCF converges when DIIS error is below 1.0e-06
 Alpha HF Exchange    Energy =  -4.32078343622477
 Beta HF Exchange     Energy =  -4.32078343622477
 DFT Correlation      Energy =  -1.85781810478332
 DFT Exchange         Energy = -33.94674039663823
 One-Electron (alpha) Energy = -490.24742504314389
 One-Electron (beta)  Energy = -490.24742504314389
 Total Coulomb        Energy = 368.55621536485864
 ---------------------------------------
  Cycle       Energy         DIIS error
 ---------------------------------------
    1    -517.4440273095      2.82e-02  
 Alpha HF Exchange    Energy =  -4.35299005072968
 Beta HF Exchange     Energy =  -4.35299005072968
 DFT Correlation      Energy =  -1.88550336418143
 DFT Exchange         Energy = -34.54869837201258
 One-Electron (alpha) Energy = -493.95422731856041
 One-Electron (beta)  Energy = -493.95422731856030
 Total Coulomb        Energy = 376.95702160448724
    2    -517.1508820845      3.46e-03  
 Alpha HF Exchange    Energy =  -4.30599526480125
 Beta HF Exchange     Energy =  -4.30599526480125
 DFT Correlation      Energy =  -1.86701444635571
 DFT Exchange         Energy = -34.15376173851260
 One-Electron (alpha) Energy = -489.91009323745050
 One-Electron (beta)  Energy = -489.91009323745050
 Total Coulomb        Energy = 368.73730339458984
    3    -516.7749170090      7.02e-03  
 Alpha HF Exchange    Energy =  -4.31468991579203
 Beta HF Exchange     Energy =  -4.31468991579203
 DFT Correlation      Energy =  -1.86694855497099
 DFT Exchange         Energy = -34.21719228746318
 One-Electron (alpha) Energy = -491.52140462395545
 One-Electron (beta)  Energy = -491.52140462395528
 Total Coulomb        Energy = 371.65783574922591
    4    -517.1577613869      3.17e-03  
 Alpha HF Exchange    Energy =  -4.31872292111919
 Beta HF Exchange     Energy =  -4.31872292111918
 DFT Correlation      Energy =  -1.87386479433241
 DFT Exchange         Energy = -34.29094211780274
 One-Electron (alpha) Energy = -491.94067634711610
 One-Electron (beta)  Energy = -491.94067634711610
 Total Coulomb        Energy = 372.50323708490095
    5    -517.2396355779      6.80e-04  
 Alpha HF Exchange    Energy =  -4.32073941083050
 Beta HF Exchange     Energy =  -4.32073941083050
 DFT Correlation      Energy =  -1.87398509706417
 DFT Exchange         Energy = -34.30350513128435
 One-Electron (alpha) Energy = -492.09058990793494
 One-Electron (beta)  Energy = -492.09058990793488
 Total Coulomb        Energy = 372.81591765279410
    6    -517.2434984273      1.91e-04  
 Alpha HF Exchange    Energy =  -4.32002659706734
 Beta HF Exchange     Energy =  -4.32002659706734
 DFT Correlation      Energy =  -1.87379879079021
 DFT Exchange         Energy = -34.29800708503248
 One-Electron (alpha) Energy = -492.02950321239058
 One-Electron (beta)  Energy = -492.02950321239007
 Total Coulomb        Energy = 372.68655126817720
    7    -517.2435814407      1.17e-04  
 Alpha HF Exchange    Energy =  -4.32023724492748
 Beta HF Exchange     Energy =  -4.32023724492748
 DFT Correlation      Energy =  -1.87380588494333
 DFT Exchange         Energy = -34.29904723488525
 One-Electron (alpha) Energy = -492.04809680123685
 One-Electron (beta)  Energy = -492.04809680123674
 Total Coulomb        Energy = 372.72509215358497
    8    -517.2436962727      3.65e-05  
 Alpha HF Exchange    Energy =  -4.32029674337018
 Beta HF Exchange     Energy =  -4.32029674337017
 DFT Correlation      Energy =  -1.87379201412787
 DFT Exchange         Energy = -34.29924189518799
 One-Electron (alpha) Energy = -492.05065857443714
 One-Electron (beta)  Energy = -492.05065857443697
 Total Coulomb        Energy = 372.73050398539385
    9    -517.2437077737      5.48e-06  
 Alpha HF Exchange    Energy =  -4.32030459186079
 Beta HF Exchange     Energy =  -4.32030459186079
 DFT Correlation      Energy =  -1.87379187752544
 DFT Exchange         Energy = -34.29928103099322
 One-Electron (alpha) Energy = -492.05134506789966
 One-Electron (beta)  Energy = -492.05134506789943
 Total Coulomb        Energy = 372.73193148121527
   10    -517.2437079610      1.01e-06  
 Alpha HF Exchange    Energy =  -4.32030587175553
 Beta HF Exchange     Energy =  -4.32030587175553
 DFT Correlation      Energy =  -1.87379216834252
 DFT Exchange         Energy = -34.29928970105613
 One-Electron (alpha) Energy = -492.05143719924047
 One-Electron (beta)  Energy = -492.05143719924087
 Total Coulomb        Energy = 372.73212725855080
   11    -517.2437079670      2.31e-07  Convergence criterion met
 ---------------------------------------
 SCF time:   CPU 26.51s  wall 3.00s 
<S^2> =         -0.000000000
 Alpha HF Exchange    Energy =  -4.32030587175553
 Beta HF Exchange     Energy =  -4.32030587175553
 DFT Correlation      Energy =  -1.87379216834252
 DFT Exchange         Energy = -34.29928970105613
 One-Electron (alpha) Energy = -492.05143719924047
 One-Electron (beta)  Energy = -492.05143719924087
 Total Coulomb        Energy = 372.73212725855080
 Nuclear repulsion Energy = 138.94073278582684
 SCF   energy in the final basis set =     -517.2437079670
 Total energy in the final basis set =     -517.2437079670
 
 --------------------------------------------------------------
 
                    Orbital Energies (a.u.)
 --------------------------------------------------------------
 
 Alpha MOs
 -- Occupied --
-88.844 -10.272 -10.223 -10.213  -7.903  -5.867  -5.866  -5.858
 -0.822  -0.708  -0.656  -0.617  -0.505  -0.466  -0.432  -0.410
 -0.389  -0.370  -0.349  -0.230  -0.208
 -- Virtual --
 -0.126   0.073   0.087   0.113   0.116   0.131   0.153   0.154
  0.191   0.194   0.239   0.328   0.373   0.399   0.416   0.487
  0.501   0.506   0.534   0.567   0.627   0.666   0.701   0.737
  0.761   0.791   0.793   0.795   0.821   0.836   0.843   0.850
  0.878   0.893   0.920   0.973   0.979   1.152   1.205   1.263
  1.381   1.455   1.513   1.578   1.637   1.780   1.835   1.922
  1.943   2.002   2.020   2.035   2.086   2.095   2.119   2.125
  2.191   2.216   2.253   2.368   2.399   2.421   2.483   2.543
  2.642   2.688   2.710   2.759   2.774   2.825   2.846   2.887
  3.159   3.216   3.314   3.350   3.437   3.442   3.514   3.996
  4.220   4.400   4.576
 
 Beta MOs
 -- Occupied --
-88.844 -10.272 -10.223 -10.213  -7.903  -5.867  -5.866  -5.858
 -0.822  -0.708  -0.656  -0.617  -0.505  -0.466  -0.432  -0.410
 -0.389  -0.370  -0.349  -0.230  -0.208
 -- Virtual --
 -0.126   0.073   0.087   0.113   0.116   0.131   0.153   0.154
  0.191   0.194   0.239   0.328   0.373   0.399   0.416   0.487
  0.501   0.506   0.534   0.567   0.627   0.666   0.701   0.737
  0.761   0.791   0.793   0.795   0.821   0.836   0.843   0.850
  0.878   0.893   0.920   0.973   0.979   1.152   1.205   1.263
  1.381   1.455   1.513   1.578   1.637   1.780   1.835   1.922
  1.943   2.002   2.020   2.035   2.086   2.095   2.119   2.125
  2.191   2.216   2.253   2.368   2.399   2.421   2.483   2.543
  2.642   2.688   2.710   2.759   2.774   2.825   2.846   2.887
  3.159   3.216   3.314   3.350   3.437   3.442   3.514   3.996
  4.220   4.400   4.576
 --------------------------------------------------------------
 
          Ground-State Mulliken Net Atomic Charges

     Atom                 Charge (a.u.)    Spin (a.u.)
  --------------------------------------------------------
      1 S                    -0.371543       0.000000
      2 C                    -0.208771       0.000000
      3 C                    -0.123786      -0.000000
      4 C                    -0.333318      -0.000000
      5 H                     0.150799       0.000000
      6 H                     0.138167       0.000000
      7 H                     0.166055       0.000000
      8 H                     0.163158       0.000000
      9 H                     0.123098       0.000000
     10 H                     0.131517       0.000000
     11 H                     0.121514       0.000000
     12 H                     0.043111      -0.000000
  --------------------------------------------------------
  Sum of atomic charges =    -0.000000
  Sum of spin   charges =     0.000000

 -----------------------------------------------------------------
                    Cartesian Multipole Moments
 -----------------------------------------------------------------
    Charge (ESU x 10^10)
                -0.0000
    Dipole Moment (Debye)
         X      -5.2614      Y      -1.0432      Z      -0.7327
       Tot       5.4136
    Quadrupole Moments (Debye-Ang)
        XX     -47.3027     XY      -1.2944     YY     -34.0729
        XZ      -1.9420     YZ      -1.6096     ZZ     -32.1249
    Octopole Moments (Debye-Ang^2)
       XXX    -116.7495    XXY      -3.5200    XYY     -26.5730
       YYY     -15.6190    XXZ      -3.3827    XYZ      -4.7930
       YYZ      -0.4303    XZZ     -20.1515    YZZ      -4.8262
       ZZZ       2.4386
    Hexadecapole Moments (Debye-Ang^3)
      XXXX   -1228.6260   XXXY     -59.9786   XXYY    -208.0130
      XYYY     -67.3986   YYYY    -117.0852   XXXZ       3.0277
      XXYZ     -12.9264   XYYZ      -0.0341   YYYZ       0.8978
      XXZZ    -183.3853   XYZZ     -17.5927   YYZZ     -26.3567
      XZZZ      10.9537   YZZZ       0.8660   ZZZZ     -62.6486
 -----------------------------------------------------------------
 Calculating analytic gradient of the SCF energy
 Gradient of SCF Energy
            1           2           3           4           5           6
    1   0.0306851  -0.0001775  -0.0304229   0.0000508   0.0000221   0.0000289
    2   0.0130046  -0.0001209  -0.0128603   0.0000273   0.0000367   0.0000241
    3  -0.0001681  -0.0000099   0.0001396  -0.0000044  -0.0000255   0.0000063
            7           8           9          10          11          12
    1  -0.0001298  -0.0000272  -0.0000021  -0.0000060  -0.0000032  -0.0000183
    2  -0.0000625  -0.0000985   0.0000058  -0.0000046  -0.0000146   0.0000629
    3   0.0000592  -0.0000070   0.0000111  -0.0000059   0.0000113  -0.0000067
 Max gradient component =       3.069E-02
 RMS gradient           =       7.821E-03
 Gradient time:  CPU 8.34 s  wall 0.73 s
 Geometry Optimization Parameters
   NAtoms,    NIC,     NZ,  NCons,   NDum,   NFix, NCnnct, MaxDiis
       12     131       0       1       0       0       0       0


** CONSTRAINED OPTIMIZATION IN DELOCALIZED INTERNAL COORDINATES **
   Searching for a Minimum

   Optimization Cycle:   1

                       Coordinates (Angstroms)
     ATOM                X               Y               Z
      1  S         3.0174130000    0.4871540000   -0.0280270000
      2  C        -0.7704730000    0.4152710000   -0.0073800000
      3  C         0.1654190000   -0.7277670000   -0.0181660000
      4  C        -2.2354090000   -0.1107560000    0.0458030000
      5  H        -0.5870060000    1.0489820000    0.8646220000
      6  H        -0.6441640000    1.0261340000   -0.9056280000
      7  H         0.3999700000   -1.2513990000    0.9024240000
      8  H         0.3790530000   -1.2608470000   -0.9386600000
      9  H        -2.4127490000   -0.7052240000    0.9464460000
     10  H        -2.9213260000    0.7416540000    0.0578680000
     11  H        -2.4710070000   -0.7273200000   -0.8262120000
     12  H         2.7928790000    0.9679160000   -1.2700880000
   Point Group: c1    Number of degrees of freedom:    30


   Energy is   -517.243707967

              Constraints and their Current Values
                                        Value     Constraint
   Distance(Angs):        1   3             3.100000     3.200000

 Attempting to Generate Delocalized Internal Coordinates

   Using Lagrange Multiplier Algorithm


 31 Hessian modes will be used to form the next step
  Hessian Eigenvalues:
    -0.989422    0.041664    0.045000    0.045000    0.046998    0.058537
     0.065241    0.067793    0.068660    0.074756    0.078892    0.082405
     0.084410    0.095262    0.096695    0.125963    0.160000    0.160000
     0.160000    0.219052    0.224099    0.270295    0.288674    0.313536
     0.343340    0.343944    0.343979    0.344001    0.344167    0.348754
     1.010691

 Minimum Search - Taking P-RFO Step
 Searching for Lamda that Maximizes Along the Constraint modes Only
 Value Taken    Lamda =   0.02453885
 Searching for Lamda that Minimizes Along All other modes
 Value Taken    Lamda =  -0.01167577
 Step Taken.  Stepsize is  0.185390

                             Maximum     Tolerance    Cnvgd?
         Gradient            0.188973       0.000300      NO
         Displacement        0.185381       0.001200      NO
         Energy change     *********       0.000001      NO


 New Cartesian Coordinates Obtained by Inverse Iteration

 Displacement from previous Coordinates is:  0.230403
 ----------------------------------------------------------------
             Standard Nuclear Orientation (Angstroms)
    I     Atom           X                Y                Z
 ----------------------------------------------------------------
    1      S       3.1099780265     0.4908600011    -0.0359850791
    2      C      -0.7892077291     0.4154802636    -0.0055116733
    3      C       0.1514692726    -0.7235505019    -0.0194261507
    4      C      -2.2519094088    -0.1169672148     0.0475625618
    5      H      -0.6079397410     1.0479800277     0.8678147725
    6      H      -0.6662577388     1.0287835495    -0.9025470338
    7      H       0.4023793344    -1.2360269592     0.8893535008
    8      H       0.3786890746    -1.2388112212    -0.9286060769
    9      H      -2.4260225542    -0.7141579635     0.9470282836
   10      H      -2.9414236276     0.7324969389     0.0620065608
   11      H      -2.4854881764    -0.7325989975    -0.8256482354
   12      H       2.8383332679     0.9503100773    -1.2730394303
 ----------------------------------------------------------------
 Nuclear Repulsion Energy =   137.6220284584 hartrees
 There are       21 alpha and       21 beta electrons

                       Distance Matrix (Angstroms)
             S (  1)   C (  2)   C (  3)   C (  4)   H (  5)   H (  6)
   C (  2)  3.900033
   C (  3)  3.198100  1.477314
   C (  4)  5.396876  1.557502  2.479649
   H (  5)  3.866542  1.093441  2.121843  2.175443
   H (  6)  3.911553  1.093586  2.125854  2.174798  1.771426
   H (  7)  3.342077  2.224441  1.073065  3.001026  2.497578  3.079328
   H (  8)  3.353874  2.225481  1.069453  3.021835  3.070827  2.496914
   H (  9)  5.750277  2.205125  2.752742  1.093614  2.533146  3.091205
   H ( 10)  6.057017  2.176486  3.419458  1.094179  2.488776  2.488881
   H ( 11)  5.781839  2.206372  2.757466  1.093645  3.092486  2.533373
   H ( 12)  1.347289  3.879655  3.404790  5.365971  4.058275  3.524994
             H (  7)   H (  8)   H (  9)   H ( 10)   H ( 11)
   H (  8)  1.818116
   H (  9)  2.876722  3.414626
   H ( 10)  3.967443  3.986291  1.772488
   H ( 11)  3.396240  2.910389  1.773770  1.772657
   H ( 12)  3.922994  3.310700  5.950848  5.935940  5.601376
 
 Applying Cartesian multipole field
    Component          Value
    ---------          -----
     (2,0,0)        1.00000E-11
     (0,2,0)        2.00000E-10
     (0,0,2)       -3.00000E-10
 Nucleus-field energy     =     0.0000000122 hartrees
 Requested basis set is 6-31G(d,p)
 There are 41 shells and 104 basis functions
 A cutoff of  1.0D-14 yielded    799 shell pairs
 There are      5201 function pairs
 Smallest overlap matrix eigenvalue = 6.13E-03
 Guess from superposition of atomic densities
 Warning:  Energy on first SCF cycle will be non-variational
 SAD guess density has 42.000000 electrons

 -----------------------------------------------------------------------
  General SCF calculation program by
  Eric Jon Sundstrom, Paul Horn, Yuezhi Mao, Dmitri Zuev, Alec White,
  David Stuck, Shaama M.S., Shane Yost, Joonho Lee, David Small,
  Daniel Levine, Susi Lehtola, Hugh Burton, Evgeny Epifanovsky
 -----------------------------------------------------------------------
 Exchange:     0.2000 Hartree-Fock + 0.0800 Slater + 0.7200 B88
 Correlation:  0.1900 VWN1RPA + 0.8100 LYP
 Using SG-1 standard quadrature grid
 using 12 threads for integral computing
 -------------------------------------------------------
 OpenMP Integral computing Module                
 Release: version 1.0, May 2013, Q-Chem Inc. Pittsburgh 
 -------------------------------------------------------
 -------------------------------------------------------
 OpenMP BLAS3 based DFT computing Module                
 Release: version 1.0, May 2013, Q-Chem Inc. Pittsburgh 
 -------------------------------------------------------
 A unrestricted SCF calculation will be
 performed using DIIS
 SCF converges when DIIS error is below 1.0e-06
 Alpha HF Exchange    Energy =  -4.32208568716963
 Beta HF Exchange     Energy =  -4.32208568716963
 DFT Correlation      Energy =  -1.85758783146863
 DFT Exchange         Energy = -33.94999526270232
 One-Electron (alpha) Energy = -488.91251214050948
 One-Electron (beta)  Energy = -488.91251214050948
 Total Coulomb        Energy = 367.20232162341824
 ---------------------------------------
  Cycle       Energy         DIIS error
 ---------------------------------------
    1    -517.4524286555      2.84e-02  
 Alpha HF Exchange    Energy =  -4.35482787675481
 Beta HF Exchange     Energy =  -4.35482787675482
 DFT Correlation      Energy =  -1.88537561850843
 DFT Exchange         Energy = -34.56000583308192
 One-Electron (alpha) Energy = -492.64335781217977
 One-Electron (beta)  Energy = -492.64335781218011
 Total Coulomb        Energy = 375.68309549272772
    2    -517.1366288661      3.52e-03  
 Alpha HF Exchange    Energy =  -4.31035284472987
 Beta HF Exchange     Energy =  -4.31035284472987
 DFT Correlation      Energy =  -1.86772926956194
 DFT Exchange         Energy = -34.17797576455988
 One-Electron (alpha) Energy = -488.54921403645886
 One-Electron (beta)  Energy = -488.54921403645892
 Total Coulomb        Energy = 367.47689468359448
    3    -516.6659156423      7.51e-03  
 Alpha HF Exchange    Energy =  -4.31455206389179
 Beta HF Exchange     Energy =  -4.31455206389179
 DFT Correlation      Energy =  -1.86635295256554
 DFT Exchange         Energy = -34.21530518299862
 One-Electron (alpha) Energy = -490.11599840274857
 One-Electron (beta)  Energy = -490.11599840274886
 Total Coulomb        Energy = 370.17226443346306
    4    -517.1484661648      3.20e-03  
 Alpha HF Exchange    Energy =  -4.31905452511290
 Beta HF Exchange     Energy =  -4.31905452511290
 DFT Correlation      Energy =  -1.87388161660759
 DFT Exchange         Energy = -34.29758825675775
 One-Electron (alpha) Energy = -490.57870163272094
 One-Electron (beta)  Energy = -490.57870163272094
 Total Coulomb        Energy = 371.11502808644559
    5    -517.2299256320      9.09e-04  
 Alpha HF Exchange    Energy =  -4.32125278546960
 Beta HF Exchange     Energy =  -4.32125278546959
 DFT Correlation      Energy =  -1.87389057880408
 DFT Exchange         Energy = -34.31027223928224
 One-Electron (alpha) Energy = -490.74852924306219
 One-Electron (beta)  Energy = -490.74852924306202
 Total Coulomb        Energy = 371.46451224457564
    6    -517.2371861600      2.16e-04  
 Alpha HF Exchange    Energy =  -4.32044788911985
 Beta HF Exchange     Energy =  -4.32044788911986
 DFT Correlation      Energy =  -1.87370051384992
 DFT Exchange         Energy = -34.30425572953344
 One-Electron (alpha) Energy = -490.68031886662072
 One-Electron (beta)  Energy = -490.68031886662106
 Total Coulomb        Energy = 371.32032286423663
    7    -517.2371384200      1.85e-04  
 Alpha HF Exchange    Energy =  -4.32078250740256
 Beta HF Exchange     Energy =  -4.32078250740256
 DFT Correlation      Energy =  -1.87370263483870
 DFT Exchange         Energy = -34.30584791411754
 One-Electron (alpha) Energy = -490.70808648509052
 One-Electron (beta)  Energy = -490.70808648509052
 Total Coulomb        Energy = 371.37783015931984
    8    -517.2374299040      5.38e-05  
 Alpha HF Exchange    Energy =  -4.32086811928335
 Beta HF Exchange     Energy =  -4.32086811928335
 DFT Correlation      Energy =  -1.87368020569278
 DFT Exchange         Energy = -34.30610754552559
 One-Electron (alpha) Energy = -490.71150537249406
 One-Electron (beta)  Energy = -490.71150537249451
 Total Coulomb        Energy = 371.38505077878608
    9    -517.2374554854      7.96e-06  
 Alpha HF Exchange    Energy =  -4.32087888723041
 Beta HF Exchange     Energy =  -4.32087888723041
 DFT Correlation      Energy =  -1.87367888087479
 DFT Exchange         Energy = -34.30615075097393
 One-Electron (alpha) Energy = -490.71240433694874
 One-Electron (beta)  Energy = -490.71240433694857
 Total Coulomb        Energy = 371.38691168738092
   10    -517.2374559222      1.50e-06  
 Alpha HF Exchange    Energy =  -4.32088088889071
 Beta HF Exchange     Energy =  -4.32088088889071
 DFT Correlation      Energy =  -1.87367902622656
 DFT Exchange         Energy = -34.30616131548247
 One-Electron (alpha) Energy = -490.71255660060973
 One-Electron (beta)  Energy = -490.71255660060967
 Total Coulomb        Energy = 371.38723091327188
   11    -517.2374559368      2.51e-07  Convergence criterion met
 ---------------------------------------
 SCF time:   CPU 25.80s  wall 2.00s 
<S^2> =          0.000000000
 Alpha HF Exchange    Energy =  -4.32088088889071
 Beta HF Exchange     Energy =  -4.32088088889071
 DFT Correlation      Energy =  -1.87367902622656
 DFT Exchange         Energy = -34.30616131548247
 One-Electron (alpha) Energy = -490.71255660060973
 One-Electron (beta)  Energy = -490.71255660060967
 Total Coulomb        Energy = 371.38723091327188
 Nuclear repulsion Energy = 137.62202847062227
 SCF   energy in the final basis set =     -517.2374559368
 Total energy in the final basis set =     -517.2374559368
 
 --------------------------------------------------------------
 
                    Orbital Energies (a.u.)
 --------------------------------------------------------------
 
 Alpha MOs
 -- Occupied --
-88.843 -10.271 -10.225 -10.215  -7.902  -5.865  -5.865  -5.856
 -0.824  -0.711  -0.655  -0.620  -0.508  -0.469  -0.435  -0.411
 -0.390  -0.372  -0.348  -0.226  -0.207
 -- Virtual --
 -0.132   0.074   0.088   0.113   0.118   0.129   0.152   0.153
  0.191   0.193   0.238   0.327   0.373   0.400   0.411   0.486
  0.498   0.503   0.531   0.564   0.625   0.663   0.702   0.741
  0.762   0.790   0.794   0.795   0.823   0.836   0.842   0.849
  0.880   0.890   0.918   0.961   0.976   1.157   1.199   1.261
  1.383   1.452   1.503   1.576   1.636   1.777   1.836   1.930
  1.950   2.000   2.018   2.033   2.087   2.092   2.121   2.126
  2.190   2.218   2.254   2.363   2.409   2.418   2.488   2.553
  2.640   2.693   2.708   2.766   2.777   2.840   2.845   2.893
  3.158   3.229   3.329   3.351   3.437   3.457   3.522   3.997
  4.216   4.398   4.573
 
 Beta MOs
 -- Occupied --
-88.843 -10.271 -10.225 -10.215  -7.902  -5.865  -5.865  -5.856
 -0.824  -0.711  -0.655  -0.620  -0.508  -0.469  -0.435  -0.411
 -0.390  -0.372  -0.348  -0.226  -0.207
 -- Virtual --
 -0.132   0.074   0.088   0.113   0.118   0.129   0.152   0.153
  0.191   0.193   0.238   0.327   0.373   0.400   0.411   0.486
  0.498   0.503   0.531   0.564   0.625   0.663   0.702   0.741
  0.762   0.790   0.794   0.795   0.823   0.836   0.842   0.849
  0.880   0.890   0.918   0.961   0.976   1.157   1.199   1.261
  1.383   1.452   1.503   1.576   1.636   1.777   1.836   1.930
  1.950   2.000   2.018   2.033   2.087   2.092   2.121   2.126
  2.190   2.218   2.254   2.363   2.409   2.418   2.488   2.553
  2.640   2.693   2.708   2.766   2.777   2.840   2.845   2.893
  3.158   3.229   3.329   3.351   3.437   3.457   3.522   3.997
  4.216   4.398   4.573
 --------------------------------------------------------------
 
          Ground-State Mulliken Net Atomic Charges

     Atom                 Charge (a.u.)    Spin (a.u.)
  --------------------------------------------------------
      1 S                    -0.377594       0.000000
      2 C                    -0.213461       0.000000
      3 C                    -0.121486      -0.000000
      4 C                    -0.332768      -0.000000
      5 H                     0.151548      -0.000000
      6 H                     0.139451      -0.000000
      7 H                     0.168058      -0.000000
      8 H                     0.164766       0.000000
      9 H                     0.124173       0.000000
     10 H                     0.132512      -0.000000
     11 H                     0.122591      -0.000000
     12 H                     0.042211       0.000000
  --------------------------------------------------------
  Sum of atomic charges =     0.000000
  Sum of spin   charges =    -0.000000

 -----------------------------------------------------------------
                    Cartesian Multipole Moments
 -----------------------------------------------------------------
    Charge (ESU x 10^10)
                 0.0000
    Dipole Moment (Debye)
         X      -5.5401      Y      -1.0716      Z      -0.7232
       Tot       5.6889
    Quadrupole Moments (Debye-Ang)
        XX     -48.2937     XY      -1.4795     YY     -34.1384
        XZ      -1.9137     YZ      -1.5806     ZZ     -32.1102
    Octopole Moments (Debye-Ang^2)
       XXX    -125.1282    XXY      -4.3337    XYY     -28.0635
       YYY     -15.9069    XXZ      -3.1361    XYZ      -4.8173
       YYZ      -0.2941    XZZ     -21.1524    YZZ      -4.8400
       ZZZ       2.6864
    Hexadecapole Moments (Debye-Ang^3)
      XXXX   -1300.2072   XXXY     -65.3695   XXYY    -218.3694
      XYYY     -70.7270   YYYY    -116.8109   XXXZ       5.2211
      XXYZ     -13.2620   XYYZ       0.4316   YYYZ       1.0345
      XXZZ    -191.6209   XYZZ     -18.4414   YYZZ     -26.3377
      XZZZ      12.2988   YZZZ       1.0182   ZZZZ     -62.4473
 -----------------------------------------------------------------
 Calculating analytic gradient of the SCF energy
 Gradient of SCF Energy
            1           2           3           4           5           6
    1   0.0289867  -0.0017003  -0.0236251   0.0005400   0.0001538   0.0001040
    2   0.0122123   0.0002424  -0.0205447   0.0003007   0.0000401   0.0000486
    3  -0.0015017  -0.0000170  -0.0025007  -0.0000525  -0.0001915   0.0001584
            7           8           9          10          11          12
    1  -0.0016970  -0.0022033  -0.0000591  -0.0000833  -0.0000665  -0.0003499
    2   0.0036449   0.0050436  -0.0000293  -0.0000717  -0.0000557  -0.0008311
    3  -0.0073370   0.0098256   0.0000565  -0.0000022  -0.0000235   0.0015855
 Max gradient component =       2.899E-02
 RMS gradient           =       7.785E-03
 Gradient time:  CPU 8.27 s  wall 0.73 s
 Geometry Optimization Parameters
   NAtoms,    NIC,     NZ,  NCons,   NDum,   NFix, NCnnct, MaxDiis
       12     131       0       1       0       0       0       0

 Cartesian Hessian Update
 Hessian Updated using BFGS Update


** CONSTRAINED OPTIMIZATION IN DELOCALIZED INTERNAL COORDINATES **
   Searching for a Minimum

   Optimization Cycle:   2

                       Coordinates (Angstroms)
     ATOM                X               Y               Z
      1  S         3.1099780265    0.4908600011   -0.0359850791
      2  C        -0.7892077291    0.4154802636   -0.0055116733
      3  C         0.1514692726   -0.7235505019   -0.0194261507
      4  C        -2.2519094088   -0.1169672148    0.0475625618
      5  H        -0.6079397410    1.0479800277    0.8678147725
      6  H        -0.6662577388    1.0287835495   -0.9025470338
      7  H         0.4023793344   -1.2360269592    0.8893535008
      8  H         0.3786890746   -1.2388112212   -0.9286060769
      9  H        -2.4260225542   -0.7141579635    0.9470282836
     10  H        -2.9414236276    0.7324969389    0.0620065608
     11  H        -2.4854881764   -0.7325989975   -0.8256482354
     12  H         2.8383332679    0.9503100773   -1.2730394303
   Point Group: c1    Number of degrees of freedom:    30


   Energy is   -517.237455937

              Constraints and their Current Values
                                        Value     Constraint
   Distance(Angs):        1   3             3.198100     3.200000
 Hessian Updated using BFGS Update

   Using Lagrange Multiplier Algorithm


 30 Hessian modes will be used to form the next step
  Hessian Eigenvalues:
    -0.998532    0.041971    0.045000    0.045000    0.047004    0.058530
     0.065336    0.067793    0.068846    0.074780    0.079144    0.082405
     0.084410    0.095490    0.096710    0.125968    0.160000    0.160026
     0.219052    0.224815    0.270314    0.292682    0.343340    0.343942
     0.343978    0.343999    0.344165    0.348490    0.993542    1.266722

 Minimum Search - Taking P-RFO Step
 Searching for Lamda that Maximizes Along the Constraint modes Only
 Value Taken    Lamda =   0.00000200
 Searching for Lamda that Minimizes Along All other modes
 Value Taken    Lamda =  -0.00014948
 Step Taken.  Stepsize is  0.011742

                             Maximum     Tolerance    Cnvgd?
         Gradient            0.011669       0.000300      NO
         Displacement        0.009467       0.001200      NO
         Energy change      0.006252       0.000001      NO


 New Cartesian Coordinates Obtained by Inverse Iteration

 Displacement from previous Coordinates is:  0.009201
 ----------------------------------------------------------------
             Standard Nuclear Orientation (Angstroms)
    I     Atom           X                Y                Z
 ----------------------------------------------------------------
    1      S       3.1109883714     0.4916050640    -0.0355744685
    2      C      -0.7893798147     0.4154946853    -0.0055038835
    3      C       0.1506978148    -0.7234734540    -0.0193715120
    4      C      -2.2523736238    -0.1168370791     0.0476840717
    5      H      -0.6083194109     1.0478982154     0.8679727652
    6      H      -0.6665781828     1.0286418414    -0.9026984717
    7      H       0.4027479712    -1.2366990597     0.8918706751
    8      H       0.3795049659    -1.2401051157    -0.9316564776
    9      H      -2.4264334041    -0.7139217374     0.9471959665
   10      H      -2.9415574425     0.7328946072     0.0621402842
   11      H      -2.4860217787    -0.7324176189    -0.8255071610
   12      H       2.8393245342     0.9507176513    -1.2735497884
 ----------------------------------------------------------------
 Nuclear Repulsion Energy =   137.5751916474 hartrees
 There are       21 alpha and       21 beta electrons

                       Distance Matrix (Angstroms)
             S (  1)   C (  2)   C (  3)   C (  4)   H (  5)   H (  6)
   C (  2)  3.901227
   C (  3)  3.200000  1.476884
   C (  4)  5.398406  1.557741  2.479366
   H (  5)  3.867701  1.093471  2.121614  2.175407
   H (  6)  3.912841  1.093612  2.125586  2.174878  1.771734
   H (  7)  3.343913  2.226251  1.075775  3.002734  2.498442  3.081510
   H (  8)  3.356007  2.228242  1.073091  3.024504  3.073991  2.498468
   H (  9)  5.751710  2.205258  2.752444  1.093585  2.532948  3.091234
   H ( 10)  6.058142  2.176508  3.419020  1.094179  2.488492  2.488757
   H ( 11)  5.783489  2.206514  2.757213  1.093615  3.092437  2.533311
   H ( 12)  1.348024  3.880966  3.406551  5.367562  4.059780  3.526323
             H (  7)   H (  8)   H (  9)   H ( 10)   H ( 11)
   H (  8)  1.823678
   H (  9)  2.877607  3.417637
   H ( 10)  3.968895  3.988711  1.772556
   H ( 11)  3.398334  2.912088  1.773801  1.772730
   H ( 12)  3.925652  3.311693  5.952390  5.937180  5.602946
 
 Applying Cartesian multipole field
    Component          Value
    ---------          -----
     (2,0,0)        1.00000E-11
     (0,2,0)        2.00000E-10
     (0,0,2)       -3.00000E-10
 Nucleus-field energy     =     0.0000000122 hartrees
 Requested basis set is 6-31G(d,p)
 There are 41 shells and 104 basis functions
 A cutoff of  1.0D-14 yielded    799 shell pairs
 There are      5201 function pairs
 Smallest overlap matrix eigenvalue = 6.13E-03
 Guess from superposition of atomic densities
 Warning:  Energy on first SCF cycle will be non-variational
 SAD guess density has 42.000000 electrons

 -----------------------------------------------------------------------
  General SCF calculation program by
  Eric Jon Sundstrom, Paul Horn, Yuezhi Mao, Dmitri Zuev, Alec White,
  David Stuck, Shaama M.S., Shane Yost, Joonho Lee, David Small,
  Daniel Levine, Susi Lehtola, Hugh Burton, Evgeny Epifanovsky
 -----------------------------------------------------------------------
 Exchange:     0.2000 Hartree-Fock + 0.0800 Slater + 0.7200 B88
 Correlation:  0.1900 VWN1RPA + 0.8100 LYP
 Using SG-1 standard quadrature grid
 using 12 threads for integral computing
 -------------------------------------------------------
 OpenMP Integral computing Module                
 Release: version 1.0, May 2013, Q-Chem Inc. Pittsburgh 
 -------------------------------------------------------
 -------------------------------------------------------
 OpenMP BLAS3 based DFT computing Module                
 Release: version 1.0, May 2013, Q-Chem Inc. Pittsburgh 
 -------------------------------------------------------
 A unrestricted SCF calculation will be
 performed using DIIS
 SCF converges when DIIS error is below 1.0e-06
 Alpha HF Exchange    Energy =  -4.32169409379801
 Beta HF Exchange     Energy =  -4.32169409379801
 DFT Correlation      Energy =  -1.85749673309816
 DFT Exchange         Energy = -33.94911698187529
 One-Electron (alpha) Energy = -488.86941313194950
 One-Electron (beta)  Energy = -488.86941313194950
 Total Coulomb        Energy = 367.16372576371640
 ---------------------------------------
  Cycle       Energy         DIIS error
 ---------------------------------------
    1    -517.4499107432      2.83e-02  
 Alpha HF Exchange    Energy =  -4.35461022435288
 Beta HF Exchange     Energy =  -4.35461022435288
 DFT Correlation      Energy =  -1.88524818975475
 DFT Exchange         Energy = -34.55804146926771
 One-Electron (alpha) Energy = -492.60012548516778
 One-Electron (beta)  Energy = -492.60012548516772
 Total Coulomb        Energy = 375.64182852461818
    2    -517.1357408939      3.53e-03  
 Alpha HF Exchange    Energy =  -4.31032879447295
 Beta HF Exchange     Energy =  -4.31032879447294
 DFT Correlation      Energy =  -1.86767822655682
 DFT Exchange         Energy = -34.17746921636884
 One-Electron (alpha) Energy = -488.50325493702121
 One-Electron (beta)  Energy = -488.50325493702121
 Total Coulomb        Energy = 367.43876358013813
    3    -516.6583596662      7.55e-03  
 Alpha HF Exchange    Energy =  -4.31416100009998
 Beta HF Exchange     Energy =  -4.31416100009998
 DFT Correlation      Energy =  -1.86620514307514
 DFT Exchange         Energy = -34.21258936844805
 One-Electron (alpha) Energy = -490.06374224046067
 One-Electron (beta)  Energy = -490.06374224046050
 Total Coulomb        Energy = 370.11037355144447
    4    -517.1490357816      3.19e-03  
 Alpha HF Exchange    Energy =  -4.31877622839270
 Beta HF Exchange     Energy =  -4.31877622839271
 DFT Correlation      Energy =  -1.87378363877958
 DFT Exchange         Energy = -34.29578508957813
 One-Electron (alpha) Energy = -490.53273914446288
 One-Electron (beta)  Energy = -490.53273914446322
 Total Coulomb        Energy = 371.06780553930219
    5    -517.2296022752      9.28e-04  
 Alpha HF Exchange    Energy =  -4.32097913650234
 Beta HF Exchange     Energy =  -4.32097913650235
 DFT Correlation      Energy =  -1.87378090397693
 DFT Exchange         Energy = -34.30840005303396
 One-Electron (alpha) Energy = -490.70385155151723
 One-Electron (beta)  Energy = -490.70385155151735
 Total Coulomb        Energy = 371.41946932250983
    6    -517.2371813510      2.17e-04  
 Alpha HF Exchange    Energy =  -4.32016373050028
 Beta HF Exchange     Energy =  -4.32016373050028
 DFT Correlation      Energy =  -1.87358714642916
 DFT Exchange         Energy = -34.30230673141379
 One-Electron (alpha) Energy = -490.63476486208356
 One-Electron (beta)  Energy = -490.63476486208361
 Total Coulomb        Energy = 371.27343525758255
    7    -517.2371241459      1.88e-04  
 Alpha HF Exchange    Energy =  -4.32050622879081
 Beta HF Exchange     Energy =  -4.32050622879081
 DFT Correlation      Energy =  -1.87358920621406
 DFT Exchange         Energy = -34.30393774693110
 One-Electron (alpha) Energy = -490.66313617035723
 One-Electron (beta)  Energy = -490.66313617035752
 Total Coulomb        Energy = 371.33219244379939
    8    -517.2374276481      5.45e-05  
 Alpha HF Exchange    Energy =  -4.32059223112159
 Beta HF Exchange     Energy =  -4.32059223112159
 DFT Correlation      Energy =  -1.87356641036857
 DFT Exchange         Energy = -34.30419641214846
 One-Electron (alpha) Energy = -490.66655296822455
 One-Electron (beta)  Energy = -490.66655296822483
 Total Coulomb        Energy = 371.33940766484102
    9    -517.2374538968      8.18e-06  
 Alpha HF Exchange    Energy =  -4.32060321219078
 Beta HF Exchange     Energy =  -4.32060321219078
 DFT Correlation      Energy =  -1.87356486242016
 DFT Exchange         Energy = -34.30423873987782
 One-Electron (alpha) Energy = -490.66746051503270
 One-Electron (beta)  Energy = -490.66746051503259
 Total Coulomb        Energy = 371.34128503210093
   10    -517.2374543651      1.51e-06  
 Alpha HF Exchange    Energy =  -4.32060526114480
 Beta HF Exchange     Energy =  -4.32060526114480
 DFT Correlation      Energy =  -1.87356498981566
 DFT Exchange         Energy = -34.30424934331705
 One-Electron (alpha) Energy = -490.66761732461964
 One-Electron (beta)  Energy = -490.66761732461975
 Total Coulomb        Energy = 371.34161346506562
   11    -517.2374543800      2.50e-07  Convergence criterion met
 ---------------------------------------
 SCF time:   CPU 25.96s  wall 2.00s 
<S^2> =          0.000000000
 Alpha HF Exchange    Energy =  -4.32060526114480
 Beta HF Exchange     Energy =  -4.32060526114480
 DFT Correlation      Energy =  -1.87356498981566
 DFT Exchange         Energy = -34.30424934331705
 One-Electron (alpha) Energy = -490.66761732461964
 One-Electron (beta)  Energy = -490.66761732461975
 Total Coulomb        Energy = 371.34161346506562
 Nuclear repulsion Energy = 137.57519165955827
 SCF   energy in the final basis set =     -517.2374543800
 Total energy in the final basis set =     -517.2374543800
 
 --------------------------------------------------------------
 
                    Orbital Energies (a.u.)
 --------------------------------------------------------------
 
 Alpha MOs
 -- Occupied --
-88.843 -10.272 -10.225 -10.215  -7.901  -5.865  -5.865  -5.856
 -0.824  -0.710  -0.655  -0.620  -0.508  -0.468  -0.435  -0.411
 -0.391  -0.372  -0.348  -0.226  -0.207
 -- Virtual --
 -0.132   0.074   0.088   0.113   0.117   0.129   0.152   0.153
  0.191   0.193   0.238   0.327   0.373   0.400   0.411   0.486
  0.498   0.503   0.531   0.564   0.625   0.663   0.702   0.741
  0.762   0.790   0.793   0.795   0.822   0.836   0.842   0.848
  0.879   0.890   0.918   0.960   0.976   1.156   1.199   1.261
  1.383   1.452   1.503   1.577   1.636   1.777   1.836   1.927
  1.949   1.999   2.018   2.033   2.086   2.092   2.121   2.126
  2.190   2.218   2.253   2.362   2.408   2.417   2.487   2.550
  2.640   2.691   2.708   2.764   2.775   2.837   2.845   2.890
  3.158   3.226   3.325   3.351   3.436   3.452   3.520   3.997
  4.216   4.398   4.573
 
 Beta MOs
 -- Occupied --
-88.843 -10.272 -10.225 -10.215  -7.901  -5.865  -5.865  -5.856
 -0.824  -0.710  -0.655  -0.620  -0.508  -0.468  -0.435  -0.411
 -0.391  -0.372  -0.348  -0.226  -0.207
 -- Virtual --
 -0.132   0.074   0.088   0.113   0.117   0.129   0.152   0.153
  0.191   0.193   0.238   0.327   0.373   0.400   0.411   0.486
  0.498   0.503   0.531   0.564   0.625   0.663   0.702   0.741
  0.762   0.790   0.793   0.795   0.822   0.836   0.842   0.848
  0.879   0.890   0.918   0.960   0.976   1.156   1.199   1.261
  1.383   1.452   1.503   1.577   1.636   1.777   1.836   1.927
  1.949   1.999   2.018   2.033   2.086   2.092   2.121   2.126
  2.190   2.218   2.253   2.362   2.408   2.417   2.487   2.550
  2.640   2.691   2.708   2.764   2.775   2.837   2.845   2.890
  3.158   3.226   3.325   3.351   3.436   3.452   3.520   3.997
  4.216   4.398   4.573
 --------------------------------------------------------------
 
          Ground-State Mulliken Net Atomic Charges

     Atom                 Charge (a.u.)    Spin (a.u.)
  --------------------------------------------------------
      1 S                    -0.377883      -0.000000
      2 C                    -0.213266      -0.000000
      3 C                    -0.121707      -0.000000
      4 C                    -0.332778       0.000000
      5 H                     0.151656       0.000000
      6 H                     0.139568      -0.000000
      7 H                     0.168111      -0.000000
      8 H                     0.164764       0.000000
      9 H                     0.124224      -0.000000
     10 H                     0.132540       0.000000
     11 H                     0.122653      -0.000000
     12 H                     0.042118       0.000000
  --------------------------------------------------------
  Sum of atomic charges =     0.000000
  Sum of spin   charges =    -0.000000

 -----------------------------------------------------------------
                    Cartesian Multipole Moments
 -----------------------------------------------------------------
    Charge (ESU x 10^10)
                -0.0000
    Dipole Moment (Debye)
         X      -5.5482      Y      -1.0736      Z      -0.7230
       Tot       5.6972
    Quadrupole Moments (Debye-Ang)
        XX     -48.3226     XY      -1.4912     YY     -34.1467
        XZ      -1.9146     YZ      -1.5791     ZZ     -32.1061
    Octopole Moments (Debye-Ang^2)
       XXX    -125.2832    XXY      -4.3687    XYY     -28.0870
       YYY     -15.9297    XXZ      -3.1422    XYZ      -4.8148
       YYZ      -0.3011    XZZ     -21.1603    YZZ      -4.8578
       ZZZ       2.6723
    Hexadecapole Moments (Debye-Ang^3)
      XXXX   -1301.3488   XXXY     -65.5803   XXYY    -218.5448
      XYYY     -70.8775   YYYY    -116.9586   XXXZ       5.1889
      XXYZ     -13.2596   XYYZ       0.4159   YYYZ       1.0296
      XXZZ    -191.7384   XYZZ     -18.4900   YYZZ     -26.3520
      XZZZ      12.2709   YZZZ       1.0144   ZZZZ     -62.5016
 -----------------------------------------------------------------
 Calculating analytic gradient of the SCF energy
 Gradient of SCF Energy
            1           2           3           4           5           6
    1   0.0290058  -0.0014764  -0.0247617   0.0004804   0.0001281   0.0000958
    2   0.0120552   0.0001718  -0.0182793   0.0002498   0.0000376   0.0000394
    3  -0.0011470   0.0000021  -0.0019100  -0.0000437  -0.0001603   0.0001269
            7           8           9          10          11          12
    1  -0.0012368  -0.0016161  -0.0000542  -0.0000750  -0.0000608  -0.0004291
    2   0.0027716   0.0037903  -0.0000237  -0.0000608  -0.0000501  -0.0007017
    3  -0.0055811   0.0074482   0.0000488  -0.0000025  -0.0000163   0.0012350
 Max gradient component =       2.901E-02
 RMS gradient           =       7.558E-03
 Gradient time:  CPU 8.27 s  wall 0.73 s
 Geometry Optimization Parameters
   NAtoms,    NIC,     NZ,  NCons,   NDum,   NFix, NCnnct, MaxDiis
       12     131       0       1       0       0       0       0

 Cartesian Hessian Update
 Hessian Updated using BFGS Update


** CONSTRAINED OPTIMIZATION IN DELOCALIZED INTERNAL COORDINATES **
   Searching for a Minimum

   Optimization Cycle:   3

                       Coordinates (Angstroms)
     ATOM                X               Y               Z
      1  S         3.1109883714    0.4916050640   -0.0355744685
      2  C        -0.7893798147    0.4154946853   -0.0055038835
      3  C         0.1506978148   -0.7234734540   -0.0193715120
      4  C        -2.2523736238   -0.1168370791    0.0476840717
      5  H        -0.6083194109    1.0478982154    0.8679727652
      6  H        -0.6665781828    1.0286418414   -0.9026984717
      7  H         0.4027479712   -1.2366990597    0.8918706751
      8  H         0.3795049659   -1.2401051157   -0.9316564776
      9  H        -2.4264334041   -0.7139217374    0.9471959665
     10  H        -2.9415574425    0.7328946072    0.0621402842
     11  H        -2.4860217787   -0.7324176189   -0.8255071610
     12  H         2.8393245342    0.9507176513   -1.2735497884
   Point Group: c1    Number of degrees of freedom:    30


   Energy is   -517.237454380

              Constraints and their Current Values
                                        Value     Constraint
   Distance(Angs):        1   3             3.200000     3.200000
 Hessian Updated using BFGS Update

 29 Hessian modes will be used to form the next step
  Hessian Eigenvalues:
     0.041101    0.044991    0.045000    0.046977    0.058158    0.065249
     0.067778    0.068092    0.074567    0.078541    0.082404    0.084410
     0.094485    0.096649    0.125968    0.159864    0.160000    0.160001
     0.219049    0.224644    0.269414    0.291587    0.339228    0.343351
     0.343959    0.343993    0.344084    0.344173    0.354074

 Minimum Search - Taking Simple RFO Step
 Searching for Lamda that Minimizes Along All modes
 Value Taken    Lamda =  -0.00031100
 Step Taken.  Stepsize is  0.038084

                             Maximum     Tolerance    Cnvgd?
         Gradient           0.008848      0.000300      NO
         Displacement       0.028299      0.001200      NO
         Energy change      0.000002      0.000001      NO


 New Cartesian Coordinates Obtained by Inverse Iteration

 Displacement from previous Coordinates is:  0.033378
 ----------------------------------------------------------------
             Standard Nuclear Orientation (Angstroms)
    I     Atom           X                Y                Z
 ----------------------------------------------------------------
    1      S       3.1069132024     0.4954464053    -0.0339108353
    2      C      -0.7880625544     0.4145766184    -0.0057188939
    3      C       0.1487442516    -0.7248042648    -0.0189682591
    4      C      -2.2528450203    -0.1157716859     0.0479603018
    5      H      -0.6072889492     1.0466606828     0.8682006257
    6      H      -0.6653841217     1.0268884157    -0.9036191919
    7      H       0.4027626113    -1.2405316156     0.9004075101
    8      H       0.3814117865    -1.2463767251    -0.9409593790
    9      H      -2.4272009306    -0.7120413365     0.9478088803
   10      H      -2.9397146453     0.7358118460     0.0622437887
   11      H      -2.4872135797    -0.7310775997    -0.8250691604
   12      H       2.8404779494     0.9550172594    -1.2753733870
 ----------------------------------------------------------------
 Nuclear Repulsion Energy =   137.5285795808 hartrees
 There are       21 alpha and       21 beta electrons

                       Distance Matrix (Angstroms)
             S (  1)   C (  2)   C (  3)   C (  4)   H (  5)   H (  6)
   C (  2)  3.895917
   C (  3)  3.200000  1.475117
   C (  4)  5.395118  1.558762  2.478514
   H (  5)  3.861728  1.093593  2.120552  2.175293
   H (  6)  3.907563  1.093710  2.124580  2.175134  1.772882
   H (  7)  3.346491  2.231258  1.084321  3.007325  2.500498  3.088146
   H (  8)  3.359322  2.236316  1.084546  3.032415  3.083603  2.502980
   H (  9)  5.748758  2.205733  2.751420  1.093465  2.532084  3.091223
   H ( 10)  6.052167  2.176561  3.417393  1.094161  2.487248  2.488010
   H ( 11)  5.781397  2.207028  2.756467  1.093485  3.092189  2.532919
   H ( 12)  1.350342  3.882062  3.412592  5.370264  4.060838  3.526249
             H (  7)   H (  8)   H (  9)   H ( 10)   H ( 11)
   H (  8)  1.841500
   H (  9)  2.879278  3.426553
   H ( 10)  3.972481  3.995669  1.772900
   H ( 11)  3.404229  2.916843  1.773996  1.773089
   H ( 12)  3.936612  3.317375  5.955675  5.936994  5.606245
 
 Applying Cartesian multipole field
    Component          Value
    ---------          -----
     (2,0,0)        1.00000E-11
     (0,2,0)        2.00000E-10
     (0,0,2)       -3.00000E-10
 Nucleus-field energy     =     0.0000000122 hartrees
 Requested basis set is 6-31G(d,p)
 There are 41 shells and 104 basis functions
 A cutoff of  1.0D-14 yielded    799 shell pairs
 There are      5201 function pairs
 Smallest overlap matrix eigenvalue = 6.11E-03
 Guess from superposition of atomic densities
 Warning:  Energy on first SCF cycle will be non-variational
 SAD guess density has 42.000000 electrons

 -----------------------------------------------------------------------
  General SCF calculation program by
  Eric Jon Sundstrom, Paul Horn, Yuezhi Mao, Dmitri Zuev, Alec White,
  David Stuck, Shaama M.S., Shane Yost, Joonho Lee, David Small,
  Daniel Levine, Susi Lehtola, Hugh Burton, Evgeny Epifanovsky
 -----------------------------------------------------------------------
 Exchange:     0.2000 Hartree-Fock + 0.0800 Slater + 0.7200 B88
 Correlation:  0.1900 VWN1RPA + 0.8100 LYP
 Using SG-1 standard quadrature grid
 using 12 threads for integral computing
 -------------------------------------------------------
 OpenMP Integral computing Module                
 Release: version 1.0, May 2013, Q-Chem Inc. Pittsburgh 
 -------------------------------------------------------
 -------------------------------------------------------
 OpenMP BLAS3 based DFT computing Module                
 Release: version 1.0, May 2013, Q-Chem Inc. Pittsburgh 
 -------------------------------------------------------
 A unrestricted SCF calculation will be
 performed using DIIS
 SCF converges when DIIS error is below 1.0e-06
 Alpha HF Exchange    Energy =  -4.32051870413824
 Beta HF Exchange     Energy =  -4.32051870413824
 DFT Correlation      Energy =  -1.85725042359801
 DFT Exchange         Energy = -33.94645630374025
 One-Electron (alpha) Energy = -488.83411240709006
 One-Electron (beta)  Energy = -488.83411240709006
 Total Coulomb        Energy = 367.14204986586248
 ---------------------------------------
  Cycle       Energy         DIIS error
 ---------------------------------------
    1    -517.4423394909      2.82e-02  
 Alpha HF Exchange    Energy =  -4.35388836676383
 Beta HF Exchange     Energy =  -4.35388836676383
 DFT Correlation      Energy =  -1.88489609626377
 DFT Exchange         Energy = -34.55186312347684
 One-Electron (alpha) Energy = -492.56406072472976
 One-Electron (beta)  Energy = -492.56406072472925
 Total Coulomb        Energy = 375.61019827878005
    2    -517.1338795309      3.55e-03  
 Alpha HF Exchange    Energy =  -4.31001215543123
 Beta HF Exchange     Energy =  -4.31001215543123
 DFT Correlation      Energy =  -1.86749604314408
 DFT Exchange         Energy = -34.17467349217031
 One-Electron (alpha) Energy = -488.46075089204788
 One-Electron (beta)  Energy = -488.46075089204794
 Total Coulomb        Energy = 367.41231961072924
    3    -516.6427964265      7.65e-03  
 Alpha HF Exchange    Energy =  -4.31305945653280
 Beta HF Exchange     Energy =  -4.31305945653280
 DFT Correlation      Energy =  -1.86581454125281
 DFT Exchange         Energy = -34.20496319954782
 One-Electron (alpha) Energy = -490.00661399844876
 One-Electron (beta)  Energy = -490.00661399844904
 Total Coulomb        Energy = 370.03073595779478
    4    -517.1508091000      3.18e-03  
 Alpha HF Exchange    Energy =  -4.31796924919221
 Beta HF Exchange     Energy =  -4.31796924919222
 DFT Correlation      Energy =  -1.87350155151886
 DFT Exchange         Energy = -34.29029439428007
 One-Electron (alpha) Energy = -490.49148767835129
 One-Electron (beta)  Energy = -490.49148767835197
 Total Coulomb        Energy = 371.02498690179891
    5    -517.2291433061      9.64e-04  
 Alpha HF Exchange    Energy =  -4.32017600412251
 Beta HF Exchange     Energy =  -4.32017600412251
 DFT Correlation      Energy =  -1.87347496507185
 DFT Exchange         Energy = -34.30272993104765
 One-Electron (alpha) Energy = -490.66503125557705
 One-Electron (beta)  Energy = -490.66503125557705
 Total Coulomb        Energy = 371.38070001094297
    6    -517.2373398116      2.19e-04  
 Alpha HF Exchange    Energy =  -4.31933555625539
 Beta HF Exchange     Energy =  -4.31933555625539
 DFT Correlation      Energy =  -1.87327091236648
 DFT Exchange         Energy = -34.29644607294115
 One-Electron (alpha) Energy = -490.59379440598246
 One-Electron (beta)  Energy = -490.59379440598241
 Total Coulomb        Energy = 371.23012975715085
    7    -517.2372675596      1.94e-04  
 Alpha HF Exchange    Energy =  -4.31969071893890
 Beta HF Exchange     Energy =  -4.31969071893890
 DFT Correlation      Energy =  -1.87327292843877
 DFT Exchange         Energy = -34.29814073914697
 One-Electron (alpha) Energy = -490.62318937853280
 One-Electron (beta)  Energy = -490.62318937853280
 Total Coulomb        Energy = 371.29100421264604
    8    -517.2375900569      5.54e-05  
 Alpha HF Exchange    Energy =  -4.31977678289937
 Beta HF Exchange     Energy =  -4.31977678289937
 DFT Correlation      Energy =  -1.87324977128006
 DFT Exchange         Energy = -34.29839659072990
 One-Electron (alpha) Energy = -490.62658493798227
 One-Electron (beta)  Energy = -490.62658493798210
 Total Coulomb        Energy = 371.29817300810248
    9    -517.2376172027      8.67e-06  
 Alpha HF Exchange    Energy =  -4.31978815480859
 Beta HF Exchange     Energy =  -4.31978815480859
 DFT Correlation      Energy =  -1.87324769335197
 DFT Exchange         Energy = -34.29843635254261
 One-Electron (alpha) Energy = -490.62750226535195
 One-Electron (beta)  Energy = -490.62750226535212
 Total Coulomb        Energy = 371.30006755030865
   10    -517.2376177429      1.52e-06  
 Alpha HF Exchange    Energy =  -4.31979028463474
 Beta HF Exchange     Energy =  -4.31979028463474
 DFT Correlation      Energy =  -1.87324778824930
 DFT Exchange         Energy = -34.29844699429282
 One-Electron (alpha) Energy = -490.62766831314900
 One-Electron (beta)  Energy = -490.62766831314900
 Total Coulomb        Energy = 371.30041462685028
   11    -517.2376177582      2.50e-07  Convergence criterion met
 ---------------------------------------
 SCF time:   CPU 25.51s  wall 2.00s 
<S^2> =         -0.000000000
 Alpha HF Exchange    Energy =  -4.31979028463474
 Beta HF Exchange     Energy =  -4.31979028463474
 DFT Correlation      Energy =  -1.87324778824930
 DFT Exchange         Energy = -34.29844699429282
 One-Electron (alpha) Energy = -490.62766831314900
 One-Electron (beta)  Energy = -490.62766831314900
 Total Coulomb        Energy = 371.30041462685028
 Nuclear repulsion Energy = 137.52857959301681
 SCF   energy in the final basis set =     -517.2376177582
 Total energy in the final basis set =     -517.2376177582
 
 --------------------------------------------------------------
 
                    Orbital Energies (a.u.)
 --------------------------------------------------------------
 
 Alpha MOs
 -- Occupied --
-88.843 -10.274 -10.225 -10.215  -7.901  -5.865  -5.864  -5.856
 -0.824  -0.709  -0.655  -0.619  -0.507  -0.468  -0.434  -0.411
 -0.391  -0.372  -0.347  -0.226  -0.206
 -- Virtual --
 -0.132   0.073   0.087   0.111   0.115   0.129   0.151   0.153
  0.190   0.192   0.238   0.327   0.374   0.400   0.411   0.485
  0.499   0.503   0.531   0.565   0.625   0.663   0.702   0.740
  0.762   0.790   0.793   0.796   0.819   0.836   0.842   0.848
  0.874   0.889   0.917   0.960   0.977   1.154   1.199   1.261
  1.384   1.452   1.502   1.577   1.635   1.777   1.835   1.917
  1.947   1.996   2.018   2.033   2.084   2.092   2.120   2.125
  2.188   2.218   2.252   2.360   2.404   2.414   2.484   2.541
  2.639   2.684   2.706   2.761   2.770   2.829   2.844   2.885
  3.157   3.214   3.314   3.350   3.435   3.438   3.515   3.997
  4.216   4.397   4.573
 
 Beta MOs
 -- Occupied --
-88.843 -10.274 -10.225 -10.215  -7.901  -5.865  -5.864  -5.856
 -0.824  -0.709  -0.655  -0.619  -0.507  -0.468  -0.434  -0.411
 -0.391  -0.372  -0.347  -0.226  -0.206
 -- Virtual --
 -0.132   0.073   0.087   0.111   0.115   0.129   0.151   0.153
  0.190   0.192   0.238   0.327   0.374   0.400   0.411   0.485
  0.499   0.503   0.531   0.565   0.625   0.663   0.702   0.740
  0.762   0.790   0.793   0.796   0.819   0.836   0.842   0.848
  0.874   0.889   0.917   0.960   0.977   1.154   1.199   1.261
  1.384   1.452   1.502   1.577   1.635   1.777   1.835   1.917
  1.947   1.996   2.018   2.033   2.084   2.092   2.120   2.125
  2.188   2.218   2.252   2.360   2.404   2.414   2.484   2.541
  2.639   2.684   2.706   2.761   2.770   2.829   2.844   2.885
  3.157   3.214   3.314   3.350   3.435   3.438   3.515   3.997
  4.216   4.397   4.573
 --------------------------------------------------------------
 
          Ground-State Mulliken Net Atomic Charges

     Atom                 Charge (a.u.)    Spin (a.u.)
  --------------------------------------------------------
      1 S                    -0.378612      -0.000000
      2 C                    -0.212444       0.000000
      3 C                    -0.122161       0.000000
      4 C                    -0.332879       0.000000
      5 H                     0.151976      -0.000000
      6 H                     0.139870       0.000000
      7 H                     0.168064      -0.000000
      8 H                     0.164600       0.000000
      9 H                     0.124314      -0.000000
     10 H                     0.132589       0.000000
     11 H                     0.122786      -0.000000
     12 H                     0.041898       0.000000
  --------------------------------------------------------
  Sum of atomic charges =    -0.000000
  Sum of spin   charges =    -0.000000

 -----------------------------------------------------------------
                    Cartesian Multipole Moments
 -----------------------------------------------------------------
    Charge (ESU x 10^10)
                 0.0000
    Dipole Moment (Debye)
         X      -5.5554      Y      -1.0817      Z      -0.7230
       Tot       5.7057
    Quadrupole Moments (Debye-Ang)
        XX     -48.3394     XY      -1.5187     YY     -34.1648
        XZ      -1.9214     YZ      -1.5781     ZZ     -32.0906
    Octopole Moments (Debye-Ang^2)
       XXX    -125.1219    XXY      -4.4422    XYY     -28.0430
       YYY     -16.0391    XXZ      -3.1903    XYZ      -4.8084
       YYZ      -0.3362    XZZ     -21.1024    YZZ      -4.9246
       ZZZ       2.6154
    Hexadecapole Moments (Debye-Ang^3)
      XXXX   -1299.4446   XXXY     -66.1019   XXYY    -218.2912
      XYYY     -71.3600   YYYY    -117.6129   XXXZ       4.9003
      XXYZ     -13.2313   XYYZ       0.3259   YYYZ       1.0120
      XXZZ    -191.4395   XYZZ     -18.6461   YYZZ     -26.4224
      XZZZ      12.1063   YZZZ       1.0025   ZZZZ     -62.6709
 -----------------------------------------------------------------
 Calculating analytic gradient of the SCF energy
 Gradient of SCF Energy
            1           2           3           4           5           6
    1   0.0290900  -0.0004328  -0.0285148   0.0001323   0.0000390   0.0000465
    2   0.0116839  -0.0002307  -0.0114323   0.0000296   0.0000192   0.0000103
    3  -0.0000711   0.0000317  -0.0001429  -0.0000134  -0.0000202  -0.0000035
            7           8           9          10          11          12
    1   0.0001322   0.0001541  -0.0000071  -0.0000230  -0.0000127  -0.0006037
    2   0.0001480   0.0000590   0.0000063  -0.0000067  -0.0000183  -0.0002684
    3  -0.0001844   0.0002417   0.0000161  -0.0000042   0.0000145   0.0001356
 Max gradient component =       2.909E-02
 RMS gradient           =       7.317E-03
 Gradient time:  CPU 8.12 s  wall 0.70 s
 Geometry Optimization Parameters
   NAtoms,    NIC,     NZ,  NCons,   NDum,   NFix, NCnnct, MaxDiis
       12     131       0       1       0       0       0       0

 Cartesian Hessian Update
 Hessian Updated using BFGS Update


** CONSTRAINED OPTIMIZATION IN DELOCALIZED INTERNAL COORDINATES **
   Searching for a Minimum

   Optimization Cycle:   4

                       Coordinates (Angstroms)
     ATOM                X               Y               Z
      1  S         3.1069132024    0.4954464053   -0.0339108353
      2  C        -0.7880625544    0.4145766184   -0.0057188939
      3  C         0.1487442516   -0.7248042648   -0.0189682591
      4  C        -2.2528450203   -0.1157716859    0.0479603018
      5  H        -0.6072889492    1.0466606828    0.8682006257
      6  H        -0.6653841217    1.0268884157   -0.9036191919
      7  H         0.4027626113   -1.2405316156    0.9004075101
      8  H         0.3814117865   -1.2463767251   -0.9409593790
      9  H        -2.4272009306   -0.7120413365    0.9478088803
     10  H        -2.9397146453    0.7358118460    0.0622437887
     11  H        -2.4872135797   -0.7310775997   -0.8250691604
     12  H         2.8404779494    0.9550172594   -1.2753733870
   Point Group: c1    Number of degrees of freedom:    30


   Energy is   -517.237617758

              Constraints and their Current Values
                                        Value     Constraint
   Distance(Angs):        1   3             3.200000     3.200000
 Hessian Updated using BFGS Update

 28 Hessian modes will be used to form the next step
  Hessian Eigenvalues:
     0.039235    0.044987    0.045000    0.046973    0.057986    0.064946
     0.066874    0.067801    0.074538    0.078031    0.082404    0.084410
     0.093679    0.096637    0.159809    0.160000    0.160001    0.219033
     0.224872    0.268938    0.291730    0.342901    0.343484    0.343960
     0.343990    0.344155    0.344798    0.358916

 Minimum Search - Taking Simple RFO Step
 Searching for Lamda that Minimizes Along All modes
 Value Taken    Lamda =  -0.00000677
 Step Taken.  Stepsize is  0.011938

                             Maximum     Tolerance    Cnvgd?
         Gradient           0.000318      0.000300      NO
         Displacement       0.006324      0.001200      NO
         Energy change     -0.000163      0.000001      NO


 New Cartesian Coordinates Obtained by Inverse Iteration

 Displacement from previous Coordinates is:  0.009743
 ----------------------------------------------------------------
             Standard Nuclear Orientation (Angstroms)
    I     Atom           X                Y                Z
 ----------------------------------------------------------------
    1      S       3.1052373927     0.4972537542    -0.0338256819
    2      C      -0.7874863912     0.4138790885    -0.0058224950
    3      C       0.1483722428    -0.7261518421    -0.0188006011
    4      C      -2.2529140415    -0.1153449110     0.0480295886
    5      H      -0.6065767439     1.0459445211     0.8680776542
    6      H      -0.6646627695     1.0259240888    -0.9038670755
    7      H       0.4021486692    -1.2418590369     0.9012102544
    8      H       0.3812400673    -1.2480555238    -0.9414248224
    9      H      -2.4276357547    -0.7112850040     0.9480094093
   10      H      -2.9388893313     0.7369378751     0.0622096227
   11      H      -2.4877553821    -0.7305653048    -0.8249135446
   12      H       2.8415220422     0.9571202950    -1.2758803088
 ----------------------------------------------------------------
 Nuclear Repulsion Energy =   137.5330862219 hartrees
 There are       21 alpha and       21 beta electrons

                       Distance Matrix (Angstroms)
             S (  1)   C (  2)   C (  3)   C (  4)   H (  5)   H (  6)
   C (  2)  3.893717
   C (  3)  3.200000  1.475015
   C (  4)  5.393678  1.558992  2.478654
   H (  5)  3.859023  1.093589  2.120572  2.175201
   H (  6)  3.904947  1.093695  2.124650  2.175119  1.773010
   H (  7)  3.347461  2.231459  1.084793  3.007708  2.500534  3.088565
   H (  8)  3.360060  2.236806  1.085286  3.033286  3.084237  2.503259
   H (  9)  5.747804  2.205874  2.751501  1.093451  2.531897  3.091184
   H ( 10)  6.049640  2.176587  3.417364  1.094143  2.486884  2.487755
   H ( 11)  5.780565  2.207165  2.756630  1.093470  3.092093  2.532816
   H ( 12)  1.350453  3.883022  3.415657  5.371797  4.061260  3.526537
             H (  7)   H (  8)   H (  9)   H ( 10)   H ( 11)
   H (  8)  1.842764
   H (  9)  2.879475  3.427516
   H ( 10)  3.972668  3.996341  1.772955
   H ( 11)  3.404772  2.917620  1.774047  1.773154
   H ( 12)  3.940276  3.320790  5.957624  5.937350  5.608284
 
 Applying Cartesian multipole field
    Component          Value
    ---------          -----
     (2,0,0)        1.00000E-11
     (0,2,0)        2.00000E-10
     (0,0,2)       -3.00000E-10
 Nucleus-field energy     =     0.0000000122 hartrees
 Requested basis set is 6-31G(d,p)
 There are 41 shells and 104 basis functions
 A cutoff of  1.0D-14 yielded    799 shell pairs
 There are      5201 function pairs
 Smallest overlap matrix eigenvalue = 6.11E-03
 Guess from superposition of atomic densities
 Warning:  Energy on first SCF cycle will be non-variational
 SAD guess density has 42.000000 electrons

 -----------------------------------------------------------------------
  General SCF calculation program by
  Eric Jon Sundstrom, Paul Horn, Yuezhi Mao, Dmitri Zuev, Alec White,
  David Stuck, Shaama M.S., Shane Yost, Joonho Lee, David Small,
  Daniel Levine, Susi Lehtola, Hugh Burton, Evgeny Epifanovsky
 -----------------------------------------------------------------------
 Exchange:     0.2000 Hartree-Fock + 0.0800 Slater + 0.7200 B88
 Correlation:  0.1900 VWN1RPA + 0.8100 LYP
 Using SG-1 standard quadrature grid
 using 12 threads for integral computing
 -------------------------------------------------------
 OpenMP Integral computing Module                
 Release: version 1.0, May 2013, Q-Chem Inc. Pittsburgh 
 -------------------------------------------------------
 -------------------------------------------------------
 OpenMP BLAS3 based DFT computing Module                
 Release: version 1.0, May 2013, Q-Chem Inc. Pittsburgh 
 -------------------------------------------------------
 A unrestricted SCF calculation will be
 performed using DIIS
 SCF converges when DIIS error is below 1.0e-06
 Alpha HF Exchange    Energy =  -4.32043377267064
 Beta HF Exchange     Energy =  -4.32043377267064
 DFT Correlation      Energy =  -1.85723222651953
 DFT Exchange         Energy = -33.94627085665325
 One-Electron (alpha) Energy = -488.83930649586517
 One-Electron (beta)  Energy = -488.83930649586517
 Total Coulomb        Energy = 367.14815503680933
 ---------------------------------------
  Cycle       Energy         DIIS error
 ---------------------------------------
    1    -517.4417423493      2.82e-02  
 Alpha HF Exchange    Energy =  -4.35384363717892
 Beta HF Exchange     Energy =  -4.35384363717891
 DFT Correlation      Energy =  -1.88487242176237
 DFT Exchange         Energy = -34.55147351468267
 One-Electron (alpha) Energy = -492.56979251190228
 One-Electron (beta)  Energy = -492.56979251190205
 Total Coulomb        Energy = 375.61676617863776
    2    -517.1337658218      3.55e-03  
 Alpha HF Exchange    Energy =  -4.30999261058204
 Beta HF Exchange     Energy =  -4.30999261058205
 DFT Correlation      Energy =  -1.86748394250834
 DFT Exchange         Energy = -34.17450336137899
 One-Electron (alpha) Energy = -488.46526633317274
 One-Electron (beta)  Energy = -488.46526633317296
 Total Coulomb        Energy = 367.41762655449168
    3    -516.6417924028      7.66e-03  
 Alpha HF Exchange    Energy =  -4.31299137963678
 Beta HF Exchange     Energy =  -4.31299137963678
 DFT Correlation      Energy =  -1.86578854856041
 DFT Exchange         Energy = -34.20448142719177
 One-Electron (alpha) Energy = -490.01093891763719
 One-Electron (beta)  Energy = -490.01093891763708
 Total Coulomb        Energy = 370.03413228598015
    4    -517.1509120502      3.17e-03  
 Alpha HF Exchange    Energy =  -4.31791882081599
 Beta HF Exchange     Energy =  -4.31791882081600
 DFT Correlation      Energy =  -1.87348188758454
 DFT Exchange         Energy = -34.28994436524478
 One-Electron (alpha) Energy = -490.49655539166150
 One-Electron (beta)  Energy = -490.49655539166184
 Total Coulomb        Energy = 371.03017365564619
    5    -517.2291147880      9.66e-04  
[...]
 ----------------------------------------------------------------
             Standard Nuclear Orientation (Angstroms)
    I     Atom           X                Y                Z
 ----------------------------------------------------------------
    1      S       3.0866276995     0.5174960865    -0.0327717327
    2      C      -0.7834730608     0.4059800928    -0.0074076801
    3      C       0.1445479470    -0.7410546808    -0.0181014455
    4      C      -2.2530397712    -0.1108602788     0.0495254707
    5      H      -0.5963140562     1.0389967508     0.8644058303
    6      H      -0.6561818245     1.0143992858    -0.9071469907
    7      H       0.3930070062    -1.2568703442     0.9028302102
    8      H       0.3738229848    -1.2647029726    -0.9395836053
    9      H      -2.4319545061    -0.7031085843     0.9511746991
   10      H      -2.9319292434     0.7471064069     0.0624719924
   11      H      -2.4943659268    -0.7261714163    -0.8216250379
   12      H       2.8618527514     0.9825876541    -1.2807697106
 ----------------------------------------------------------------
 Nuclear Repulsion Energy =   137.6370892741 hartrees
 There are       21 alpha and       21 beta electrons

                       Distance Matrix (Angstroms)
             S (  1)   C (  2)   C (  3)   C (  4)   H (  5)   H (  6)
   C (  2)  3.871790
   C (  3)  3.200000  1.475475
   C (  4)  5.377142  1.558843  2.479949
   H (  5)  3.826350  1.093525  2.120443  2.175073
   H (  6)  3.875573  1.093576  2.124427  2.175175  1.772735
   H (  7)  3.358470  2.231078  1.084395  3.007163  2.500248  3.087957
   H (  8)  3.370141  2.235949  1.084391  3.034814  3.082625  2.501254
   H (  9)  5.736966  2.206003  2.753053  1.093499  2.532200  3.091369
   H ( 10)  6.023688  2.176491  3.418454  1.094151  2.486644  2.488098
   H ( 11)  5.772044  2.207232  2.758575  1.093503  3.092106  2.532947
   H ( 12)  1.350679  3.904142  3.456735  5.396984  4.069874  3.537962
             H (  7)   H (  8)   H (  9)   H ( 10)   H ( 11)
   H (  8)  1.842530
   H (  9)  2.879131  3.429685
   H ( 10)  3.972068  3.997435  1.772820
   H ( 11)  3.404748  2.920691  1.774048  1.773030
   H ( 12)  3.984781  3.370017  5.987282  5.952114  5.640900
 
 Applying Cartesian multipole field
    Component          Value
    ---------          -----
     (2,0,0)        1.00000E-11
     (0,2,0)        2.00000E-10
     (0,0,2)       -3.00000E-10
 Nucleus-field energy     =     0.0000000125 hartrees
 Requested basis set is 6-31G(d,p)
 There are 41 shells and 104 basis functions
 A cutoff of  1.0D-14 yielded    800 shell pairs
 There are      5202 function pairs
 Smallest overlap matrix eigenvalue = 6.11E-03
 Guess from superposition of atomic densities
 Warning:  Energy on first SCF cycle will be non-variational
 SAD guess density has 42.000000 electrons

 -----------------------------------------------------------------------
  General SCF calculation program by
  Eric Jon Sundstrom, Paul Horn, Yuezhi Mao, Dmitri Zuev, Alec White,
  David Stuck, Shaama M.S., Shane Yost, Joonho Lee, David Small,
  Daniel Levine, Susi Lehtola, Hugh Burton, Evgeny Epifanovsky
 -----------------------------------------------------------------------
 Exchange:     0.2000 Hartree-Fock + 0.0800 Slater + 0.7200 B88
 Correlation:  0.1900 VWN1RPA + 0.8100 LYP
 Using SG-1 standard quadrature grid
 using 12 threads for integral computing
 -------------------------------------------------------
 OpenMP Integral computing Module                
 Release: version 1.0, May 2013, Q-Chem Inc. Pittsburgh 
 -------------------------------------------------------
 -------------------------------------------------------
 OpenMP BLAS3 based DFT computing Module                
 Release: version 1.0, May 2013, Q-Chem Inc. Pittsburgh 
 -------------------------------------------------------
 A unrestricted SCF calculation will be
 performed using DIIS
 SCF converges when DIIS error is below 1.0e-06
 Alpha HF Exchange    Energy =  -4.32045450302841
 Beta HF Exchange     Energy =  -4.32045450302841
 DFT Correlation      Energy =  -1.85722977158927
 DFT Exchange         Energy = -33.94633135716084
 One-Electron (alpha) Energy = -488.94285040446096
 One-Electron (beta)  Energy = -488.94285040446096
 Total Coulomb        Energy = 367.25135037238800
 ---------------------------------------
  Cycle       Energy         DIIS error
 ---------------------------------------
    1    -517.4417312847      2.82e-02  
 Alpha HF Exchange    Energy =  -4.35388678248582
 Beta HF Exchange     Energy =  -4.35388678248582
 DFT Correlation      Energy =  -1.88489242578676
 DFT Exchange         Energy = -34.55176430766342
 One-Electron (alpha) Energy = -492.68063196522058
 One-Electron (beta)  Energy = -492.68063196522058
 Total Coulomb        Energy = 375.73459521202722
    2    -517.1340097302      3.55e-03  
 Alpha HF Exchange    Energy =  -4.31000367660389
 Beta HF Exchange     Energy =  -4.31000367660388
 DFT Correlation      Energy =  -1.86748522171914
 DFT Exchange         Energy = -34.17461122318717
 One-Electron (alpha) Energy = -488.56505825917276
 One-Electron (beta)  Energy = -488.56505825917276
 Total Coulomb        Energy = 367.51249771725793
    3    -516.6426333126      7.65e-03  
 Alpha HF Exchange    Energy =  -4.31308699462016
 Beta HF Exchange     Energy =  -4.31308699462016
 DFT Correlation      Energy =  -1.86580241429401
 DFT Exchange         Energy = -34.20493846397728
 One-Electron (alpha) Energy = -490.12123933688463
 One-Electron (beta)  Energy = -490.12123933688503
 Total Coulomb        Energy = 370.15176314564201
    4    -517.1505411090      3.18e-03  
 Alpha HF Exchange    Energy =  -4.31796327450953
 Beta HF Exchange     Energy =  -4.31796327450953
 DFT Correlation      Energy =  -1.87348303317647
 DFT Exchange         Energy = -34.29011116811608
 One-Electron (alpha) Energy = -490.60279080563907
 One-Electron (beta)  Energy = -490.60279080563930
 Total Coulomb        Energy = 371.13873817705564
    5    -517.2292748979      9.59e-04  
 Alpha HF Exchange    Energy =  -4.32018671393765
 Beta HF Exchange     Energy =  -4.32018671393765
 DFT Correlation      Energy =  -1.87346405901298
 DFT Exchange         Energy = -34.30267582613040
 One-Electron (alpha) Energy = -490.77774619624000
 One-Electron (beta)  Energy = -490.77774619624006
 Total Coulomb        Energy = 371.49753247178268
    6    -517.2373839471      2.19e-04  
 Alpha HF Exchange    Energy =  -4.31934034262283
 Beta HF Exchange     Energy =  -4.31934034262283
 DFT Correlation      Energy =  -1.87325905286237
 DFT Exchange         Energy = -34.29635694674286
 One-Electron (alpha) Energy = -490.70592683123448
 One-Electron (beta)  Energy = -490.70592683123442
 Total Coulomb        Energy = 371.34574874811278
    7    -517.2373123126      1.94e-04  
 Alpha HF Exchange    Energy =  -4.31969435572099
 Beta HF Exchange     Energy =  -4.31969435572099
 DFT Correlation      Energy =  -1.87326112182965
 DFT Exchange         Energy = -34.29804154305207
 One-Electron (alpha) Energy = -490.73542373039169
 One-Electron (beta)  Energy = -490.73542373039186
 Total Coulomb        Energy = 371.40681636501648
    8    -517.2376331855      5.55e-05  
 Alpha HF Exchange    Energy =  -4.31978172541747
 Beta HF Exchange     Energy =  -4.31978172541746
 DFT Correlation      Energy =  -1.87323807114408
 DFT Exchange         Energy = -34.29830403558283
 One-Electron (alpha) Energy = -490.73890263921265
 One-Electron (beta)  Energy = -490.73890263921248
 Total Coulomb        Energy = 371.41416110977622
    9    -517.2376604396      8.54e-06  
 Alpha HF Exchange    Energy =  -4.31979287852599
 Beta HF Exchange     Energy =  -4.31979287852599
 DFT Correlation      Energy =  -1.87323609404919
 DFT Exchange         Energy = -34.29834366613073
 One-Electron (alpha) Energy = -490.73981707754717
 One-Electron (beta)  Energy = -490.73981707754712
 Total Coulomb        Energy = 371.41604942879746
   10    -517.2376609569      1.51e-06  
 Alpha HF Exchange    Energy =  -4.31979490122318
 Beta HF Exchange     Energy =  -4.31979490122318
 DFT Correlation      Energy =  -1.87323620917686
 DFT Exchange         Energy = -34.29835396867995
 One-Electron (alpha) Energy = -490.73997682595473
 One-Electron (beta)  Energy = -490.73997682595478
 Total Coulomb        Energy = 371.41638337368505
   11    -517.2376609719      2.54e-07  Convergence criterion met
 ---------------------------------------
 SCF time:   CPU 25.81s  wall 2.00s 
<S^2> =          0.000000000
 Alpha HF Exchange    Energy =  -4.31979490122318
 Beta HF Exchange     Energy =  -4.31979490122318
 DFT Correlation      Energy =  -1.87323620917686
 DFT Exchange         Energy = -34.29835396867995
 One-Electron (alpha) Energy = -490.73997682595473
 One-Electron (beta)  Energy = -490.73997682595478
 Total Coulomb        Energy = 371.41638337368505
 Nuclear repulsion Energy = 137.63708928663502
 SCF   energy in the final basis set =     -517.2376609719
 Total energy in the final basis set =     -517.2376609719
 
 --------------------------------------------------------------
 
                    Orbital Energies (a.u.)
 --------------------------------------------------------------
 
 Alpha MOs
 -- Occupied --
-88.842 -10.274 -10.225 -10.214  -7.901  -5.865  -5.864  -5.856
 -0.824  -0.709  -0.654  -0.619  -0.507  -0.468  -0.434  -0.411
 -0.390  -0.372  -0.347  -0.226  -0.206
 -- Virtual --
 -0.132   0.073   0.087   0.112   0.115   0.130   0.151   0.153
  0.190   0.192   0.238   0.327   0.374   0.400   0.411   0.485
  0.499   0.503   0.532   0.566   0.625   0.664   0.701   0.742
  0.761   0.790   0.793   0.796   0.819   0.836   0.842   0.848
  0.874   0.890   0.917   0.960   0.977   1.153   1.199   1.261
  1.384   1.452   1.502   1.577   1.636   1.778   1.835   1.916
  1.947   1.995   2.018   2.033   2.085   2.092   2.120   2.125
  2.189   2.218   2.253   2.362   2.404   2.414   2.483   2.542
  2.639   2.685   2.706   2.760   2.770   2.828   2.845   2.885
  3.158   3.214   3.315   3.350   3.435   3.438   3.515   3.997
  4.216   4.397   4.574
 
 Beta MOs
 -- Occupied --
-88.842 -10.274 -10.225 -10.214  -7.901  -5.865  -5.864  -5.856
 -0.824  -0.709  -0.654  -0.619  -0.507  -0.468  -0.434  -0.411
 -0.390  -0.372  -0.347  -0.226  -0.206
 -- Virtual --
 -0.132   0.073   0.087   0.112   0.115   0.130   0.151   0.153
  0.190   0.192   0.238   0.327   0.374   0.400   0.411   0.485
  0.499   0.503   0.532   0.566   0.625   0.664   0.701   0.742
  0.761   0.790   0.793   0.796   0.819   0.836   0.842   0.848
  0.874   0.890   0.917   0.960   0.977   1.153   1.199   1.261
  1.384   1.452   1.502   1.577   1.636   1.778   1.835   1.916
  1.947   1.995   2.018   2.033   2.085   2.092   2.120   2.125
  2.189   2.218   2.253   2.362   2.404   2.414   2.483   2.542
  2.639   2.685   2.706   2.760   2.770   2.828   2.845   2.885
  3.158   3.214   3.315   3.350   3.435   3.438   3.515   3.997
  4.216   4.397   4.574
 --------------------------------------------------------------
 
          Ground-State Mulliken Net Atomic Charges

     Atom                 Charge (a.u.)    Spin (a.u.)
  --------------------------------------------------------
      1 S                    -0.379674      -0.000000
      2 C                    -0.211544      -0.000000
      3 C                    -0.121011       0.000000
      4 C                    -0.333241       0.000000
      5 H                     0.152340      -0.000000
      6 H                     0.140032       0.000000
      7 H                     0.167438       0.000000
      8 H                     0.164479       0.000000
      9 H                     0.123958      -0.000000
     10 H                     0.132485      -0.000000
     11 H                     0.122479      -0.000000
     12 H                     0.042260      -0.000000
  --------------------------------------------------------
  Sum of atomic charges =     0.000000
  Sum of spin   charges =    -0.000000

 -----------------------------------------------------------------
                    Cartesian Multipole Moments
 -----------------------------------------------------------------
    Charge (ESU x 10^10)
                -0.0000
    Dipole Moment (Debye)
         X      -5.5062      Y      -1.1267      Z      -0.7296
       Tot       5.6674
    Quadrupole Moments (Debye-Ang)
        XX     -48.1332     XY      -1.5335     YY     -34.1173
        XZ      -1.9796     YZ      -1.5979     ZZ     -32.0667
    Octopole Moments (Debye-Ang^2)
       XXX    -123.2396    XXY      -4.5615    XYY     -27.6450
       YYY     -16.7734    XXZ      -3.5178    XYZ      -4.8553
       YYZ      -0.4347    XZZ     -20.7689    YZZ      -5.1066
       ZZZ       2.5501
    Hexadecapole Moments (Debye-Ang^3)
      XXXX   -1286.2006   XXXY     -68.0866   XXYY    -216.4115
      XYYY     -73.9598   YYYY    -120.2851   XXXZ       3.5265
      XXYZ     -13.2997   XYYZ       0.0915   YYYZ       1.0395
      XXZZ    -189.5704   XYZZ     -19.3307   YYZZ     -26.7864
      XZZZ      11.9821   YZZZ       1.0647   ZZZZ     -62.6679
 -----------------------------------------------------------------
 Calculating analytic gradient of the SCF energy
 Gradient of SCF Energy
            1           2           3           4           5           6
    1   0.0282942  -0.0000460  -0.0282315   0.0000773   0.0000178   0.0000282
    2   0.0120826   0.0000847  -0.0124879   0.0000218   0.0000024  -0.0000066
    3  -0.0002272  -0.0000236   0.0000951  -0.0000084  -0.0000122  -0.0000018
            7           8           9          10          11          12
    1  -0.0000920   0.0000478  -0.0000052  -0.0000145  -0.0000103  -0.0000658
    2   0.0001095   0.0001798   0.0000070  -0.0000049  -0.0000126   0.0000244
    3  -0.0001256   0.0002729   0.0000161  -0.0000010   0.0000119   0.0000036
 Max gradient component =       2.829E-02
 RMS gradient           =       7.264E-03
 Gradient time:  CPU 10.34 s  wall 1.01 s
 Geometry Optimization Parameters
   NAtoms,    NIC,     NZ,  NCons,   NDum,   NFix, NCnnct, MaxDiis
       12     131       0       1       0       0       0       0

 Cartesian Hessian Update
 Hessian Updated using BFGS Update


** CONSTRAINED OPTIMIZATION IN DELOCALIZED INTERNAL COORDINATES **
   Searching for a Minimum

   Optimization Cycle:  10

                       Coordinates (Angstroms)
     ATOM                X               Y               Z
      1  S         3.0866276995    0.5174960865   -0.0327717327
      2  C        -0.7834730608    0.4059800928   -0.0074076801
      3  C         0.1445479470   -0.7410546808   -0.0181014455
      4  C        -2.2530397712   -0.1108602788    0.0495254707
      5  H        -0.5963140562    1.0389967508    0.8644058303
      6  H        -0.6561818245    1.0143992858   -0.9071469907
      7  H         0.3930070062   -1.2568703442    0.9028302102
      8  H         0.3738229848   -1.2647029726   -0.9395836053
      9  H        -2.4319545061   -0.7031085843    0.9511746991
     10  H        -2.9319292434    0.7471064069    0.0624719924
     11  H        -2.4943659268   -0.7261714163   -0.8216250379
     12  H         2.8618527514    0.9825876541   -1.2807697106
   Point Group: c1    Number of degrees of freedom:    30


   Energy is   -517.237660972

              Constraints and their Current Values
                                        Value     Constraint
   Distance(Angs):        1   3             3.200000     3.200000
 Hessian Updated using BFGS Update

 28 Hessian modes will be used to form the next step
  Hessian Eigenvalues:
     0.002990    0.012337    0.045000    0.045237    0.047322    0.059684
     0.065599    0.067882    0.074115    0.076509    0.082405    0.084410
     0.087378    0.099379    0.125969    0.160005    0.161035    0.218997
     0.222869    0.272837    0.293649    0.343357    0.343952    0.343958
     0.344000    0.344154    0.349534    0.578176

 Minimum Search - Taking Simple RFO Step
 Searching for Lamda that Minimizes Along All modes
 Value Taken    Lamda =  -0.00000132
 Step Taken.  Stepsize is  0.011837

                             Maximum     Tolerance    Cnvgd?
         Gradient           0.000292      0.000300     YES
         Displacement       0.006263      0.001200      NO
         Energy change     -0.000001      0.000001     YES


                       Distance Matrix (Angstroms)
             S (  1)   C (  2)   C (  3)   C (  4)   H (  5)   H (  6)
   C (  2)  3.871790
   C (  3)  3.200000  1.475475
   C (  4)  5.377142  1.558843  2.479949
   H (  5)  3.826350  1.093525  2.120443  2.175073
   H (  6)  3.875573  1.093576  2.124427  2.175175  1.772735
   H (  7)  3.358470  2.231078  1.084395  3.007163  2.500248  3.087957
   H (  8)  3.370141  2.235949  1.084391  3.034814  3.082625  2.501254
   H (  9)  5.736966  2.206003  2.753053  1.093499  2.532200  3.091369
   H ( 10)  6.023688  2.176491  3.418454  1.094151  2.486644  2.488098
   H ( 11)  5.772044  2.207232  2.758575  1.093503  3.092106  2.532947
   H ( 12)  1.350679  3.904142  3.456735  5.396984  4.069874  3.537962
             H (  7)   H (  8)   H (  9)   H ( 10)   H ( 11)
   H (  8)  1.842530
   H (  9)  2.879131  3.429685
   H ( 10)  3.972068  3.997435  1.772820
   H ( 11)  3.404748  2.920691  1.774048  1.773030
   H ( 12)  3.984781  3.370017  5.987282  5.952114  5.640900
 
 Final energy is   -517.237660971893     


 ******************************
 **  OPTIMIZATION CONVERGED  **
 ******************************

                       Coordinates (Angstroms)
     ATOM                X               Y               Z
      1  S         3.0866276995    0.5174960865   -0.0327717327
      2  C        -0.7834730608    0.4059800928   -0.0074076801
      3  C         0.1445479470   -0.7410546808   -0.0181014455
      4  C        -2.2530397712   -0.1108602788    0.0495254707
      5  H        -0.5963140562    1.0389967508    0.8644058303
      6  H        -0.6561818245    1.0143992858   -0.9071469907
      7  H         0.3930070062   -1.2568703442    0.9028302102
      8  H         0.3738229848   -1.2647029726   -0.9395836053
      9  H        -2.4319545061   -0.7031085843    0.9511746991
     10  H        -2.9319292434    0.7471064069    0.0624719924
     11  H        -2.4943659268   -0.7261714163   -0.8216250379
     12  H         2.8618527514    0.9825876541   -1.2807697106

Z-matrix Print:
$molecule
0 1
S 
H  1 1.350679
C  1 3.200000 2 89.235675
H  3 1.084391 1 89.520733 2 54.275627 0
H  3 1.084395 1 88.872264 2 170.621967 0
C  3 1.475475 1 105.816279 2 -67.894958 0
H  6 1.093525 3 110.374141 1 -58.127078 0
H  6 1.093576 3 110.691664 1 61.758516 0
C  6 1.558843 3 109.600365 1 -178.081430 0
H  9 1.093499 6 111.341968 3 60.337304 0
H  9 1.093503 6 111.439581 3 -60.857176 0
H  9 1.094151 6 108.988869 3 179.698562 0
$end

PES scan, value:    3.2000 energy: -517.2376609719
------- Summary of potential scan: ------ 
    3.2000      -517.2376609719
----------------------------------------- 
Archival summary:
1\1\hpc0250\JobtypUnspecified\ProcedureUnspecified\6-31G**\138\knomura\WedMar1319:26:592019WedMar1319:26:592019\0\\#,JobtypUnspecified,ProcedureUnspecified,6-31G**,\\0,1\S\H,1,1.35068\C,1,3.2,2,89.2357\H,3,1.08439,1,89.5207,2,54.2756,0\H,3,1.0844,1,88.8723,2,170.622,0\C,3,1.47547,1,105.816,2,-67.895,0\H,6,1.09353,3,110.374,1,-58.1271,0\H,6,1.09358,3,110.692,1,61.7585,0\C,6,1.55884,3,109.6,1,-178.081,0\H,9,1.0935,6,111.342,3,60.3373,0\H,9,1.0935,6,111.44,3,-60.8572,0\H,9,1.09415,6,108.989,3,179.699,0\\\@

 Total job time:  33.46s(wall), 385.03s(cpu) 
 Wed Mar 13 19:26:59 2019

        *************************************************************
        *                                                           *
        *  Thank you very much for using Q-Chem.  Have a nice day.  *
        *                                                           *
        *************************************************************


