
Running Job 1 of 1 thiol/02/C-S.xyz.data/inputs/bond_triplet_4.0.in
qchem thiol/02/C-S.xyz.data/inputs/bond_triplet_4.0.in_21629.0 /staging/scratch/2868767/qchem21629/ 1
/usr/usc/qchem/5.1.1/exe/qcprog.exe_s thiol/02/C-S.xyz.data/inputs/bond_triplet_4.0.in_21629.0 /staging/scratch/2868767/qchem21629/
Check license passed

                  Welcome to Q-Chem
     A Quantum Leap Into The Future Of Chemistry


 Q-Chem 5.1, Q-Chem, Inc., Pleasanton, CA (2018)

 Yihan Shao,  Zhengting Gan,  E. Epifanovsky,  A. T. B. Gilbert,  M. Wormit,  
 J. Kussmann,  A. W. Lange,  A. Behn,  Jia Deng,  Xintian Feng,  D. Ghosh,  
 M. Goldey,  P. R. Horn,  L. D. Jacobson,  I. Kaliman,  T. Kus,  A. Landau,  
 Jie Liu,  E. I. Proynov,  R. M. Richard,  R. P. Steele,  E. J. Sundstrom,  
 H. L. Woodcock III,  P. M. Zimmerman,  D. Zuev,  B. Albrecht,  E. Alguire,  
 S. A. Baeppler,  D. Barton,  Z. Benda,  Y. A. Bernard,  E. J. Berquist,  
 K. B. Bravaya,  H. Burton,  D. Casanova,  Chun-Min Chang,  Yunqing Chen,  
 A. Chien,  K. D. Closser,  M. P. Coons,  S. Coriani,  S. Dasgupta,  
 A. L. Dempwolff,  M. Diedenhofen,  Hainam Do,  R. G. Edgar,  Po-Tung Fang,  
 S. Faraji,  S. Fatehi,  Qingguo Feng,  K. D. Fenk,  J. Fosso-Tande,  
 Qinghui Ge,  A. Ghysels,  G. Gidofalvi,  J. Gomes,  J. Gonthier,  A. Gunina,  
 D. Hait,  M. W. D. Hanson-Heine,  P. H. P. Harbach,  A. W. Hauser,  
 J. E. Herr,  E. G. Hohenstein,  Z. C. Holden,  Kerwin Hui,  B. C. Huynh,  
 T.-C. Jagau,  Hyunjun Ji,  B. Kaduk,  K. Khistyaev,  Jaehoon Kim,  
 P. Klunzinger,  K. Koh,  D. Kosenkov,  L. Koulias,  T. Kowalczyk,  
 C. M. Krauter,  A. Kunitsa,  Ka Un Lao,  A. Laurent,  K. V. Lawler,  
 Joonho Lee,  D. Lefrancois,  S. Lehtola,  D. S. Levine,  Yi-Pei Li,  
 You-Sheng Lin,  Fenglai Liu,  E. Livshits,  A. Luenser,  P. Manohar,  
 E. Mansoor,  S. F. Manzer,  Shan-Ping Mao,  Yuezhi Mao,  N. Mardirossian,  
 A. V. Marenich,  T. Markovich,  L. A. Martinez-Martinez,  S. A. Maurer,  
 N. J. Mayhall,  S. C. McKenzie,  J.-M. Mewes,  A. F. Morrison,  
 J. W. Mullinax,  K. Nanda,  T. S. Nguyen-Beck,  R. Olivares-Amaya,  
 J. A. Parkhill,  T. M. Perrine,  F. Plasser,  P. Pokhilko,  S. Prager,  
 A. Prociuk,  E. Ramos,  D. R. Rehn,  F. Rob,  M. Schneider,  N. Sergueev,  
 S. M. Sharada,  S. Sharma,  D. W. Small,  T. Stauch,  T. Stein,  
 Yu-Chuan Su,  A. J. W. Thom,  A. Tkatchenko,  T. Tsuchimochi,  N. M. Tubman,  
 L. Vogt,  M. L. Vidal,  O. Vydrov,  M. A. Watson,  J. Wenzel,  
 M. de Wergifosse,  T. A. Wesolowski,  A. White,  J. Witte,  A. Yamada,  
 Jun Yang,  K. Yao,  S. Yeganeh,  S. R. Yost,  Zhi-Qiang You,  A. Zech,  
 Igor Ying Zhang,  Xing Zhang,  Yan Zhao,  Ying Zhu,  B. R. Brooks,  
 G. K. L. Chan,  C. J. Cramer,  M. S. Gordon,  W. J. Hehre,  A. Klamt,  
 M. W. Schmidt,  C. D. Sherrill,  D. G. Truhlar,  A. Aspuru-Guzik,  R. Baer,  
 A. T. Bell,  N. A. Besley,  Jeng-Da Chai,  A. E. DePrince, III,  
 R. A. DiStasio Jr.,  A. Dreuw,  B. D. Dunietz,  T. R. Furlani,  
 Chao-Ping Hsu,  Yousung Jung,  Jing Kong,  D. S. Lambrecht,  WanZhen Liang,  
 C. Ochsenfeld,  V. A. Rassolov,  L. V. Slipchenko,  J. E. Subotnik,  
 T. Van Voorhis,  J. M. Herbert,  A. I. Krylov,  P. M. W. Gill,  M. Head-Gordon

 Contributors to earlier versions of Q-Chem not listed above: 
 R. D. Adamson,  B. Austin,  J. Baker,  G. J. O. Beran,  K. Brandhorst,  
 S. T. Brown,  E. F. C. Byrd,  A. K. Chakraborty,  C.-L. Cheng,  
 Siu Hung Chien,  D. M. Chipman,  D. L. Crittenden,  H. Dachsel,  
 R. J. Doerksen,  A. D. Dutoi,  L. Fusti-Molnar,  W. A. Goddard III,  
 A. Golubeva-Zadorozhnaya,  S. R. Gwaltney,  G. Hawkins,  A. Heyden,  
 S. Hirata,  G. Kedziora,  F. J. Keil,  C. Kelley,  Jihan Kim,  R. A. King,  
 R. Z. Khaliullin,  P. P. Korambath,  W. Kurlancheek,  A. M. Lee,  M. S. Lee,  
 S. V. Levchenko,  Ching Yeh Lin,  D. Liotard,  R. C. Lochan,  I. Lotan,  
 P. E. Maslen,  N. Nair,  D. P. O'Neill,  D. Neuhauser,  E. Neuscamman,  
 C. M. Oana,  R. Olson,  B. Peters,  R. Peverati,  P. A. Pieniazek,  
 Y. M. Rhee,  J. Ritchie,  M. A. Rohrdanz,  E. Rosta,  N. J. Russ,  
 H. F. Schaefer III,  N. E. Schultz,  N. Shenvi,  A. C. Simmonett,  A. Sodt,  
 D. Stuck,  K. S. Thanthiriwatte,  V. Vanovschi,  Tao Wang,  A. Warshel,  
 C. F. Williams,  Q. Wu,  X. Xu,  W. Zhang

 Please cite Q-Chem as follows:
 Y. Shao et al., Mol. Phys. 113, 184-215 (2015)
 DOI: 10.1080/00268976.2014.952696

 Q-Chem 5.1.1 for Intel X86 EM64T Linux

 Parts of Q-Chem use Armadillo 8.300.2 (Tropical Shenanigans).
 http://arma.sourceforge.net/

 Q-Chem begins on Wed Mar 13 21:16:30 2019  

Host: 
0

     Scratch files written to /staging/scratch/2868767/qchem21629//
 Aug318 |scratch|qcdevops|jenkins|workspace|build_RNUM 6013   
Processing $rem in /usr/usc/qchem/5.1.1/config/preferences.
 MEM_TOTAL  2000 
Input Ideriv = 2
Curr. Ideriv = -1
Max.  Ideriv = 2

Checking the input file for inconsistencies... 	...done.

--------------------------------------------------------------
User input:
--------------------------------------------------------------

$comment
potential surface scanner
$end

$rem
JOBTYPE  PES_SCAN
UNRESTRICTED TRUE
SYM_IGNORE  TRUE
GEOM_OPT_MAX_CYCLES 400
SCF_MAX_CYCLES 400
METHOD   B3LYP
BASIS   6-31G**
PDB_PRINT 2
SCF_CONVERGENCE 6
THRESH 14
SCF_PRINT 1
$end
$molecule
0 3
S 3.699885 0.813178 -0.107068
C -0.918440 0.283322 -0.002848
C -0.020280 -0.908059 -0.019188
C -2.420638 -0.076520 0.088558
H -0.663320 0.931827 0.845003
H -0.762859 0.881671 -0.911055
H 0.358972 -1.336404 0.902592
H 0.139562 -1.469806 -0.934267
H -2.634705 -0.639037 1.002897
H -3.038171 0.828754 0.093547
H -2.729406 -0.692741 -0.762032
H 3.702004 1.287617 -1.373137
$end
$scan
stre 1 3 4.000000 4.001000 0.100000
$end
--------------------------------------------------------------
 ----------------------------------------------------------------
             Standard Nuclear Orientation (Angstroms)
    I     Atom           X                Y                Z
 ----------------------------------------------------------------
    1      S       3.6998850000     0.8131780000    -0.1070680000
    2      C      -0.9184400000     0.2833220000    -0.0028480000
    3      C      -0.0202800000    -0.9080590000    -0.0191880000
    4      C      -2.4206380000    -0.0765200000     0.0885580000
    5      H      -0.6633200000     0.9318270000     0.8450030000
    6      H      -0.7628590000     0.8816710000    -0.9110550000
    7      H       0.3589720000    -1.3364040000     0.9025920000
    8      H       0.1395620000    -1.4698060000    -0.9342670000
    9      H      -2.6347050000    -0.6390370000     1.0028970000
   10      H      -3.0381710000     0.8287540000     0.0935470000
   11      H      -2.7294060000    -0.6927410000    -0.7620320000
   12      H       3.7020040000     1.2876170000    -1.3731370000
 ----------------------------------------------------------------
 Nuclear Repulsion Energy =   127.4452773775 hartrees
 There are       22 alpha and       20 beta electrons
 Requested basis set is 6-31G(d,p)
 There are 41 shells and 104 basis functions

 Total QAlloc Memory Limit   2000 MB
 Mega-Array Size       188 MB
 MEM_STATIC part       192 MB
A total of 1 constraints
  
            1
    1   1.0100000
    2   1.0100000
    3   3.0100000
    4   4.0000000
    5   4.0010000
    6   0.1000000
    7   0.0000000
    8   0.0000000
    9   0.0000000
   10   0.0000000

                       Distance Matrix (Angstroms)
             S (  1)   C (  2)   C (  3)   C (  4)   H (  5)   H (  6)
   C (  2)  4.649789
   C (  3)  4.100001  1.492095
   C (  4)  6.187943  1.547398  2.542594
   H (  5)  4.467446  1.097495  2.132019  2.162669
   H (  6)  4.535104  1.098666  2.133069  2.159997  1.759592
   H (  7)  4.099002  2.252802  1.084892  3.158511  2.488628  3.076959
   H (  8)  4.309545  2.249526  1.085578  3.089019  3.094877  2.518799
   H (  9)  6.593025  2.192678  2.819973  1.094653  2.525649  3.078891
   H ( 10)  6.741060  2.190901  3.483805  1.095853  2.493036  2.487784
   H ( 11)  6.635703  2.192865  2.817365  1.094792  3.080665  2.523547
   H ( 12)  1.352046  4.922886  4.528749  6.440820  4.909459  4.507029
             H (  7)   H (  8)   H (  9)   H ( 10)   H ( 11)
   H (  8)  1.854720
   H (  9)  3.075465  3.484155
   H ( 10)  4.108898  4.054352  1.773165
   H ( 11)  3.566981  2.977326  1.768284  1.772653
   H ( 12)  4.820819  4.526255  7.036435  6.913152  6.757093
 
 A cutoff of  1.0D-14 yielded    765 shell pairs
 There are      4903 function pairs
 
 -------------------------------------------------------
 OpenMP Integral Computing Module                       
 Release: version 1.0, May 2013, Q-Chem Inc. Pittsburgh 
 -------------------------------------------------------
 Integral Job Info:
 Integral job number is                      11
 Integral operator is                         1
 short-range coefficients                     0
 long-range coefficients              100000000
 Omega coefficients                           0
 if combine SR and LR in K                    0
 Integral screening is                        0
 Integral computing path is                   2
 max size of driver memory is            800000
 size of driver memory is                593474
 size of scratch memory is             15267112
 max col of scratch BK array               1296
 max len of scratch array in speh3          155
 max len of scratch index in speh4           18
 max int batch size is                      520
 min int batch size is                       52
 fixed nKL is                                52
 max L of basis functions is                  2
 order of int derivative is                   0
 number of shells is                         41
 number of basis is                         104
 number of cartesian basis is               104
 number of contracted shell pairs           765
 number of primitive shell pairs           2636
 maxK2 (contraction) of shell pair           36
 max number of K2 of shell pair               1
 max number of CS2 of shell pair             78
 max number of PS2 of shell pair            228
 mem total for path MDJ                  512412
 -------------------------------------------------------
 Smallest overlap matrix eigenvalue = 6.40E-03

 Scale SEOQF with 1.000000e-01/1.000000e+00/1.000000e+00

 Standard Electronic Orientation quadrupole field applied
 Nucleus-field energy     =     0.0000000210 hartrees
 Guess from superposition of atomic densities
 Warning:  Energy on first SCF cycle will be non-variational
 SAD guess density has 42.000000 electrons

 -----------------------------------------------------------------------
  General SCF calculation program by
  Eric Jon Sundstrom, Paul Horn, Yuezhi Mao, Dmitri Zuev, Alec White,
  David Stuck, Shaama M.S., Shane Yost, Joonho Lee, David Small,
  Daniel Levine, Susi Lehtola, Hugh Burton, Evgeny Epifanovsky
 -----------------------------------------------------------------------
 Exchange:     0.2000 Hartree-Fock + 0.0800 Slater + 0.7200 B88
 Correlation:  0.1900 VWN1RPA + 0.8100 LYP
 Using SG-1 standard quadrature grid
 using 12 threads for integral computing
 -------------------------------------------------------
 OpenMP Integral computing Module                
 Release: version 1.0, May 2013, Q-Chem Inc. Pittsburgh 
 -------------------------------------------------------
 -------------------------------------------------------
 OpenMP BLAS3 based DFT computing Module                
 Release: version 1.0, May 2013, Q-Chem Inc. Pittsburgh 
 -------------------------------------------------------
 A unrestricted SCF calculation will be
 performed using DIIS
 SCF converges when DIIS error is below 1.0e-06
 Alpha HF Exchange    Energy =  -4.31717095380483
 Beta HF Exchange     Energy =  -4.31717095380483
 DFT Correlation      Energy =  -1.85376278169005
 DFT Exchange         Energy = -33.94132435995772
 One-Electron (alpha) Energy = -478.76317678476079
 One-Electron (beta)  Energy = -478.76317678476079
 Total Coulomb        Energy = 357.09383692968333
 ---------------------------------------
  Cycle       Energy         DIIS error
 ---------------------------------------
    1    -517.4166682906      2.80e-02  
 Alpha HF Exchange    Energy =  -4.45354512096884
 Beta HF Exchange     Energy =  -4.27000791982138
 DFT Correlation      Energy =  -1.87407410689848
 DFT Exchange         Energy = -34.58762612312607
 One-Electron (alpha) Energy = -493.34596871628725
 One-Electron (beta)  Energy = -471.06612660563547
 Total Coulomb        Energy = 365.01302495764565
    2    -517.1390462366      3.66e-03  
 Alpha HF Exchange    Energy =  -4.39675674738462
 Beta HF Exchange     Energy =  -4.21945728662124
 DFT Correlation      Energy =  -1.84594634489985
 DFT Exchange         Energy = -34.13332645120495
 One-Electron (alpha) Energy = -490.00083980932942
 One-Electron (beta)  Energy = -467.75537596509992
 Total Coulomb        Energy = 357.77231122131525
    3    -517.1341139847      3.90e-03  
 Alpha HF Exchange    Energy =  -4.42589593232507
 Beta HF Exchange     Energy =  -4.24435551695223
 DFT Correlation      Energy =  -1.85926116764651
 DFT Exchange         Energy = -34.35776238477006
 One-Electron (alpha) Energy = -491.84203985422755
 One-Electron (beta)  Energy = -469.38641015460860
 Total Coulomb        Energy = 361.44689632235969
    4    -517.2235512897      2.67e-04  
 Alpha HF Exchange    Energy =  -4.42717790070648
 Beta HF Exchange     Energy =  -4.24436182431215
 DFT Correlation      Energy =  -1.85914711932035
 DFT Exchange         Energy = -34.36217908318295
 One-Electron (alpha) Energy = -491.88197065682169
 One-Electron (beta)  Energy = -469.36061417912447
 Total Coulomb        Energy = 361.46628714212807
    5    -517.2238862228      1.45e-04  
 Alpha HF Exchange    Energy =  -4.42689691234374
 Beta HF Exchange     Energy =  -4.24427809509667
 DFT Correlation      Energy =  -1.85894515595266
 DFT Exchange         Energy = -34.36050129521459
 One-Electron (alpha) Energy = -491.87432310646454
 One-Electron (beta)  Energy = -469.34036252031967
 Total Coulomb        Energy = 361.43602361653637
    6    -517.2240060704      3.85e-05  
 Alpha HF Exchange    Energy =  -4.42702051704694
 Beta HF Exchange     Energy =  -4.24420179498286
 DFT Correlation      Energy =  -1.85891641463075
 DFT Exchange         Energy = -34.36062026995091
 One-Electron (alpha) Energy = -491.88060421840169
 One-Electron (beta)  Energy = -469.33467191839640
 Total Coulomb        Energy = 361.43674186631665
    7    -517.2240158686      9.28e-06  
 Alpha HF Exchange    Energy =  -4.42707468622187
 Beta HF Exchange     Energy =  -4.24420368921735
 DFT Correlation      Energy =  -1.85890524242656
 DFT Exchange         Energy = -34.36080928223782
 One-Electron (alpha) Energy = -491.88462987940068
 One-Electron (beta)  Energy = -469.33355286589870
 Total Coulomb        Energy = 361.43988153071518
    8    -517.2240167162      3.82e-06  
 Alpha HF Exchange    Energy =  -4.42707095377327
 Beta HF Exchange     Energy =  -4.24418619529235
 DFT Correlation      Energy =  -1.85889753277956
 DFT Exchange         Energy = -34.36072545801939
 One-Electron (alpha) Energy = -491.88404938693446
 One-Electron (beta)  Energy = -469.33198789600056
 Total Coulomb        Energy = 361.43762319207531
    9    -517.2240168322      1.31e-06  
 Alpha HF Exchange    Energy =  -4.42707400647756
 Beta HF Exchange     Energy =  -4.24418631465373
 DFT Correlation      Energy =  -1.85889750248388
 DFT Exchange         Energy = -34.36073815759877
 One-Electron (alpha) Energy = -491.88424246730881
 One-Electron (beta)  Energy = -469.33194487796663
 Total Coulomb        Energy = 361.43778908414856
   10    -517.2240168438      5.08e-07  Convergence criterion met
 ---------------------------------------
 SCF time:   CPU 22.84s  wall 2.00s 
<S^2> =          2.006223279
 Alpha HF Exchange    Energy =  -4.42707400647756
 Beta HF Exchange     Energy =  -4.24418631465373
 DFT Correlation      Energy =  -1.85889750248388
 DFT Exchange         Energy = -34.36073815759877
 One-Electron (alpha) Energy = -491.88424246730881
 One-Electron (beta)  Energy = -469.33194487796663
 Total Coulomb        Energy = 361.43778908414856
 Nuclear repulsion Energy = 127.44527739849612
 SCF   energy in the final basis set =     -517.2240168438
 Total energy in the final basis set =     -517.2240168438
 
 --------------------------------------------------------------
 
                    Orbital Energies (a.u.)
 --------------------------------------------------------------
 
 Alpha MOs
 -- Occupied --
-88.909 -10.182 -10.180 -10.173  -7.970  -5.942  -5.932  -5.923
 -0.775  -0.736  -0.668  -0.575  -0.457  -0.423  -0.411  -0.388
 -0.373  -0.345  -0.328  -0.319  -0.271  -0.192
 -- Virtual --
  0.033   0.107   0.143   0.146   0.159   0.180   0.182   0.225
  0.235   0.271   0.280   0.327   0.334   0.354   0.517   0.537
  0.540   0.555   0.600   0.638   0.661   0.690   0.700   0.704
  0.729   0.739   0.745   0.795   0.817   0.862   0.880   0.886
  0.914   0.941   0.964   1.004   1.086   1.215   1.311   1.440
  1.483   1.523   1.607   1.686   1.826   1.877   1.958   1.986
  1.999   2.055   2.058   2.068   2.073   2.124   2.130   2.229
  2.266   2.294   2.377   2.447   2.453   2.529   2.578   2.678
  2.700   2.713   2.744   2.804   2.866   2.885   2.925   3.187
  3.261   3.360   3.386   3.467   3.482   3.561   3.920   4.245
  4.434   4.611
 
 Beta MOs
 -- Occupied --
-88.903 -10.182 -10.172 -10.167  -7.965  -5.928  -5.924  -5.919
 -0.764  -0.696  -0.650  -0.560  -0.453  -0.418  -0.397  -0.383
 -0.362  -0.339  -0.326  -0.256
 -- Virtual --
 -0.176  -0.034   0.044   0.110   0.148   0.155   0.163   0.182
  0.185   0.229   0.240   0.285   0.289   0.334   0.364   0.373
  0.522   0.539   0.554   0.570   0.603   0.659   0.677   0.712
  0.728   0.738   0.744   0.793   0.798   0.800   0.825   0.865
  0.882   0.889   0.921   0.946   0.977   1.007   1.096   1.226
  1.321   1.471   1.488   1.537   1.628   1.686   1.835   1.881
  1.961   2.006   2.043   2.055   2.062   2.066   2.074   2.127
  2.134   2.230   2.278   2.295   2.383   2.451   2.464   2.538
  2.603   2.684   2.702   2.714   2.748   2.807   2.869   2.887
  2.929   3.189   3.265   3.365   3.387   3.469   3.487   3.564
  3.939   4.264   4.450   4.613
 --------------------------------------------------------------
 
          Ground-State Mulliken Net Atomic Charges

     Atom                 Charge (a.u.)    Spin (a.u.)
  --------------------------------------------------------
      1 S                    -0.072415       1.031614
      2 C                    -0.188349      -0.074036
      3 C                    -0.209572       1.077063
      4 C                    -0.307392       0.048964
      5 H                     0.101529       0.010121
      6 H                     0.099088       0.016974
      7 H                     0.101123      -0.048039
      8 H                     0.096322      -0.047835
      9 H                     0.105089      -0.000206
     10 H                     0.098614       0.013623
     11 H                     0.103693      -0.000705
     12 H                     0.072270      -0.027537
  --------------------------------------------------------
  Sum of atomic charges =     0.000000
  Sum of spin   charges =     2.000000

 -----------------------------------------------------------------
                    Cartesian Multipole Moments
 -----------------------------------------------------------------
    Charge (ESU x 10^10)
                 0.0000
    Dipole Moment (Debye)
         X      -0.1420      Y       0.4253      Z      -0.9355
       Tot       1.0374
    Quadrupole Moments (Debye-Ang)
        XX     -36.6402     XY      -0.0960     YY     -33.2664
        XZ      -3.8206     YZ      -1.2309     ZZ     -31.8001
    Octopole Moments (Debye-Ang^2)
       XXX     -94.0697    XXY      -9.5517    XYY     -23.0621
       YYY     -16.9027    XXZ     -14.3183    XYZ      -5.2263
       YYZ      -0.1819    XZZ     -19.2908    YZZ      -5.5550
       ZZZ       3.6451
    Hexadecapole Moments (Debye-Ang^3)
      XXXX   -1618.7223   XXXY    -162.6530   XXYY    -270.5115
      XYYY    -120.8359   YYYY    -155.8568   XXXZ     -34.1482
      XXYZ     -17.0668   XYYZ       3.5449   YYYZ       4.7634
      XXZZ    -232.5446   XYZZ     -33.5691   YYZZ     -33.0966
      XZZZ      23.0617   YZZZ       4.0077   ZZZZ     -63.9083
 -----------------------------------------------------------------
 Calculating analytic gradient of the SCF energy
 Gradient of SCF Energy
            1           2           3           4           5           6
    1  -0.0004506   0.0001465   0.0003202  -0.0000181  -0.0000249  -0.0000246
    2  -0.0001611   0.0001422   0.0000326  -0.0000372  -0.0000484  -0.0000331
    3  -0.0000498  -0.0000970   0.0000276  -0.0000004   0.0000518  -0.0000064
            7           8           9          10          11          12
    1  -0.0000360   0.0000277   0.0000063  -0.0000075   0.0000044   0.0000566
    2   0.0000169   0.0000553  -0.0000025  -0.0000079  -0.0000083   0.0000515
    3   0.0000270   0.0000149   0.0000064   0.0000109   0.0000048   0.0000103
 Max gradient component =       4.506E-04
 RMS gradient           =       1.066E-04
 Gradient time:  CPU 7.42 s  wall 0.63 s
 Geometry Optimization Parameters
   NAtoms,    NIC,     NZ,  NCons,   NDum,   NFix, NCnnct, MaxDiis
       12     125       0       1       0       0       0       0


** CONSTRAINED OPTIMIZATION IN DELOCALIZED INTERNAL COORDINATES **
   Searching for a Minimum

   Optimization Cycle:   1

                       Coordinates (Angstroms)
     ATOM                X               Y               Z
      1  S         3.6998850000    0.8131780000   -0.1070680000
      2  C        -0.9184400000    0.2833220000   -0.0028480000
      3  C        -0.0202800000   -0.9080590000   -0.0191880000
      4  C        -2.4206380000   -0.0765200000    0.0885580000
      5  H        -0.6633200000    0.9318270000    0.8450030000
      6  H        -0.7628590000    0.8816710000   -0.9110550000
      7  H         0.3589720000   -1.3364040000    0.9025920000
      8  H         0.1395620000   -1.4698060000   -0.9342670000
      9  H        -2.6347050000   -0.6390370000    1.0028970000
     10  H        -3.0381710000    0.8287540000    0.0935470000
     11  H        -2.7294060000   -0.6927410000   -0.7620320000
     12  H         3.7020040000    1.2876170000   -1.3731370000
   Point Group: c1    Number of degrees of freedom:    30


   Energy is   -517.224016844

              Constraints and their Current Values
                                        Value     Constraint
   Distance(Angs):        1   3             4.100001     4.000000

 Attempting to Generate Delocalized Internal Coordinates

   Using Lagrange Multiplier Algorithm


 31 Hessian modes will be used to form the next step
  Hessian Eigenvalues:
    -0.996414    0.020074    0.037657    0.045000    0.049213    0.049582
     0.050568    0.059755    0.070230    0.071922    0.072987    0.082972
     0.083031    0.085194    0.092448    0.122961    0.139314    0.160000
     0.160000    0.160000    0.251822    0.278735    0.281151    0.298379
     0.316600    0.324470    0.330476    0.341450    0.342647    0.342804
     1.003599

 Minimum Search - Taking P-RFO Step
 Searching for Lamda that Maximizes Along the Constraint modes Only
 Value Taken    Lamda =   0.01774554
 Searching for Lamda that Minimizes Along All other modes
 Value Taken    Lamda =  -0.01735132
 Step Taken.  Stepsize is  0.185720

                             Maximum     Tolerance    Cnvgd?
         Gradient            0.188974       0.000300      NO
         Displacement        0.185715       0.001200      NO
         Energy change     *********       0.000001      NO


 New Cartesian Coordinates Obtained by Inverse Iteration

 Displacement from previous Coordinates is:  0.171185
 ----------------------------------------------------------------
             Standard Nuclear Orientation (Angstroms)
    I     Atom           X                Y                Z
 ----------------------------------------------------------------
    1      S       3.6488772026     0.7848113813    -0.1055048262
    2      C      -0.9134189657     0.2969469034    -0.0008979050
    3      C       0.0172052979    -0.8936910621    -0.0195385765
    4      C      -2.4128778322    -0.0747507520     0.0873029258
    5      H      -0.6828028214     0.9427171076     0.8505137152
    6      H      -0.7723685300     0.8913679446    -0.9072385427
    7      H       0.3735613325    -1.3350737041     0.9088335925
    8      H       0.1561967964    -1.4703883296    -0.9490639781
    9      H      -2.6243582057    -0.6396328962     1.0007845534
   10      H      -3.0374950571     0.8256449258     0.0916862355
   11      H      -2.7151140421    -0.6927414453    -0.7643557720
   12      H       3.6751988247     1.2685919266    -1.3695194218
 ----------------------------------------------------------------
 Nuclear Repulsion Energy =   127.8025967089 hartrees
 There are       22 alpha and       20 beta electrons

                       Distance Matrix (Angstroms)
             S (  1)   C (  2)   C (  3)   C (  4)   H (  5)   H (  6)
   C (  2)  4.589499
   C (  3)  4.001725  1.511300
   C (  4)  6.125430  1.547358  2.566590
   H (  5)  4.438734  1.093208  2.149278  2.147299
   H (  6)  4.494613  1.093016  2.144265  2.147969  1.760782
   H (  7)  4.031190  2.268793  1.087972  3.166634  2.511501  3.093269
   H (  8)  4.242209  2.273009  1.102686  3.101936  3.124976  2.538085
   H (  9)  6.527358  2.192684  2.843143  1.094653  2.509193  3.068286
   H ( 10)  6.689404  2.190843  3.507090  1.095846  2.476712  2.476483
   H ( 11)  6.566402  2.192819  2.839138  1.094798  3.068031  2.510792
   H ( 12)  1.353687  4.885963  4.458568  6.402467  4.901726  4.487411
             H (  7)   H (  8)   H (  9)   H ( 10)   H ( 11)
   H (  8)  1.875457
   H (  9)  3.078898  3.496219
   H ( 10)  4.119677  4.068734  1.773184
   H ( 11)  3.571004  2.980483  1.768270  1.772635
   H ( 12)  4.782340  4.479081  6.996005  6.884154  6.711866
 
 Applying Cartesian multipole field
    Component          Value
    ---------          -----
     (2,0,0)        1.00000E-11
     (0,2,0)        2.00000E-10
     (0,0,2)       -3.00000E-10
 Nucleus-field energy     =     0.0000000201 hartrees
 Requested basis set is 6-31G(d,p)
 There are 41 shells and 104 basis functions
 A cutoff of  1.0D-14 yielded    767 shell pairs
 There are      4928 function pairs
 Smallest overlap matrix eigenvalue = 6.51E-03
 Guess from superposition of atomic densities
 Warning:  Energy on first SCF cycle will be non-variational
 SAD guess density has 42.000000 electrons

 -----------------------------------------------------------------------
  General SCF calculation program by
  Eric Jon Sundstrom, Paul Horn, Yuezhi Mao, Dmitri Zuev, Alec White,
  David Stuck, Shaama M.S., Shane Yost, Joonho Lee, David Small,
  Daniel Levine, Susi Lehtola, Hugh Burton, Evgeny Epifanovsky
 -----------------------------------------------------------------------
 Exchange:     0.2000 Hartree-Fock + 0.0800 Slater + 0.7200 B88
 Correlation:  0.1900 VWN1RPA + 0.8100 LYP
 Using SG-1 standard quadrature grid
 using 12 threads for integral computing
 -------------------------------------------------------
 OpenMP Integral computing Module                
 Release: version 1.0, May 2013, Q-Chem Inc. Pittsburgh 
 -------------------------------------------------------
 -------------------------------------------------------
 OpenMP BLAS3 based DFT computing Module                
 Release: version 1.0, May 2013, Q-Chem Inc. Pittsburgh 
 -------------------------------------------------------
 A unrestricted SCF calculation will be
 performed using DIIS
 SCF converges when DIIS error is below 1.0e-06
 Alpha HF Exchange    Energy =  -4.31447178461243
 Beta HF Exchange     Energy =  -4.31447178461243
 DFT Correlation      Energy =  -1.85324407181835
 DFT Exchange         Energy = -33.93564120133485
 One-Electron (alpha) Energy = -479.13487623409895
 One-Electron (beta)  Energy = -479.13487623409895
 Total Coulomb        Energy = 357.49228205025480
 ---------------------------------------
  Cycle       Energy         DIIS error
 ---------------------------------------
    1    -517.3927025313      2.78e-02  
 Alpha HF Exchange    Energy =  -4.45180956319269
 Beta HF Exchange     Energy =  -4.26835332712878
 DFT Correlation      Energy =  -1.87329781404546
 DFT Exchange         Energy = -34.57560503065336
 One-Electron (alpha) Energy = -493.72788991480991
 One-Electron (beta)  Energy = -471.38294875699660
 Total Coulomb        Energy = 365.33819792621739
    2    -517.1391097516      3.63e-03  
 Alpha HF Exchange    Energy =  -4.39600657146533
 Beta HF Exchange     Energy =  -4.21844893105380
 DFT Correlation      Energy =  -1.84543279053255
 DFT Exchange         Energy = -34.12721681360713
 One-Electron (alpha) Energy = -490.43547703794832
 One-Electron (beta)  Energy = -468.10766788089347
 Total Coulomb        Energy = 358.19310995624028
    3    -517.1345433402      3.88e-03  
 Alpha HF Exchange    Energy =  -4.42468243204981
 Beta HF Exchange     Energy =  -4.24310585075758
 DFT Correlation      Energy =  -1.85856666513883
 DFT Exchange         Energy = -34.34884694981972
 One-Electron (alpha) Energy = -492.24685706671835
 One-Electron (beta)  Energy = -469.71772636802365
 Total Coulomb        Energy = 361.81424104802488
    4    -517.2229475555      2.64e-04  
 Alpha HF Exchange    Energy =  -4.42599507629756
 Beta HF Exchange     Energy =  -4.24312985418050
 DFT Correlation      Energy =  -1.85846137000155
 DFT Exchange         Energy = -34.35345113493732
 One-Electron (alpha) Energy = -492.28895201848513
 One-Electron (beta)  Energy = -469.69378848476714
 Total Coulomb        Energy = 361.83790738444657
    5    -517.2232738252      1.48e-04  
 Alpha HF Exchange    Energy =  -4.42569333174458
 Beta HF Exchange     Energy =  -4.24304054553894
 DFT Correlation      Energy =  -1.85824847612173
 DFT Exchange         Energy = -34.35165196966417
 One-Electron (alpha) Energy = -492.28001960729245
 One-Electron (beta)  Energy = -469.67265057593073
 Total Coulomb        Energy = 361.80530880165389
    6    -517.2233989756      3.92e-05  
 Alpha HF Exchange    Energy =  -4.42582405896180
 Beta HF Exchange     Energy =  -4.24296769172218
 DFT Correlation      Energy =  -1.85822035182284
 DFT Exchange         Energy = -34.35181408281748
 One-Electron (alpha) Energy = -492.28661763171010
 One-Electron (beta)  Energy = -469.66708654880557
 Total Coulomb        Energy = 361.80652435378568
    7    -517.2234092830      9.52e-06  
 Alpha HF Exchange    Energy =  -4.42587860361320
 Beta HF Exchange     Energy =  -4.24296838602634
 DFT Correlation      Energy =  -1.85820793485099
 DFT Exchange         Energy = -34.35199823663734
 One-Electron (alpha) Energy = -492.29070372918329
 One-Electron (beta)  Energy = -469.66588278247383
 Total Coulomb        Energy = 361.80963275015284
    8    -517.2234101936      3.91e-06  
 Alpha HF Exchange    Energy =  -4.42587464838669
 Beta HF Exchange     Energy =  -4.24295020981660
 DFT Correlation      Energy =  -1.85819983581074
 DFT Exchange         Energy = -34.35191112037197
 One-Electron (alpha) Energy = -492.29008714453897
 One-Electron (beta)  Energy = -469.66423578539269
 Total Coulomb        Energy = 361.80725169743420
    9    -517.2234103179      1.31e-06  
 Alpha HF Exchange    Energy =  -4.42587828572104
 Beta HF Exchange     Energy =  -4.24295051982882
 DFT Correlation      Energy =  -1.85819989918839
 DFT Exchange         Energy = -34.35192689996110
 One-Electron (alpha) Energy = -492.29032318054436
 One-Electron (beta)  Energy = -469.66420533640076
 Total Coulomb        Energy = 361.80747706318664
   10    -517.2234103294      5.23e-07  Convergence criterion met
 ---------------------------------------
 SCF time:   CPU 22.42s  wall 2.00s 
<S^2> =          2.006295752
 Alpha HF Exchange    Energy =  -4.42587828572104
 Beta HF Exchange     Energy =  -4.24295051982882
 DFT Correlation      Energy =  -1.85819989918839
 DFT Exchange         Energy = -34.35192689996110
 One-Electron (alpha) Energy = -492.29032318054436
 One-Electron (beta)  Energy = -469.66420533640076
 Total Coulomb        Energy = 361.80747706318664
 Nuclear repulsion Energy = 127.80259672901425
 SCF   energy in the final basis set =     -517.2234103294
 Total energy in the final basis set =     -517.2234103294
 
 --------------------------------------------------------------
 
                    Orbital Energies (a.u.)
 --------------------------------------------------------------
 
 Alpha MOs
 -- Occupied --
-88.909 -10.184 -10.182 -10.173  -7.970  -5.941  -5.931  -5.922
 -0.772  -0.736  -0.667  -0.574  -0.456  -0.421  -0.410  -0.388
 -0.372  -0.343  -0.329  -0.318  -0.271  -0.193
 -- Virtual --
  0.033   0.106   0.140   0.148   0.161   0.179   0.182   0.221
  0.234   0.270   0.276   0.327   0.335   0.355   0.519   0.538
  0.540   0.554   0.598   0.640   0.660   0.690   0.700   0.706
  0.730   0.739   0.746   0.790   0.815   0.864   0.880   0.886
  0.913   0.941   0.962   1.003   1.085   1.212   1.313   1.427
  1.484   1.532   1.603   1.689   1.819   1.867   1.948   1.970
  2.000   2.055   2.058   2.068   2.074   2.124   2.135   2.226
  2.260   2.296   2.377   2.433   2.456   2.516   2.571   2.676
  2.697   2.706   2.742   2.800   2.852   2.889   2.919   3.187
  3.255   3.352   3.382   3.465   3.468   3.557   3.921   4.238
  4.433   4.609
 
 Beta MOs
 -- Occupied --
-88.903 -10.183 -10.172 -10.170  -7.964  -5.928  -5.923  -5.919
 -0.763  -0.696  -0.648  -0.560  -0.452  -0.416  -0.397  -0.382
 -0.361  -0.337  -0.327  -0.255
 -- Virtual --
 -0.175  -0.034   0.044   0.110   0.150   0.153   0.163   0.182
  0.183   0.226   0.239   0.280   0.288   0.335   0.365   0.373
  0.525   0.540   0.557   0.566   0.601   0.655   0.678   0.713
  0.731   0.741   0.745   0.794   0.796   0.801   0.823   0.866
  0.881   0.890   0.921   0.946   0.974   1.006   1.095   1.222
  1.323   1.454   1.489   1.550   1.624   1.689   1.829   1.872
  1.954   1.996   2.037   2.055   2.062   2.066   2.075   2.129
  2.137   2.228   2.272   2.297   2.383   2.438   2.468   2.525
  2.594   2.682   2.699   2.708   2.745   2.802   2.854   2.890
  2.923   3.188   3.260   3.356   3.384   3.469   3.472   3.559
  3.939   4.257   4.449   4.612
 --------------------------------------------------------------
 
          Ground-State Mulliken Net Atomic Charges

     Atom                 Charge (a.u.)    Spin (a.u.)
  --------------------------------------------------------
      1 S                    -0.072055       1.032778
      2 C                    -0.188791      -0.072970
      3 C                    -0.208097       1.079125
      4 C                    -0.308539       0.047239
      5 H                     0.102391       0.009333
      6 H                     0.100625       0.015463
      7 H                     0.101157      -0.047443
      8 H                     0.094425      -0.047861
      9 H                     0.104627      -0.000209
     10 H                     0.099019       0.012870
     11 H                     0.103258      -0.000696
     12 H                     0.071979      -0.027628
  --------------------------------------------------------
  Sum of atomic charges =    -0.000000
  Sum of spin   charges =     2.000000

 -----------------------------------------------------------------
                    Cartesian Multipole Moments
 -----------------------------------------------------------------
    Charge (ESU x 10^10)
                -0.0000
    Dipole Moment (Debye)
         X      -0.1638      Y       0.4202      Z      -0.9214
       Tot       1.0259
    Quadrupole Moments (Debye-Ang)
        XX     -36.5787     XY      -0.0739     YY     -33.2155
        XZ      -3.8144     YZ      -1.2265     ZZ     -31.8111
    Octopole Moments (Debye-Ang^2)
       XXX     -92.1413    XXY      -8.7686    XYY     -22.6227
       YYY     -16.2730    XXZ     -14.2853    XYZ      -5.1644
       YYZ      -0.1286    XZZ     -19.0718    YZZ      -5.3904
       ZZZ       3.6433
    Hexadecapole Moments (Debye-Ang^3)
      XXXX   -1581.4666   XXXY    -152.9766   XXYY    -263.5800
      XYYY    -113.8561   YYYY    -151.7722   XXXZ     -34.4846
      XXYZ     -16.8587   XYYZ       3.5406   YYYZ       4.4913
      XXZZ    -228.1132   XYZZ     -31.6450   YYZZ     -32.4488
      XZZZ      22.6335   YZZZ       3.7335   ZZZZ     -64.0779
 -----------------------------------------------------------------
 Calculating analytic gradient of the SCF energy
 Gradient of SCF Energy
            1           2           3           4           5           6
    1  -0.0006314  -0.0023446   0.0068509  -0.0006398  -0.0027144  -0.0019096
    2  -0.0005410   0.0097381  -0.0016531   0.0021876  -0.0016057  -0.0022092
    3   0.0007680  -0.0007056   0.0070556   0.0002488  -0.0011762   0.0020968
            7           8           9          10          11          12
    1   0.0002015   0.0008393   0.0002405  -0.0002922   0.0003127   0.0000871
    2  -0.0006828  -0.0056008   0.0000331  -0.0000814   0.0000440   0.0003713
    3   0.0021377  -0.0096045  -0.0000229   0.0000147  -0.0000090  -0.0008034
 Max gradient component =       9.738E-03
 RMS gradient           =       3.169E-03
 Gradient time:  CPU 7.73 s  wall 0.67 s
 Geometry Optimization Parameters
   NAtoms,    NIC,     NZ,  NCons,   NDum,   NFix, NCnnct, MaxDiis
       12     125       0       1       0       0       0       0

 Cartesian Hessian Update
 Hessian Updated using BFGS Update


** CONSTRAINED OPTIMIZATION IN DELOCALIZED INTERNAL COORDINATES **
   Searching for a Minimum

   Optimization Cycle:   2

                       Coordinates (Angstroms)
     ATOM                X               Y               Z
      1  S         3.6488772026    0.7848113813   -0.1055048262
      2  C        -0.9134189657    0.2969469034   -0.0008979050
      3  C         0.0172052979   -0.8936910621   -0.0195385765
      4  C        -2.4128778322   -0.0747507520    0.0873029258
      5  H        -0.6828028214    0.9427171076    0.8505137152
      6  H        -0.7723685300    0.8913679446   -0.9072385427
      7  H         0.3735613325   -1.3350737041    0.9088335925
      8  H         0.1561967964   -1.4703883296   -0.9490639781
      9  H        -2.6243582057   -0.6396328962    1.0007845534
     10  H        -3.0374950571    0.8256449258    0.0916862355
     11  H        -2.7151140421   -0.6927414453   -0.7643557720
     12  H         3.6751988247    1.2685919266   -1.3695194218
   Point Group: c1    Number of degrees of freedom:    30


   Energy is   -517.223410329

              Constraints and their Current Values
                                        Value     Constraint
   Distance(Angs):        1   3             4.001725     4.000000
 Hessian Updated using BFGS Update

   Using Lagrange Multiplier Algorithm


 30 Hessian modes will be used to form the next step
  Hessian Eigenvalues:
    -0.987154    0.020352    0.037687    0.045000    0.049219    0.049632
     0.050579    0.059764    0.070238    0.071922    0.073286    0.083000
     0.083031    0.085191    0.094312    0.124768    0.140546    0.160000
     0.160289    0.252056    0.278734    0.291973    0.309063    0.321634
     0.329548    0.341447    0.342644    0.342802    0.503686    1.021605

 Minimum Search - Taking P-RFO Step
 Searching for Lamda that Maximizes Along the Constraint modes Only
 Value Taken    Lamda =   0.00002327
 Searching for Lamda that Minimizes Along All other modes
 Value Taken    Lamda =  -0.00048140
 Step Taken.  Stepsize is  0.038839

                             Maximum     Tolerance    Cnvgd?
         Gradient            0.007139       0.000300      NO
         Displacement        0.015189       0.001200      NO
         Energy change      0.000607       0.000001      NO


 New Cartesian Coordinates Obtained by Inverse Iteration

 Displacement from previous Coordinates is:  0.051258
 ----------------------------------------------------------------
             Standard Nuclear Orientation (Angstroms)
    I     Atom           X                Y                Z
 ----------------------------------------------------------------
    1      S       3.6459003585     0.7807917788    -0.1060937511
    2      C      -0.9115175269     0.2983746214    -0.0010305091
    3      C       0.0112103660    -0.8870272964    -0.0200020934
    4      C      -2.4095547193    -0.0797364421     0.0866044562
    5      H      -0.6760077568     0.9450793453     0.8511245783
    6      H      -0.7674598513     0.8955964811    -0.9083438259
    7      H       0.3666390117    -1.3295301743     0.9063526347
    8      H       0.1474287705    -1.4595931282    -0.9423091475
    9      H      -2.6202317118    -0.6461290664     0.9994277113
   10      H      -3.0359847900     0.8192738315     0.0918463578
   11      H      -2.7109987752    -0.6976896181    -0.7654892791
   12      H       3.6731806247     1.2643916675    -1.3690851322
 ----------------------------------------------------------------
 Nuclear Repulsion Energy =   128.0170720710 hartrees
 There are       22 alpha and       20 beta electrons

                       Distance Matrix (Angstroms)
             S (  1)   C (  2)   C (  3)   C (  4)   H (  5)   H (  6)
   C (  2)  4.584084
   C (  3)  4.000000  1.502320
   C (  4)  6.119328  1.547502  2.554053
   H (  5)  4.429689  1.095381  2.141902  2.154048
   H (  6)  4.487152  1.095739  2.138510  2.153525  1.762538
   H (  7)  4.028903  2.259890  1.086403  3.152971  2.502801  3.087150
   H (  8)  4.237674  2.257836  1.094092  3.082342  3.110772  2.526874
   H (  9)  6.520943  2.193789  2.832271  1.094729  2.516733  3.073967
   H ( 10)  6.684927  2.189366  3.494191  1.095747  2.482302  2.480405
   H ( 11)  6.559792  2.194237  2.828785  1.094897  3.074625  2.517203
   H ( 12)  1.352686  4.881006  4.456305  6.397295  4.893540  4.479685
             H (  7)   H (  8)   H (  9)   H ( 10)   H ( 11)
   H (  8)  1.866151
   H (  9)  3.065468  3.477357
   H ( 10)  4.105926  4.049300  1.773122
   H ( 11)  3.558951  2.963506  1.768001  1.772518
   H ( 12)  4.779044  4.475841  6.990492  6.880796  6.706104
 
 Applying Cartesian multipole field
    Component          Value
    ---------          -----
     (2,0,0)        1.00000E-11
     (0,2,0)        2.00000E-10
     (0,0,2)       -3.00000E-10
 Nucleus-field energy     =     0.0000000199 hartrees
 Requested basis set is 6-31G(d,p)
 There are 41 shells and 104 basis functions
 A cutoff of  1.0D-14 yielded    768 shell pairs
 There are      4937 function pairs
 Smallest overlap matrix eigenvalue = 6.45E-03
 Guess from superposition of atomic densities
 Warning:  Energy on first SCF cycle will be non-variational
 SAD guess density has 42.000000 electrons

 -----------------------------------------------------------------------
  General SCF calculation program by
  Eric Jon Sundstrom, Paul Horn, Yuezhi Mao, Dmitri Zuev, Alec White,
  David Stuck, Shaama M.S., Shane Yost, Joonho Lee, David Small,
  Daniel Levine, Susi Lehtola, Hugh Burton, Evgeny Epifanovsky
 -----------------------------------------------------------------------
 Exchange:     0.2000 Hartree-Fock + 0.0800 Slater + 0.7200 B88
 Correlation:  0.1900 VWN1RPA + 0.8100 LYP
 Using SG-1 standard quadrature grid
 using 12 threads for integral computing
 -------------------------------------------------------
 OpenMP Integral computing Module                
 Release: version 1.0, May 2013, Q-Chem Inc. Pittsburgh 
 -------------------------------------------------------
 -------------------------------------------------------
 OpenMP BLAS3 based DFT computing Module                
 Release: version 1.0, May 2013, Q-Chem Inc. Pittsburgh 
 -------------------------------------------------------
 A unrestricted SCF calculation will be
 performed using DIIS
 SCF converges when DIIS error is below 1.0e-06
 Alpha HF Exchange    Energy =  -4.31578523649468
 Beta HF Exchange     Energy =  -4.31578523649468
 DFT Correlation      Energy =  -1.85356969726017
 DFT Exchange         Energy = -33.93833491798878
 One-Electron (alpha) Energy = -479.34255362491217
 One-Electron (beta)  Energy = -479.34255362491217
 Total Coulomb        Energy = 357.68726979163614
 ---------------------------------------
  Cycle       Energy         DIIS error
 ---------------------------------------
    1    -517.4042404555      2.79e-02  
 Alpha HF Exchange    Energy =  -4.45269250415434
 Beta HF Exchange     Energy =  -4.26894260331919
 DFT Correlation      Energy =  -1.87376118081890
 DFT Exchange         Energy = -34.58113845847362
 One-Electron (alpha) Energy = -493.96073325862392
 One-Electron (beta)  Energy = -471.59069282424093
 Total Coulomb        Energy = 365.57218018600230
    2    -517.1387085527      3.65e-03  
 Alpha HF Exchange    Energy =  -4.39643698207574
 Beta HF Exchange     Energy =  -4.21889742598950
 DFT Correlation      Energy =  -1.84575124552601
 DFT Exchange         Energy = -34.13025915092602
 One-Electron (alpha) Energy = -490.64435375910500
 One-Electron (beta)  Energy = -468.29976004763711
 Total Coulomb        Energy = 358.38434968778108
    3    -517.1340368325      3.90e-03  
 Alpha HF Exchange    Energy =  -4.42533573431458
 Beta HF Exchange     Energy =  -4.24365486113475
 DFT Correlation      Energy =  -1.85896705173419
 DFT Exchange         Energy = -34.35319324497033
 One-Electron (alpha) Energy = -492.46895374170879
 One-Electron (beta)  Energy = -469.91959021781736
 Total Coulomb        Energy = 362.02933061786212
    4    -517.2232921428      2.65e-04  
 Alpha HF Exchange    Energy =  -4.42662594923373
 Beta HF Exchange     Energy =  -4.24367075693389
 DFT Correlation      Energy =  -1.85885296936373
 DFT Exchange         Energy = -34.35766370326139
 One-Electron (alpha) Energy = -492.50945812822727
 One-Electron (beta)  Energy = -469.89470690413208
 Total Coulomb        Energy = 362.05028438390042
    5    -517.2236219363      1.47e-04  
 Alpha HF Exchange    Energy =  -4.42633833865616
 Beta HF Exchange     Energy =  -4.24359520309636
 DFT Correlation      Energy =  -1.85864723589509
 DFT Exchange         Energy = -34.35597935302649
 One-Electron (alpha) Energy = -492.50138339687987
 One-Electron (beta)  Energy = -469.87446779517677
 Total Coulomb        Energy = 362.01959283657743
    6    -517.2237463952      3.90e-05  
 Alpha HF Exchange    Energy =  -4.42646416924590
 Beta HF Exchange     Energy =  -4.24352125087489
 DFT Correlation      Energy =  -1.85861804125142
 DFT Exchange         Energy = -34.35611581332163
 One-Electron (alpha) Energy = -492.50772304835311
 One-Electron (beta)  Energy = -469.86886086546963
 Total Coulomb        Energy = 362.02047455959882
    7    -517.2237565379      9.44e-06  
 Alpha HF Exchange    Energy =  -4.42651741245917
 Beta HF Exchange     Energy =  -4.24352251638887
 DFT Correlation      Energy =  -1.85860593078416
 DFT Exchange         Energy = -34.35629753357313
 One-Electron (alpha) Energy = -492.51170905456667
 One-Electron (beta)  Energy = -469.86769244571309
 Total Coulomb        Energy = 362.02351538126277
    8    -517.2237574213      3.89e-06  
 Alpha HF Exchange    Energy =  -4.42651357178819
 Beta HF Exchange     Energy =  -4.24350479146922
 DFT Correlation      Energy =  -1.85859804593734
 DFT Exchange         Energy = -34.35621255216098
 One-Electron (alpha) Energy = -492.51111251588060
 One-Electron (beta)  Energy = -469.86609570452407
 Total Coulomb        Energy = 362.02120754849074
    9    -517.2237575423      1.33e-06  
 Alpha HF Exchange    Energy =  -4.42651696598751
 Beta HF Exchange     Energy =  -4.24350500208612
 DFT Correlation      Energy =  -1.85859806109826
 DFT Exchange         Energy = -34.35622700307523
 One-Electron (alpha) Energy = -492.51132813660053
 One-Electron (beta)  Energy = -469.86605510513311
 Total Coulomb        Energy = 362.02140062895069
   10    -517.2237575541      5.20e-07  Convergence criterion met
 ---------------------------------------
 SCF time:   CPU 23.09s  wall 2.00s 
<S^2> =          2.006237794
 Alpha HF Exchange    Energy =  -4.42651696598751
 Beta HF Exchange     Energy =  -4.24350500208612
 DFT Correlation      Energy =  -1.85859806109826
 DFT Exchange         Energy = -34.35622700307523
 One-Electron (alpha) Energy = -492.51132813660053
 One-Electron (beta)  Energy = -469.86605510513311
 Total Coulomb        Energy = 362.02140062895069
 Nuclear repulsion Energy = 128.01707209096972
 SCF   energy in the final basis set =     -517.2237575541
 Total energy in the final basis set =     -517.2237575541
 
 --------------------------------------------------------------
 
                    Orbital Energies (a.u.)
 --------------------------------------------------------------
 
 Alpha MOs
 -- Occupied --
-88.909 -10.182 -10.182 -10.173  -7.970  -5.941  -5.931  -5.922
 -0.773  -0.736  -0.667  -0.574  -0.457  -0.422  -0.411  -0.388
 -0.373  -0.343  -0.329  -0.318  -0.271  -0.192
 -- Virtual --
  0.033   0.106   0.142   0.148   0.160   0.180   0.182   0.222
  0.234   0.271   0.278   0.327   0.335   0.355   0.519   0.538
  0.539   0.554   0.599   0.642   0.661   0.690   0.700   0.706
  0.730   0.739   0.746   0.790   0.817   0.863   0.880   0.886
  0.914   0.941   0.963   1.004   1.086   1.215   1.312   1.428
  1.484   1.535   1.605   1.687   1.823   1.871   1.954   1.974
  2.005   2.055   2.059   2.069   2.073   2.124   2.132   2.228
  2.261   2.295   2.379   2.437   2.457   2.519   2.576   2.678
  2.699   2.712   2.744   2.804   2.854   2.887   2.921   3.187
  3.259   3.356   3.383   3.468   3.475   3.557   3.921   4.242
  4.434   4.610
 
 Beta MOs
 -- Occupied --
-88.903 -10.182 -10.172 -10.168  -7.964  -5.928  -5.923  -5.919
 -0.763  -0.696  -0.649  -0.560  -0.452  -0.416  -0.397  -0.383
 -0.361  -0.338  -0.327  -0.255
 -- Virtual --
 -0.176  -0.034   0.044   0.110   0.149   0.154   0.162   0.183
  0.184   0.227   0.239   0.283   0.289   0.335   0.365   0.373
  0.524   0.540   0.555   0.567   0.602   0.659   0.678   0.713
  0.731   0.741   0.745   0.793   0.795   0.801   0.825   0.866
  0.882   0.889   0.921   0.946   0.975   1.007   1.096   1.225
  1.322   1.456   1.489   1.552   1.626   1.687   1.832   1.876
  1.958   2.000   2.042   2.055   2.062   2.066   2.074   2.128
  2.136   2.229   2.272   2.296   2.384   2.442   2.468   2.528
  2.600   2.684   2.701   2.713   2.747   2.807   2.857   2.888
  2.925   3.188   3.263   3.360   3.385   3.470   3.481   3.559
  3.939   4.260   4.451   4.612
 --------------------------------------------------------------
 
          Ground-State Mulliken Net Atomic Charges

     Atom                 Charge (a.u.)    Spin (a.u.)
  --------------------------------------------------------
      1 S                    -0.072051       1.032745
      2 C                    -0.188833      -0.073065
      3 C                    -0.207244       1.076644
      4 C                    -0.308162       0.048217
      5 H                     0.101849       0.009523
      6 H                     0.099893       0.015952
      7 H                     0.100692      -0.047365
      8 H                     0.094923      -0.047484
      9 H                     0.104727      -0.000247
     10 H                     0.098919       0.013410
     11 H                     0.103314      -0.000740
     12 H                     0.071972      -0.027590
  --------------------------------------------------------
  Sum of atomic charges =     0.000000
  Sum of spin   charges =     2.000000

 -----------------------------------------------------------------
                    Cartesian Multipole Moments
 -----------------------------------------------------------------
    Charge (ESU x 10^10)
                 0.0000
    Dipole Moment (Debye)
         X      -0.1623      Y       0.4157      Z      -0.9243
       Tot       1.0264
    Quadrupole Moments (Debye-Ang)
        XX     -36.5648     XY      -0.0345     YY     -33.2121
        XZ      -3.8136     YZ      -1.2230     ZZ     -31.8132
    Octopole Moments (Debye-Ang^2)
       XXX     -92.0094    XXY      -8.7618    XYY     -22.5632
       YYY     -16.2193    XXZ     -14.2715    XYZ      -5.1399
       YYZ      -0.1038    XZZ     -19.0299    YZZ      -5.3629
       ZZZ       3.6663
    Hexadecapole Moments (Debye-Ang^3)
      XXXX   -1578.5629   XXXY    -152.2560   XXYY    -262.8039
      XYYY    -113.4949   YYYY    -150.7010   XXXZ     -34.4106
      XXYZ     -16.7428   XYYZ       3.5846   YYYZ       4.5338
      XXZZ    -227.6735   XYZZ     -31.5468   YYZZ     -32.3115
      XZZZ      22.6250   YZZZ       3.7767   ZZZZ     -64.0122
 -----------------------------------------------------------------
 Calculating analytic gradient of the SCF energy
 Gradient of SCF Energy
            1           2           3           4           5           6
    1  -0.0006230  -0.0012048   0.0046418  -0.0002296  -0.0015339  -0.0010574
    2  -0.0003554   0.0056315  -0.0011423   0.0009772  -0.0009342  -0.0013299
    3   0.0002803  -0.0005319   0.0036992   0.0001469  -0.0003142   0.0008573
            7           8           9          10          11          12
    1  -0.0001801   0.0000227   0.0000188   0.0000389   0.0000325   0.0000742
    2  -0.0002708  -0.0026426  -0.0000403  -0.0000351  -0.0000413   0.0001832
    3   0.0011542  -0.0049670  -0.0000205  -0.0000072   0.0000174  -0.0003145
 Max gradient component =       5.632E-03
 RMS gradient           =       1.762E-03
 Gradient time:  CPU 7.83 s  wall 0.70 s
 Geometry Optimization Parameters
   NAtoms,    NIC,     NZ,  NCons,   NDum,   NFix, NCnnct, MaxDiis
       12     125       0       1       0       0       0       0

 Cartesian Hessian Update
 Hessian Updated using BFGS Update


** CONSTRAINED OPTIMIZATION IN DELOCALIZED INTERNAL COORDINATES **
   Searching for a Minimum

   Optimization Cycle:   3

                       Coordinates (Angstroms)
     ATOM                X               Y               Z
      1  S         3.6459003585    0.7807917788   -0.1060937511
      2  C        -0.9115175269    0.2983746214   -0.0010305091
      3  C         0.0112103660   -0.8870272964   -0.0200020934
      4  C        -2.4095547193   -0.0797364421    0.0866044562
      5  H        -0.6760077568    0.9450793453    0.8511245783
      6  H        -0.7674598513    0.8955964811   -0.9083438259
      7  H         0.3666390117   -1.3295301743    0.9063526347
      8  H         0.1474287705   -1.4595931282   -0.9423091475
      9  H        -2.6202317118   -0.6461290664    0.9994277113
     10  H        -3.0359847900    0.8192738315    0.0918463578
     11  H        -2.7109987752   -0.6976896181   -0.7654892791
     12  H         3.6731806247    1.2643916675   -1.3690851322
   Point Group: c1    Number of degrees of freedom:    30


   Energy is   -517.223757554

              Constraints and their Current Values
                                        Value     Constraint
   Distance(Angs):        1   3             4.000000     4.000000
 Hessian Updated using BFGS Update

 29 Hessian modes will be used to form the next step
  Hessian Eigenvalues:
     0.019826    0.037602    0.045000    0.049062    0.049396    0.050574
     0.059749    0.069397    0.071540    0.071934    0.083030    0.083050
     0.085183    0.091725    0.122570    0.139332    0.159993    0.160000
     0.161211    0.252139    0.268693    0.278740    0.294684    0.319001
     0.324310    0.330525    0.341725    0.342712    0.342927

 Minimum Search - Taking Simple RFO Step
 Searching for Lamda that Minimizes Along All modes
 Value Taken    Lamda =  -0.00027140
 Step Taken.  Stepsize is  0.048585

                             Maximum     Tolerance    Cnvgd?
         Gradient           0.003273      0.000300      NO
         Displacement       0.023150      0.001200      NO
         Energy change     -0.000347      0.000001      NO


 New Cartesian Coordinates Obtained by Inverse Iteration

 Displacement from previous Coordinates is:  0.053344
 ----------------------------------------------------------------
             Standard Nuclear Orientation (Angstroms)
    I     Atom           X                Y                Z
 ----------------------------------------------------------------
    1      S       3.6423671637     0.7771926237    -0.1064469649
    2      C      -0.9096374650     0.2989007491    -0.0010818713
    3      C       0.0032734091    -0.8810100797    -0.0206330760
    4      C      -2.4067012599    -0.0838003165     0.0858422650
    5      H      -0.6671150559     0.9472539251     0.8503920964
    6      H      -0.7616113795     0.9006949122    -0.9081189195
    7      H       0.3596168627    -1.3240343195     0.9034335721
    8      H       0.1399352728    -1.4501582603    -0.9343594485
    9      H      -2.6147782111    -0.6522487337     0.9979290893
   10      H      -3.0376106076     0.8123148670     0.0925047648
   11      H      -2.7051431040    -0.7013771420    -0.7675063437
   12      H       3.6700083749     1.2600737745    -1.3689531638
 ----------------------------------------------------------------
 Nuclear Repulsion Energy =   128.2483317667 hartrees
 There are       22 alpha and       20 beta electrons

                       Distance Matrix (Angstroms)
             S (  1)   C (  2)   C (  3)   C (  4)   H (  5)   H (  6)
   C (  2)  4.578276
   C (  3)  4.000000  1.491971
   C (  4)  6.113061  1.547649  2.540641
   H (  5)  4.417703  1.097354  2.133226  2.161890
   H (  6)  4.478053  1.098537  2.132405  2.159516  1.761664
   H (  7)  4.026346  2.250127  1.084966  3.139929  2.493139  3.080308
   H (  8)  4.232441  2.243171  1.085128  3.064817  3.095845  2.517933
   H (  9)  6.512666  2.193220  2.818509  1.094684  2.524593  3.078779
   H ( 10)  6.683032  2.191032  3.482402  1.095953  2.492359  2.487817
   H ( 11)  6.550882  2.193582  2.815246  1.094839  3.080444  2.522642
   H ( 12)  1.351984  4.875252  4.455014  6.391309  4.882007  4.469986
             H (  7)   H (  8)   H (  9)   H ( 10)   H ( 11)
   H (  8)  1.855169
   H (  9)  3.050779  3.458156
   H ( 10)  4.094233  4.033613  1.772999
   H ( 11)  3.545772  2.946690  1.768429  1.772404
   H ( 12)  4.774940  4.471649  6.982668  6.879571  6.697133
 
 Applying Cartesian multipole field
    Component          Value
    ---------          -----
     (2,0,0)        1.00000E-11
     (0,2,0)        2.00000E-10
     (0,0,2)       -3.00000E-10
 Nucleus-field energy     =     0.0000000198 hartrees
 Requested basis set is 6-31G(d,p)
 There are 41 shells and 104 basis functions
 A cutoff of  1.0D-14 yielded    768 shell pairs
 There are      4937 function pairs
 Smallest overlap matrix eigenvalue = 6.39E-03
 Guess from superposition of atomic densities
 Warning:  Energy on first SCF cycle will be non-variational
 SAD guess density has 42.000000 electrons

 -----------------------------------------------------------------------
  General SCF calculation program by
  Eric Jon Sundstrom, Paul Horn, Yuezhi Mao, Dmitri Zuev, Alec White,
  David Stuck, Shaama M.S., Shane Yost, Joonho Lee, David Small,
  Daniel Levine, Susi Lehtola, Hugh Burton, Evgeny Epifanovsky
 -----------------------------------------------------------------------
 Exchange:     0.2000 Hartree-Fock + 0.0800 Slater + 0.7200 B88
 Correlation:  0.1900 VWN1RPA + 0.8100 LYP
 Using SG-1 standard quadrature grid
 using 12 threads for integral computing
 -------------------------------------------------------
 OpenMP Integral computing Module                
 Release: version 1.0, May 2013, Q-Chem Inc. Pittsburgh 
 -------------------------------------------------------
 -------------------------------------------------------
 OpenMP BLAS3 based DFT computing Module                
 Release: version 1.0, May 2013, Q-Chem Inc. Pittsburgh 
 -------------------------------------------------------
 A unrestricted SCF calculation will be
 performed using DIIS
 SCF converges when DIIS error is below 1.0e-06
 Alpha HF Exchange    Energy =  -4.31727750836401
 Beta HF Exchange     Energy =  -4.31727750836401
 DFT Correlation      Energy =  -1.85392903577693
 DFT Exchange         Energy = -33.94138509342879
 One-Electron (alpha) Energy = -479.56598333220410
 One-Electron (beta)  Energy = -479.56598333220410
 Total Coulomb        Energy = 357.89616189464056
 ---------------------------------------
  Cycle       Energy         DIIS error
 ---------------------------------------
    1    -517.4173421292      2.80e-02  
 Alpha HF Exchange    Energy =  -4.45366272388520
 Beta HF Exchange     Energy =  -4.26961360031158
 DFT Correlation      Energy =  -1.87427553290586
 DFT Exchange         Energy = -34.58732278872844
 One-Electron (alpha) Energy = -494.21093526515563
 One-Electron (beta)  Energy = -471.81516162927272
 Total Coulomb        Energy = 365.82466195921819
    2    -517.1379777945      3.67e-03  
 Alpha HF Exchange    Energy =  -4.39689919928333
 Beta HF Exchange     Energy =  -4.21938882221625
 DFT Correlation      Energy =  -1.84609933817823
 DFT Exchange         Energy = -34.13358378548904
 One-Electron (alpha) Energy = -490.86664587528708
 One-Electron (beta)  Energy = -468.50548068237174
 Total Coulomb        Energy = 358.58664103725550
    3    -517.1331248791      3.92e-03  
 Alpha HF Exchange    Energy =  -4.42605174400823
 Beta HF Exchange     Energy =  -4.24426600802290
 DFT Correlation      Energy =  -1.85941187380259
 DFT Exchange         Energy = -34.35802486055833
 One-Electron (alpha) Energy = -492.70700893276410
 One-Electron (beta)  Energy = -470.13706750203130
 Total Coulomb        Energy = 362.26007409112253
    4    -517.2234250435      2.67e-04  
 Alpha HF Exchange    Energy =  -4.42731804068303
 Beta HF Exchange     Energy =  -4.24427463978601
 DFT Correlation      Energy =  -1.85928832569888
 DFT Exchange         Energy = -34.36235741648313
 One-Electron (alpha) Energy = -492.74580390909790
 One-Electron (beta)  Energy = -470.11114113407774
 Total Coulomb        Energy = 362.27809251563428
    5    -517.2237591637      1.47e-04  
 Alpha HF Exchange    Energy =  -4.42704519706606
 Beta HF Exchange     Energy =  -4.24421211483522
 DFT Correlation      Energy =  -1.85908993467197
 DFT Exchange         Energy = -34.36078788711941
 One-Electron (alpha) Energy = -492.73862155964861
 One-Electron (beta)  Energy = -470.09178863413587
 Total Coulomb        Energy = 362.24933107245835
    6    -517.2238824685      3.89e-05  
 Alpha HF Exchange    Energy =  -4.42716643763761
 Beta HF Exchange     Energy =  -4.24413723602665
 DFT Correlation      Energy =  -1.85905981361104
 DFT Exchange         Energy = -34.36090056623989
 One-Electron (alpha) Energy = -492.74472716197624
 One-Electron (beta)  Energy = -470.08615130598366
 Total Coulomb        Energy = 362.24991829587458
    7    -517.2238924391      9.36e-06  
 Alpha HF Exchange    Energy =  -4.42721832239994
 Beta HF Exchange     Energy =  -4.24413905307936
 DFT Correlation      Energy =  -1.85904800843144
 DFT Exchange         Energy = -34.36107958833802
 One-Electron (alpha) Energy = -492.74861168333592
 One-Electron (beta)  Energy = -470.08501161265269
 Total Coulomb        Energy = 362.25288318581067
    8    -517.2238932959      3.88e-06  
 Alpha HF Exchange    Energy =  -4.42721466502596
 Beta HF Exchange     Energy =  -4.24412177332580
 DFT Correlation      Energy =  -1.85904034303204
 DFT Exchange         Energy = -34.36099695491670
 One-Electron (alpha) Energy = -492.74804038667918
 One-Electron (beta)  Energy = -470.08346548440664
 Total Coulomb        Energy = 362.25065440649598
    9    -517.2238934144      1.35e-06  
 Alpha HF Exchange    Energy =  -4.42721780084062
 Beta HF Exchange     Energy =  -4.24412187738219
 DFT Correlation      Energy =  -1.85904030524959
 DFT Exchange         Energy = -34.36100999176346
 One-Electron (alpha) Energy = -492.74823471347815
 One-Electron (beta)  Energy = -470.08341329446142
 Total Coulomb        Energy = 362.25081277005501
   10    -517.2238934266      5.17e-07  Convergence criterion met
 ---------------------------------------
 SCF time:   CPU 23.21s  wall 2.00s 
<S^2> =          2.006181850
 Alpha HF Exchange    Energy =  -4.42721780084062
 Beta HF Exchange     Energy =  -4.24412187738219
 DFT Correlation      Energy =  -1.85904030524959
 DFT Exchange         Energy = -34.36100999176346
 One-Electron (alpha) Energy = -492.74823471347815
 One-Electron (beta)  Energy = -470.08341329446142
 Total Coulomb        Energy = 362.25081277005501
 Nuclear repulsion Energy = 128.24833178651909
 SCF   energy in the final basis set =     -517.2238934266
 Total energy in the final basis set =     -517.2238934266
 
 --------------------------------------------------------------
 
                    Orbital Energies (a.u.)
 --------------------------------------------------------------
 
 Alpha MOs
 -- Occupied --
-88.909 -10.181 -10.180 -10.174  -7.970  -5.941  -5.931  -5.922
 -0.775  -0.736  -0.668  -0.574  -0.457  -0.422  -0.411  -0.388
 -0.374  -0.344  -0.328  -0.318  -0.271  -0.192
 -- Virtual --
  0.033   0.107   0.144   0.147   0.159   0.180   0.183   0.223
  0.235   0.271   0.280   0.327   0.335   0.355   0.517   0.538
  0.539   0.555   0.600   0.644   0.663   0.690   0.700   0.706
  0.730   0.739   0.746   0.790   0.819   0.862   0.881   0.886
  0.915   0.941   0.964   1.004   1.086   1.218   1.311   1.430
  1.484   1.537   1.606   1.685   1.826   1.877   1.960   1.978
  2.010   2.055   2.059   2.069   2.073   2.124   2.130   2.230
  2.262   2.294   2.380   2.440   2.458   2.523   2.581   2.680
  2.700   2.716   2.746   2.808   2.859   2.885   2.924   3.187
  3.262   3.360   3.384   3.468   3.485   3.557   3.921   4.246
  4.435   4.611
 
 Beta MOs
 -- Occupied --
-88.903 -10.182 -10.172 -10.166  -7.964  -5.928  -5.923  -5.919
 -0.765  -0.696  -0.650  -0.560  -0.453  -0.417  -0.397  -0.383
 -0.362  -0.339  -0.326  -0.255
 -- Virtual --
 -0.176  -0.034   0.044   0.110   0.149   0.155   0.162   0.183
  0.185   0.228   0.240   0.285   0.290   0.335   0.365   0.373
  0.522   0.540   0.554   0.569   0.603   0.664   0.678   0.714
  0.731   0.741   0.745   0.793   0.795   0.801   0.827   0.865
  0.883   0.889   0.922   0.946   0.977   1.006   1.097   1.229
  1.321   1.458   1.488   1.553   1.627   1.686   1.835   1.881
  1.963   2.004   2.047   2.055   2.062   2.067   2.074   2.126
  2.136   2.232   2.274   2.295   2.385   2.446   2.469   2.532
  2.605   2.686   2.702   2.718   2.749   2.811   2.862   2.887
  2.928   3.188   3.266   3.365   3.386   3.470   3.491   3.560
  3.939   4.264   4.452   4.613
 --------------------------------------------------------------
 
          Ground-State Mulliken Net Atomic Charges

     Atom                 Charge (a.u.)    Spin (a.u.)
  --------------------------------------------------------
      1 S                    -0.072063       1.032691
      2 C                    -0.188903      -0.073281
      3 C                    -0.206379       1.074031
      4 C                    -0.307773       0.049333
      5 H                     0.101311       0.009757
      6 H                     0.099063       0.016575
      7 H                     0.100192      -0.047337
      8 H                     0.095462      -0.047134
      9 H                     0.104886      -0.000276
     10 H                     0.098754       0.013979
     11 H                     0.103464      -0.000777
     12 H                     0.071985      -0.027563
  --------------------------------------------------------
  Sum of atomic charges =    -0.000000
  Sum of spin   charges =     2.000000

 -----------------------------------------------------------------
                    Cartesian Multipole Moments
 -----------------------------------------------------------------
    Charge (ESU x 10^10)
                 0.0000
    Dipole Moment (Debye)
         X      -0.1571      Y       0.4114      Z      -0.9278
       Tot       1.0270
    Quadrupole Moments (Debye-Ang)
        XX     -36.5471     XY      -0.0049     YY     -33.2098
        XZ      -3.8121     YZ      -1.2173     ZZ     -31.8212
    Octopole Moments (Debye-Ang^2)
       XXX     -91.8441    XXY      -8.7579    XYY     -22.4819
       YYY     -16.1771    XXZ     -14.2459    XYZ      -5.1117
       YYZ      -0.0860    XZZ     -18.9668    YZZ      -5.3390
       ZZZ       3.6830
    Hexadecapole Moments (Debye-Ang^3)
      XXXX   -1575.2765   XXXY    -151.7513   XXYY    -262.0715
      XYYY    -113.1997   YYYY    -149.7092   XXXZ     -34.2902
      XXYZ     -16.6079   XYYZ       3.6163   YYYZ       4.5799
      XXZZ    -227.1907   XYZZ     -31.4546   YYZZ     -32.1908
      XZZZ      22.5824   YZZZ       3.8152   ZZZZ     -63.9331
 -----------------------------------------------------------------
 Calculating analytic gradient of the SCF energy
 Gradient of SCF Energy
            1           2           3           4           5           6
    1  -0.0006128   0.0003800   0.0016762   0.0001052  -0.0002442  -0.0001456
    2  -0.0002224   0.0002445   0.0000600  -0.0001904  -0.0001977  -0.0002580
    3  -0.0000639  -0.0001349  -0.0002571   0.0000020   0.0001942  -0.0001631
            7           8           9          10          11          12
    1  -0.0004841  -0.0006767  -0.0000184  -0.0000076  -0.0000357   0.0000638
    2   0.0000368   0.0004345   0.0000152   0.0000235   0.0000043   0.0000496
    3   0.0001399   0.0002482   0.0000075  -0.0000042   0.0000006   0.0000308
 Max gradient component =       1.676E-03
 RMS gradient           =       3.652E-04
 Gradient time:  CPU 7.84 s  wall 0.71 s
 Geometry Optimization Parameters
   NAtoms,    NIC,     NZ,  NCons,   NDum,   NFix, NCnnct, MaxDiis
       12     125       0       1       0       0       0       0

 Cartesian Hessian Update
 Hessian Updated using BFGS Update


** CONSTRAINED OPTIMIZATION IN DELOCALIZED INTERNAL COORDINATES **
   Searching for a Minimum

   Optimization Cycle:   4

                       Coordinates (Angstroms)
     ATOM                X               Y               Z
      1  S         3.6423671637    0.7771926237   -0.1064469649
      2  C        -0.9096374650    0.2989007491   -0.0010818713
      3  C         0.0032734091   -0.8810100797   -0.0206330760
      4  C        -2.4067012599   -0.0838003165    0.0858422650
      5  H        -0.6671150559    0.9472539251    0.8503920964
      6  H        -0.7616113795    0.9006949122   -0.9081189195
      7  H         0.3596168627   -1.3240343195    0.9034335721
      8  H         0.1399352728   -1.4501582603   -0.9343594485
      9  H        -2.6147782111   -0.6522487337    0.9979290893
     10  H        -3.0376106076    0.8123148670    0.0925047648
     11  H        -2.7051431040   -0.7013771420   -0.7675063437
     12  H         3.6700083749    1.2600737745   -1.3689531638
   Point Group: c1    Number of degrees of freedom:    30


   Energy is   -517.223893427

              Constraints and their Current Values
                                        Value     Constraint
   Distance(Angs):        1   3             4.000000     4.000000
 Hessian Updated using BFGS Update

 29 Hessian modes will be used to form the next step
  Hessian Eigenvalues:
     0.019404    0.037473    0.045000    0.047528    0.049292    0.050580
     0.059693    0.065837    0.070995    0.071961    0.083020    0.083031
     0.085177    0.091897    0.123041    0.139522    0.159998    0.160006
     0.161159    0.252139    0.278731    0.283204    0.299463    0.320802
     0.329745    0.338927    0.341975    0.342748    0.343780

 Minimum Search - Taking Simple RFO Step
 Searching for Lamda that Minimizes Along All modes
 Value Taken    Lamda =  -0.00000697
 Step Taken.  Stepsize is  0.011364

                             Maximum     Tolerance    Cnvgd?
         Gradient           0.000366      0.000300      NO
         Displacement       0.006470      0.001200      NO
         Energy change     -0.000136      0.000001      NO


 New Cartesian Coordinates Obtained by Inverse Iteration

 Displacement from previous Coordinates is:  0.007117
 ----------------------------------------------------------------
             Standard Nuclear Orientation (Angstroms)
    I     Atom           X                Y                Z
 ----------------------------------------------------------------
    1      S       3.6413814416     0.7775771366    -0.1062114528
    2      C      -0.9098075298     0.2984991958    -0.0011063771
    3      C       0.0027794789    -0.8817213470    -0.0207252985
    4      C      -2.4071160062    -0.0833737117     0.0858511448
    5      H      -0.6660339078     0.9473170375     0.8498066634
    6      H      -0.7611607159     0.9012287607    -0.9076164771
    7      H       0.3605454394    -1.3241758740     0.9031322807
    8      H       0.1418365228    -1.4515900374    -0.9341106065
    9      H      -2.6152569783    -0.6520609932     0.9977843097
   10      H      -3.0377738436     0.8128521592     0.0927109340
   11      H      -2.7055632595    -0.7007608564    -0.7676356318
   12      H       3.6687733584     1.2600105298    -1.3688774889
 ----------------------------------------------------------------
 Nuclear Repulsion Energy =   128.2467821141 hartrees
 There are       22 alpha and       20 beta electrons

                       Distance Matrix (Angstroms)
             S (  1)   C (  2)   C (  3)   C (  4)   H (  5)   H (  6)
   C (  2)  4.577541
   C (  3)  4.000000  1.492019
   C (  4)  6.112483  1.547683  2.540928
   H (  5)  4.415496  1.097471  2.133194  2.162711
   H (  6)  4.476597  1.098699  2.132860  2.159997  1.760599
   H (  7)  4.024926  2.250449  1.085023  3.141256  2.493269  3.080497
   H (  8)  4.231007  2.244831  1.085523  3.067490  3.096735  2.520290
   H (  9)  6.512158  2.193150  2.818549  1.094692  2.525743  3.079113
   H ( 10)  6.682210  2.191256  3.482730  1.095900  2.493276  2.488259
   H ( 11)  6.550318  2.193360  2.815269  1.094841  3.080903  2.523225
   H ( 12)  1.351968  4.874290  4.454665  6.390411  4.879640  4.468311
             H (  7)   H (  8)   H (  9)   H ( 10)   H ( 11)
   H (  8)  1.854597
   H (  9)  3.052228  3.460207
   H ( 10)  4.095393  4.036333  1.773034
   H ( 11)  3.546989  2.949431  1.768399  1.772452
   H ( 12)  4.773303  4.470021  6.981844  6.878515  6.696139
 
 Applying Cartesian multipole field
    Component          Value
    ---------          -----
     (2,0,0)        1.00000E-11
     (0,2,0)        2.00000E-10
     (0,0,2)       -3.00000E-10
 Nucleus-field energy     =     0.0000000198 hartrees
 Requested basis set is 6-31G(d,p)
 There are 41 shells and 104 basis functions
 A cutoff of  1.0D-14 yielded    768 shell pairs
 There are      4937 function pairs
 Smallest overlap matrix eigenvalue = 6.40E-03
 Guess from superposition of atomic densities
 Warning:  Energy on first SCF cycle will be non-variational
 SAD guess density has 42.000000 electrons

 -----------------------------------------------------------------------
  General SCF calculation program by
  Eric Jon Sundstrom, Paul Horn, Yuezhi Mao, Dmitri Zuev, Alec White,
  David Stuck, Shaama M.S., Shane Yost, Joonho Lee, David Small,
  Daniel Levine, Susi Lehtola, Hugh Burton, Evgeny Epifanovsky
 -----------------------------------------------------------------------
 Exchange:     0.2000 Hartree-Fock + 0.0800 Slater + 0.7200 B88
 Correlation:  0.1900 VWN1RPA + 0.8100 LYP
 Using SG-1 standard quadrature grid
 using 12 threads for integral computing
 -------------------------------------------------------
 OpenMP Integral computing Module                
 Release: version 1.0, May 2013, Q-Chem Inc. Pittsburgh 
 -------------------------------------------------------
 -------------------------------------------------------
 OpenMP BLAS3 based DFT computing Module                
 Release: version 1.0, May 2013, Q-Chem Inc. Pittsburgh 
 -------------------------------------------------------
 A unrestricted SCF calculation will be
 performed using DIIS
 SCF converges when DIIS error is below 1.0e-06
 Alpha HF Exchange    Energy =  -4.31721677345352
 Beta HF Exchange     Energy =  -4.31721677345352
 DFT Correlation      Energy =  -1.85391341402169
 DFT Exchange         Energy = -33.94126449742657
 One-Electron (alpha) Energy = -479.56481821863105
 One-Electron (beta)  Energy = -479.56481821863105
 Total Coulomb        Energy = 357.89554931523850
 ---------------------------------------
  Cycle       Energy         DIIS error
 ---------------------------------------
    1    -517.4169164464      2.80e-02  
 Alpha HF Exchange    Energy =  -4.45361417101352
 Beta HF Exchange     Energy =  -4.26958151896342
 DFT Correlation      Energy =  -1.87425472774497
 DFT Exchange         Energy = -34.58701662194533
 One-Electron (alpha) Energy = -494.20880076000827
 One-Electron (beta)  Energy = -471.81331222416230
 Total Coulomb        Energy = 365.82176424326377
    2    -517.1380336466      3.67e-03  
 Alpha HF Exchange    Energy =  -4.39686889403991
 Beta HF Exchange     Energy =  -4.21936706174412
 DFT Correlation      Energy =  -1.84608375237292
 DFT Exchange         Energy = -34.13339869884516
 One-Electron (alpha) Energy = -490.86537981346515
 One-Electron (beta)  Energy = -468.50433211423353
 Total Coulomb        Energy = 358.58549222285012
    3    -517.1331559779      3.92e-03  
 Alpha HF Exchange    Energy =  -4.42601361033385
 Beta HF Exchange     Energy =  -4.24423689789885
 DFT Correlation      Energy =  -1.85939536599559
 DFT Exchange         Energy = -34.35778367215158
 One-Electron (alpha) Energy = -492.70544942348016
 One-Electron (beta)  Energy = -470.13564607335354
 Total Coulomb        Energy = 362.25831173302453
    4    -517.2234311762      2.67e-04  
 Alpha HF Exchange    Energy =  -4.42727965106553
 Beta HF Exchange     Energy =  -4.24424609305126
 DFT Correlation      Energy =  -1.85927150052629
 DFT Exchange         Energy = -34.36211684581508
 One-Electron (alpha) Energy = -492.74421872500574
 One-Electron (beta)  Energy = -470.10968423674137
 Total Coulomb        Energy = 362.27626949872672
    5    -517.2237654195      1.47e-04  
 Alpha HF Exchange    Energy =  -4.42700695214363
 Beta HF Exchange     Energy =  -4.24418284773534
 DFT Correlation      Energy =  -1.85907318891906
 DFT Exchange         Energy = -34.36054563440057
 One-Electron (alpha) Energy = -492.73705032518257
 One-Electron (beta)  Energy = -470.09032116437561
 Total Coulomb        Energy = 362.24750951365098
    6    -517.2238884651      3.89e-05  
 Alpha HF Exchange    Energy =  -4.42712837129943
 Beta HF Exchange     Energy =  -4.24410795463015
 DFT Correlation      Energy =  -1.85904312034922
 DFT Exchange         Energy = -34.36065898436366
 One-Electron (alpha) Energy = -492.74316240198544
 One-Electron (beta)  Energy = -470.08468081873889
 Total Coulomb        Energy = 362.24810107700512
    7    -517.2238984404      9.36e-06  
 Alpha HF Exchange    Energy =  -4.42718032956881
 Beta HF Exchange     Energy =  -4.24410975677226
 DFT Correlation      Energy =  -1.85903131621086
 DFT Exchange         Energy = -34.36083826056486
 One-Electron (alpha) Energy = -492.74705519398168
 One-Electron (beta)  Energy = -470.08354172814961
 Total Coulomb        Energy = 362.25107515295883
    8    -517.2238992983      3.87e-06  
 Alpha HF Exchange    Energy =  -4.42717664746766
 Beta HF Exchange     Energy =  -4.24409243107940
 DFT Correlation      Energy =  -1.85902363468662
 DFT Exchange         Energy = -34.36075535089947
 One-Electron (alpha) Energy = -492.74647967584525
 One-Electron (beta)  Energy = -470.08199064807587
 Total Coulomb        Energy = 362.24883683747157
[...]

                             Maximum     Tolerance    Cnvgd?
         Gradient           0.000108      0.000300     YES
         Displacement       0.002374      0.001200      NO
         Energy change     -0.000002      0.000001      NO


 New Cartesian Coordinates Obtained by Inverse Iteration

 Displacement from previous Coordinates is:  0.005629
 ----------------------------------------------------------------
             Standard Nuclear Orientation (Angstroms)
    I     Atom           X                Y                Z
 ----------------------------------------------------------------
    1      S       3.6289059223     0.7808126910    -0.0990333305
    2      C      -0.9100018643     0.2916717016    -0.0030719098
    3      C      -0.0031721431    -0.8931041719    -0.0214778901
    4      C      -2.4097348708    -0.0781932902     0.0865544777
    5      H      -0.6593849774     0.9400773433     0.8461735056
    6      H      -0.7574972193     0.8927050515    -0.9100545221
    7      H       0.3813746552    -1.3191623303     0.8991038710
    8      H       0.1614811614    -1.4517236731    -0.9376003872
    9      H      -2.6206522987    -0.6446785151     0.9991768797
   10      H      -3.0332045531     0.8229982251     0.0936957180
   11      H      -2.7141312007    -0.6939817568    -0.7659462733
   12      H       3.6486213885     1.2563807250    -1.3645181391
 ----------------------------------------------------------------
 Nuclear Repulsion Energy =   128.3187918749 hartrees
 There are       22 alpha and       20 beta electrons

                       Distance Matrix (Angstroms)
             S (  1)   C (  2)   C (  3)   C (  4)   H (  5)   H (  6)
   C (  2)  4.566197
   C (  3)  4.000000  1.492103
   C (  4)  6.102255  1.547266  2.543088
   H (  5)  4.394112  1.097477  2.131663  2.162781
   H (  6)  4.462153  1.098688  2.132531  2.160038  1.759604
   H (  7)  3.994075  2.253078  1.084838  3.160780  2.488000  3.076108
   H (  8)  4.208378  2.249633  1.085563  3.089762  3.094573  2.518259
   H (  9)  6.503466  2.192619  2.820400  1.094656  2.526149  3.078971
   H ( 10)  6.665031  2.190813  3.484160  1.095861  2.492980  2.488216
   H ( 11)  6.546290  2.192800  2.818365  1.094811  3.080757  2.523244
   H ( 12)  1.352038  4.854405  4.445181  6.371058  4.852435  4.444399
             H (  7)   H (  8)   H (  9)   H ( 10)   H ( 11)
   H (  8)  1.854564
   H (  9)  3.078491  3.484637
   H ( 10)  4.110582  4.055114  1.773181
   H ( 11)  3.570070  2.978722  1.768284  1.772575
   H ( 12)  4.736276  4.435790  6.964544  6.852810  6.681828
 
 Applying Cartesian multipole field
    Component          Value
    ---------          -----
     (2,0,0)        1.00000E-11
     (0,2,0)        2.00000E-10
     (0,0,2)       -3.00000E-10
 Nucleus-field energy     =     0.0000000199 hartrees
 Requested basis set is 6-31G(d,p)
 There are 41 shells and 104 basis functions
 A cutoff of  1.0D-14 yielded    768 shell pairs
 There are      4946 function pairs
 Smallest overlap matrix eigenvalue = 6.39E-03
 Guess from superposition of atomic densities
 Warning:  Energy on first SCF cycle will be non-variational
 SAD guess density has 42.000000 electrons

 -----------------------------------------------------------------------
  General SCF calculation program by
  Eric Jon Sundstrom, Paul Horn, Yuezhi Mao, Dmitri Zuev, Alec White,
  David Stuck, Shaama M.S., Shane Yost, Joonho Lee, David Small,
  Daniel Levine, Susi Lehtola, Hugh Burton, Evgeny Epifanovsky
 -----------------------------------------------------------------------
 Exchange:     0.2000 Hartree-Fock + 0.0800 Slater + 0.7200 B88
 Correlation:  0.1900 VWN1RPA + 0.8100 LYP
 Using SG-1 standard quadrature grid
 using 12 threads for integral computing
 -------------------------------------------------------
 OpenMP Integral computing Module                
 Release: version 1.0, May 2013, Q-Chem Inc. Pittsburgh 
 -------------------------------------------------------
 -------------------------------------------------------
 OpenMP BLAS3 based DFT computing Module                
 Release: version 1.0, May 2013, Q-Chem Inc. Pittsburgh 
 -------------------------------------------------------
 A unrestricted SCF calculation will be
 performed using DIIS
 SCF converges when DIIS error is below 1.0e-06
 Alpha HF Exchange    Energy =  -4.31720589177640
 Beta HF Exchange     Energy =  -4.31720589177640
 DFT Correlation      Energy =  -1.85390555746412
 DFT Exchange         Energy = -33.94128362867735
 One-Electron (alpha) Energy = -479.63662337688351
 One-Electron (beta)  Energy = -479.63662337688351
 Total Coulomb        Energy = 357.96711751041892
 ---------------------------------------
  Cycle       Energy         DIIS error
 ---------------------------------------
    1    -517.4169383183      2.80e-02  
 Alpha HF Exchange    Energy =  -4.45358735667030
 Beta HF Exchange     Energy =  -4.26968486083195
 DFT Correlation      Energy =  -1.87427013622154
 DFT Exchange         Energy = -34.58720000549836
 One-Electron (alpha) Energy = -494.27967187715211
 One-Electron (beta)  Energy = -471.88401440761277
 Total Coulomb        Energy = 365.89151695346720
    2    -517.1381197957      3.67e-03  
 Alpha HF Exchange    Energy =  -4.39680344697309
 Beta HF Exchange     Energy =  -4.21941656910470
 DFT Correlation      Energy =  -1.84610194462932
 DFT Exchange         Energy = -34.13333622536663
 One-Electron (alpha) Energy = -490.93619426597030
 One-Electron (beta)  Energy = -468.57654954059632
 Total Coulomb        Energy = 358.65643317504021
    3    -517.1331769228      3.92e-03  
 Alpha HF Exchange    Energy =  -4.42595638731957
 Beta HF Exchange     Energy =  -4.24428394279361
 DFT Correlation      Energy =  -1.85942243090906
 DFT Exchange         Energy = -34.35774301348801
 One-Electron (alpha) Energy = -492.77605121918316
 One-Electron (beta)  Energy = -470.20702976210578
 Total Coulomb        Energy = 362.32823541289139
    4    -517.2234594481      2.66e-04  
 Alpha HF Exchange    Energy =  -4.42722438783870
 Beta HF Exchange     Energy =  -4.24429772829871
 DFT Correlation      Energy =  -1.85929939690276
 DFT Exchange         Energy = -34.36210595273826
 One-Electron (alpha) Energy = -492.81504759918931
 One-Electron (beta)  Energy = -470.18118404778033
 Total Coulomb        Energy = 362.34657367872404
    5    -517.2237935393      1.46e-04  
 Alpha HF Exchange    Energy =  -4.42695132758636
 Beta HF Exchange     Energy =  -4.24422977251943
 DFT Correlation      Energy =  -1.85910196931348
 DFT Exchange         Energy = -34.36051849794600
 One-Electron (alpha) Energy = -492.80788608064165
 One-Electron (beta)  Energy = -470.16175608397077
 Total Coulomb        Energy = 362.31773677367823
    6    -517.2239150635      3.88e-05  
 Alpha HF Exchange    Energy =  -4.42707363261020
 Beta HF Exchange     Energy =  -4.24415445418897
 DFT Correlation      Energy =  -1.85907234471593
 DFT Exchange         Energy = -34.36063376590222
 One-Electron (alpha) Energy = -492.81401242002153
 One-Electron (beta)  Energy = -470.15609736230846
 Total Coulomb        Energy = 362.31832707459409
    7    -517.2239250104      9.37e-06  
 Alpha HF Exchange    Energy =  -4.42712609839748
 Beta HF Exchange     Energy =  -4.24415633346845
 DFT Correlation      Energy =  -1.85906064838754
 DFT Exchange         Energy = -34.36081557468917
 One-Electron (alpha) Energy = -492.81795277634870
 One-Electron (beta)  Energy = -470.15497353915572
 Total Coulomb        Energy = 362.32136720342510
    8    -517.2239258722      3.84e-06  
 Alpha HF Exchange    Energy =  -4.42712225409143
 Beta HF Exchange     Energy =  -4.24413879274488
 DFT Correlation      Energy =  -1.85905289791165
 DFT Exchange         Energy = -34.36073114077807
 One-Electron (alpha) Energy = -492.81735413030935
 One-Electron (beta)  Energy = -470.15340183177278
 Total Coulomb        Energy = 362.31908316373767
    9    -517.2239259891      1.32e-06  
 Alpha HF Exchange    Energy =  -4.42712556847667
 Beta HF Exchange     Energy =  -4.24413906376622
 DFT Correlation      Energy =  -1.85905293981693
 DFT Exchange         Energy = -34.36074551289801
 One-Electron (alpha) Energy = -492.81756484341355
 One-Electron (beta)  Energy = -470.15336738620221
 Total Coulomb        Energy = 362.31927741924773
   10    -517.2239260006      5.11e-07  Convergence criterion met
 ---------------------------------------
 SCF time:   CPU 21.84s  wall 2.00s 
<S^2> =          2.006232512
 Alpha HF Exchange    Energy =  -4.42712556847667
 Beta HF Exchange     Energy =  -4.24413906376622
 DFT Correlation      Energy =  -1.85905293981693
 DFT Exchange         Energy = -34.36074551289801
 One-Electron (alpha) Energy = -492.81756484341355
 One-Electron (beta)  Energy = -470.15336738620221
 Total Coulomb        Energy = 362.31927741924773
 Nuclear repulsion Energy = 128.31879189477391
 SCF   energy in the final basis set =     -517.2239260006
 Total energy in the final basis set =     -517.2239260006
 
 --------------------------------------------------------------
 
                    Orbital Energies (a.u.)
 --------------------------------------------------------------
 
 Alpha MOs
 -- Occupied --
-88.909 -10.181 -10.180 -10.173  -7.970  -5.942  -5.932  -5.922
 -0.774  -0.736  -0.668  -0.574  -0.457  -0.423  -0.411  -0.388
 -0.373  -0.345  -0.328  -0.319  -0.271  -0.191
 -- Virtual --
  0.033   0.107   0.143   0.146   0.159   0.180   0.182   0.225
  0.236   0.271   0.280   0.327   0.334   0.354   0.517   0.537
  0.540   0.556   0.600   0.645   0.662   0.690   0.700   0.706
  0.730   0.739   0.746   0.795   0.818   0.862   0.880   0.886
  0.915   0.941   0.964   1.004   1.086   1.215   1.312   1.441
  1.484   1.523   1.607   1.686   1.826   1.877   1.958   1.987
  2.000   2.055   2.058   2.069   2.073   2.124   2.131   2.229
  2.266   2.294   2.378   2.447   2.453   2.529   2.579   2.678
  2.700   2.713   2.745   2.804   2.867   2.885   2.925   3.187
  3.262   3.360   3.386   3.467   3.482   3.561   3.920   4.246
  4.435   4.611
 
 Beta MOs
 -- Occupied --
-88.903 -10.182 -10.172 -10.166  -7.965  -5.928  -5.924  -5.919
 -0.764  -0.696  -0.650  -0.560  -0.452  -0.417  -0.397  -0.383
 -0.362  -0.339  -0.325  -0.256
 -- Virtual --
 -0.176  -0.034   0.044   0.110   0.148   0.155   0.163   0.183
  0.185   0.230   0.240   0.285   0.290   0.335   0.365   0.373
  0.522   0.539   0.555   0.570   0.604   0.662   0.679   0.713
  0.730   0.740   0.744   0.794   0.799   0.801   0.826   0.866
  0.882   0.890   0.921   0.946   0.977   1.007   1.096   1.226
  1.321   1.472   1.489   1.537   1.628   1.686   1.835   1.882
  1.962   2.006   2.044   2.056   2.062   2.066   2.074   2.128
  2.135   2.231   2.279   2.295   2.384   2.452   2.464   2.539
  2.604   2.684   2.702   2.714   2.748   2.807   2.869   2.887
  2.929   3.189   3.265   3.365   3.388   3.470   3.488   3.564
  3.939   4.264   4.451   4.614
 --------------------------------------------------------------
 
          Ground-State Mulliken Net Atomic Charges

     Atom                 Charge (a.u.)    Spin (a.u.)
  --------------------------------------------------------
      1 S                    -0.072202       1.032572
      2 C                    -0.188302      -0.074014
      3 C                    -0.208380       1.076198
      4 C                    -0.307385       0.048814
      5 H                     0.101333       0.010094
      6 H                     0.098864       0.017092
      7 H                     0.100899      -0.048057
      8 H                     0.095929      -0.047841
      9 H                     0.105024      -0.000191
     10 H                     0.098482       0.013604
     11 H                     0.103600      -0.000701
     12 H                     0.072138      -0.027570
  --------------------------------------------------------
  Sum of atomic charges =    -0.000000
  Sum of spin   charges =     2.000000

 -----------------------------------------------------------------
                    Cartesian Multipole Moments
 -----------------------------------------------------------------
    Charge (ESU x 10^10)
                -0.0000
    Dipole Moment (Debye)
         X      -0.1203      Y       0.4247      Z      -0.9347
       Tot       1.0337
    Quadrupole Moments (Debye-Ang)
        XX     -36.5509     XY      -0.0955     YY     -33.2860
        XZ      -3.7890     YZ      -1.2031     ZZ     -31.8298
    Octopole Moments (Debye-Ang^2)
       XXX     -91.1875    XXY      -9.0368    XYY     -22.3474
       YYY     -16.0621    XXZ     -14.1172    XYZ      -5.0656
       YYZ      -0.1771    XZZ     -18.7782    YZZ      -5.3317
       ZZZ       3.4560
    Hexadecapole Moments (Debye-Ang^3)
      XXXX   -1566.9100   XXXY    -152.5300   XXYY    -261.6507
      XYYY    -113.4212   YYYY    -150.7822   XXXZ     -34.2588
      XXYZ     -16.4564   XYYZ       3.2918   YYYZ       4.3715
      XXZZ    -226.2219   XYZZ     -31.5013   YYZZ     -32.3545
      XZZZ      21.5536   YZZZ       3.5937   ZZZZ     -63.7713
 -----------------------------------------------------------------
 Calculating analytic gradient of the SCF energy
 Gradient of SCF Energy
            1           2           3           4           5           6
    1  -0.0006098  -0.0000020   0.0005006   0.0000102   0.0000121   0.0000140
    2  -0.0002231   0.0001330   0.0001631  -0.0000328  -0.0000703  -0.0000707
    3  -0.0000437  -0.0000548   0.0000134   0.0000121   0.0000458  -0.0000244
            7           8           9          10          11          12
    1  -0.0000261   0.0000315   0.0000038  -0.0000031  -0.0000019   0.0000707
    2   0.0000025   0.0000547  -0.0000027  -0.0000077  -0.0000019   0.0000560
    3   0.0000192   0.0000197   0.0000039   0.0000045  -0.0000022   0.0000066
 Max gradient component =       6.098E-04
 RMS gradient           =       1.443E-04
 Gradient time:  CPU 7.81 s  wall 0.69 s
 Geometry Optimization Parameters
   NAtoms,    NIC,     NZ,  NCons,   NDum,   NFix, NCnnct, MaxDiis
       12     125       0       1       0       0       0       0

 Cartesian Hessian Update
 Hessian Updated using BFGS Update


** CONSTRAINED OPTIMIZATION IN DELOCALIZED INTERNAL COORDINATES **
   Searching for a Minimum

   Optimization Cycle:  11

                       Coordinates (Angstroms)
     ATOM                X               Y               Z
      1  S         3.6289059223    0.7808126910   -0.0990333305
      2  C        -0.9100018643    0.2916717016   -0.0030719098
      3  C        -0.0031721431   -0.8931041719   -0.0214778901
      4  C        -2.4097348708   -0.0781932902    0.0865544777
      5  H        -0.6593849774    0.9400773433    0.8461735056
      6  H        -0.7574972193    0.8927050515   -0.9100545221
      7  H         0.3813746552   -1.3191623303    0.8991038710
      8  H         0.1614811614   -1.4517236731   -0.9376003872
      9  H        -2.6206522987   -0.6446785151    0.9991768797
     10  H        -3.0332045531    0.8229982251    0.0936957180
     11  H        -2.7141312007   -0.6939817568   -0.7659462733
     12  H         3.6486213885    1.2563807250   -1.3645181391
   Point Group: c1    Number of degrees of freedom:    30


   Energy is   -517.223926001

              Constraints and their Current Values
                                        Value     Constraint
   Distance(Angs):        1   3             4.000000     4.000000
 Hessian Updated using BFGS Update

 29 Hessian modes will be used to form the next step
  Hessian Eigenvalues:
     0.002417    0.013259    0.029389    0.040543    0.045052    0.048492
     0.050402    0.053808    0.065244    0.072260    0.082036    0.083035
     0.084757    0.091036    0.103071    0.147647    0.159925    0.160239
     0.162294    0.252289    0.272610    0.281386    0.299942    0.320293
     0.328816    0.336808    0.341743    0.342718    0.342986

 Minimum Search - Taking Simple RFO Step
 Searching for Lamda that Minimizes Along All modes
 Value Taken    Lamda =   0.00000000
 Step Taken.  Stepsize is  0.004774

                             Maximum     Tolerance    Cnvgd?
         Gradient           0.000077      0.000300     YES
         Displacement       0.002260      0.001200      NO
         Energy change     -0.000001      0.000001     YES


                       Distance Matrix (Angstroms)
             S (  1)   C (  2)   C (  3)   C (  4)   H (  5)   H (  6)
   C (  2)  4.566197
   C (  3)  4.000000  1.492103
   C (  4)  6.102255  1.547266  2.543088
   H (  5)  4.394112  1.097477  2.131663  2.162781
   H (  6)  4.462153  1.098688  2.132531  2.160038  1.759604
   H (  7)  3.994075  2.253078  1.084838  3.160780  2.488000  3.076108
   H (  8)  4.208378  2.249633  1.085563  3.089762  3.094573  2.518259
   H (  9)  6.503466  2.192619  2.820400  1.094656  2.526149  3.078971
   H ( 10)  6.665031  2.190813  3.484160  1.095861  2.492980  2.488216
   H ( 11)  6.546290  2.192800  2.818365  1.094811  3.080757  2.523244
   H ( 12)  1.352038  4.854405  4.445181  6.371058  4.852435  4.444399
             H (  7)   H (  8)   H (  9)   H ( 10)   H ( 11)
   H (  8)  1.854564
   H (  9)  3.078491  3.484637
   H ( 10)  4.110582  4.055114  1.773181
   H ( 11)  3.570070  2.978722  1.768284  1.772575
   H ( 12)  4.736276  4.435790  6.964544  6.852810  6.681828
 
 Final energy is   -517.223926000552     


 ******************************
 **  OPTIMIZATION CONVERGED  **
 ******************************

                       Coordinates (Angstroms)
     ATOM                X               Y               Z
      1  S         3.6289059223    0.7808126910   -0.0990333305
      2  C        -0.9100018643    0.2916717016   -0.0030719098
      3  C        -0.0031721431   -0.8931041719   -0.0214778901
      4  C        -2.4097348708   -0.0781932902    0.0865544777
      5  H        -0.6593849774    0.9400773433    0.8461735056
      6  H        -0.7574972193    0.8927050515   -0.9100545221
      7  H         0.3813746552   -1.3191623303    0.8991038710
      8  H         0.1614811614   -1.4517236731   -0.9376003872
      9  H        -2.6206522987   -0.6446785151    0.9991768797
     10  H        -3.0332045531    0.8229982251    0.0936957180
     11  H        -2.7141312007   -0.6939817568   -0.7659462733
     12  H         3.6486213885    1.2563807250   -1.3645181391

Z-matrix Print:
$molecule
0 3
S 
H  1 1.352038
H  1 3.994075 2 115.511937
C  3 1.084838 1 82.510793 2 -13.214798 0
H  4 1.085563 3 117.404698 1 89.760802 0
C  4 1.492103 3 121.118620 1 -99.981361 0
H  6 1.097477 4 109.869910 3 32.210453 0
H  6 1.098688 4 109.866426 3 149.053895 0
C  6 1.547266 4 113.577437 3 -89.549359 0
H  9 1.094656 6 111.023976 4 60.056350 0
H  9 1.094811 6 111.029102 4 -59.765136 0
H  9 1.095861 6 110.808805 4 -179.815065 0
$end

PES scan, value:    4.0000 energy: -517.2239260006
------- Summary of potential scan: ------ 
    4.0000      -517.2239260006
----------------------------------------- 
Archival summary:
1\1\hpc0250\JobtypUnspecified\ProcedureUnspecified\6-31G**\138(3)\knomura\WedMar1321:17:082019WedMar1321:17:082019\0\\#,JobtypUnspecified,ProcedureUnspecified,6-31G**,\\0,3\S\H,1,1.35204\H,1,3.99407,2,115.512\C,3,1.08484,1,82.5108,2,-13.2148,0\H,4,1.08556,3,117.405,1,89.7608,0\C,4,1.4921,3,121.119,1,-99.9814,0\H,6,1.09748,4,109.87,3,32.2105,0\H,6,1.09869,4,109.866,3,149.054,0\C,6,1.54727,4,113.577,3,-89.5494,0\H,9,1.09466,6,111.024,4,60.0563,0\H,9,1.09481,6,111.029,4,-59.7651,0\H,9,1.09586,6,110.809,4,-179.815,0\\\@

 Total job time:  38.67s(wall), 389.06s(cpu) 
 Wed Mar 13 21:17:08 2019

        *************************************************************
        *                                                           *
        *  Thank you very much for using Q-Chem.  Have a nice day.  *
        *                                                           *
        *************************************************************


