
Running Job 1 of 1 thiol/02/C-S.xyz.data/inputs/bond_triplet_4.5.in
qchem thiol/02/C-S.xyz.data/inputs/bond_triplet_4.5.in_21341.0 /staging/scratch/2868767/qchem21341/ 1
/usr/usc/qchem/5.1.1/exe/qcprog.exe_s thiol/02/C-S.xyz.data/inputs/bond_triplet_4.5.in_21341.0 /staging/scratch/2868767/qchem21341/
Check license passed

                  Welcome to Q-Chem
     A Quantum Leap Into The Future Of Chemistry


 Q-Chem 5.1, Q-Chem, Inc., Pleasanton, CA (2018)

 Yihan Shao,  Zhengting Gan,  E. Epifanovsky,  A. T. B. Gilbert,  M. Wormit,  
 J. Kussmann,  A. W. Lange,  A. Behn,  Jia Deng,  Xintian Feng,  D. Ghosh,  
 M. Goldey,  P. R. Horn,  L. D. Jacobson,  I. Kaliman,  T. Kus,  A. Landau,  
 Jie Liu,  E. I. Proynov,  R. M. Richard,  R. P. Steele,  E. J. Sundstrom,  
 H. L. Woodcock III,  P. M. Zimmerman,  D. Zuev,  B. Albrecht,  E. Alguire,  
 S. A. Baeppler,  D. Barton,  Z. Benda,  Y. A. Bernard,  E. J. Berquist,  
 K. B. Bravaya,  H. Burton,  D. Casanova,  Chun-Min Chang,  Yunqing Chen,  
 A. Chien,  K. D. Closser,  M. P. Coons,  S. Coriani,  S. Dasgupta,  
 A. L. Dempwolff,  M. Diedenhofen,  Hainam Do,  R. G. Edgar,  Po-Tung Fang,  
 S. Faraji,  S. Fatehi,  Qingguo Feng,  K. D. Fenk,  J. Fosso-Tande,  
 Qinghui Ge,  A. Ghysels,  G. Gidofalvi,  J. Gomes,  J. Gonthier,  A. Gunina,  
 D. Hait,  M. W. D. Hanson-Heine,  P. H. P. Harbach,  A. W. Hauser,  
 J. E. Herr,  E. G. Hohenstein,  Z. C. Holden,  Kerwin Hui,  B. C. Huynh,  
 T.-C. Jagau,  Hyunjun Ji,  B. Kaduk,  K. Khistyaev,  Jaehoon Kim,  
 P. Klunzinger,  K. Koh,  D. Kosenkov,  L. Koulias,  T. Kowalczyk,  
 C. M. Krauter,  A. Kunitsa,  Ka Un Lao,  A. Laurent,  K. V. Lawler,  
 Joonho Lee,  D. Lefrancois,  S. Lehtola,  D. S. Levine,  Yi-Pei Li,  
 You-Sheng Lin,  Fenglai Liu,  E. Livshits,  A. Luenser,  P. Manohar,  
 E. Mansoor,  S. F. Manzer,  Shan-Ping Mao,  Yuezhi Mao,  N. Mardirossian,  
 A. V. Marenich,  T. Markovich,  L. A. Martinez-Martinez,  S. A. Maurer,  
 N. J. Mayhall,  S. C. McKenzie,  J.-M. Mewes,  A. F. Morrison,  
 J. W. Mullinax,  K. Nanda,  T. S. Nguyen-Beck,  R. Olivares-Amaya,  
 J. A. Parkhill,  T. M. Perrine,  F. Plasser,  P. Pokhilko,  S. Prager,  
 A. Prociuk,  E. Ramos,  D. R. Rehn,  F. Rob,  M. Schneider,  N. Sergueev,  
 S. M. Sharada,  S. Sharma,  D. W. Small,  T. Stauch,  T. Stein,  
 Yu-Chuan Su,  A. J. W. Thom,  A. Tkatchenko,  T. Tsuchimochi,  N. M. Tubman,  
 L. Vogt,  M. L. Vidal,  O. Vydrov,  M. A. Watson,  J. Wenzel,  
 M. de Wergifosse,  T. A. Wesolowski,  A. White,  J. Witte,  A. Yamada,  
 Jun Yang,  K. Yao,  S. Yeganeh,  S. R. Yost,  Zhi-Qiang You,  A. Zech,  
 Igor Ying Zhang,  Xing Zhang,  Yan Zhao,  Ying Zhu,  B. R. Brooks,  
 G. K. L. Chan,  C. J. Cramer,  M. S. Gordon,  W. J. Hehre,  A. Klamt,  
 M. W. Schmidt,  C. D. Sherrill,  D. G. Truhlar,  A. Aspuru-Guzik,  R. Baer,  
 A. T. Bell,  N. A. Besley,  Jeng-Da Chai,  A. E. DePrince, III,  
 R. A. DiStasio Jr.,  A. Dreuw,  B. D. Dunietz,  T. R. Furlani,  
 Chao-Ping Hsu,  Yousung Jung,  Jing Kong,  D. S. Lambrecht,  WanZhen Liang,  
 C. Ochsenfeld,  V. A. Rassolov,  L. V. Slipchenko,  J. E. Subotnik,  
 T. Van Voorhis,  J. M. Herbert,  A. I. Krylov,  P. M. W. Gill,  M. Head-Gordon

 Contributors to earlier versions of Q-Chem not listed above: 
 R. D. Adamson,  B. Austin,  J. Baker,  G. J. O. Beran,  K. Brandhorst,  
 S. T. Brown,  E. F. C. Byrd,  A. K. Chakraborty,  C.-L. Cheng,  
 Siu Hung Chien,  D. M. Chipman,  D. L. Crittenden,  H. Dachsel,  
 R. J. Doerksen,  A. D. Dutoi,  L. Fusti-Molnar,  W. A. Goddard III,  
 A. Golubeva-Zadorozhnaya,  S. R. Gwaltney,  G. Hawkins,  A. Heyden,  
 S. Hirata,  G. Kedziora,  F. J. Keil,  C. Kelley,  Jihan Kim,  R. A. King,  
 R. Z. Khaliullin,  P. P. Korambath,  W. Kurlancheek,  A. M. Lee,  M. S. Lee,  
 S. V. Levchenko,  Ching Yeh Lin,  D. Liotard,  R. C. Lochan,  I. Lotan,  
 P. E. Maslen,  N. Nair,  D. P. O'Neill,  D. Neuhauser,  E. Neuscamman,  
 C. M. Oana,  R. Olson,  B. Peters,  R. Peverati,  P. A. Pieniazek,  
 Y. M. Rhee,  J. Ritchie,  M. A. Rohrdanz,  E. Rosta,  N. J. Russ,  
 H. F. Schaefer III,  N. E. Schultz,  N. Shenvi,  A. C. Simmonett,  A. Sodt,  
 D. Stuck,  K. S. Thanthiriwatte,  V. Vanovschi,  Tao Wang,  A. Warshel,  
 C. F. Williams,  Q. Wu,  X. Xu,  W. Zhang

 Please cite Q-Chem as follows:
 Y. Shao et al., Mol. Phys. 113, 184-215 (2015)
 DOI: 10.1080/00268976.2014.952696

 Q-Chem 5.1.1 for Intel X86 EM64T Linux

 Parts of Q-Chem use Armadillo 8.300.2 (Tropical Shenanigans).
 http://arma.sourceforge.net/

 Q-Chem begins on Wed Mar 13 21:13:33 2019  

Host: 
0

     Scratch files written to /staging/scratch/2868767/qchem21341//
 Aug318 |scratch|qcdevops|jenkins|workspace|build_RNUM 6013   
Processing $rem in /usr/usc/qchem/5.1.1/config/preferences.
 MEM_TOTAL  2000 
Input Ideriv = 2
Curr. Ideriv = -1
Max.  Ideriv = 2

Checking the input file for inconsistencies... 	...done.

--------------------------------------------------------------
User input:
--------------------------------------------------------------

$comment
potential surface scanner
$end

$rem
JOBTYPE  PES_SCAN
UNRESTRICTED TRUE
SYM_IGNORE  TRUE
GEOM_OPT_MAX_CYCLES 400
SCF_MAX_CYCLES 400
METHOD   B3LYP
BASIS   6-31G**
PDB_PRINT 2
SCF_CONVERGENCE 6
THRESH 14
SCF_PRINT 1
$end
$molecule
0 3
S 4.122727 0.914016 -0.117024
C -0.998706 0.267079 -0.017999
C -0.095014 -0.920097 -0.035179
C -2.496379 -0.097951 0.118370
H -0.725963 0.931038 0.812632
H -0.868284 0.849824 -0.939860
H 0.280991 -1.350130 0.887430
H 0.078233 -1.475496 -0.951653
H -2.683417 -0.648215 1.045977
H -3.117408 0.804825 0.127057
H -2.824576 -0.727457 -0.714960
H 4.040399 1.356364 -1.391790
$end
$scan
stre 1 3 4.500000 4.501000 0.100000
$end
--------------------------------------------------------------
 ----------------------------------------------------------------
             Standard Nuclear Orientation (Angstroms)
    I     Atom           X                Y                Z
 ----------------------------------------------------------------
    1      S       4.1227270000     0.9140160000    -0.1170240000
    2      C      -0.9987060000     0.2670790000    -0.0179990000
    3      C      -0.0950140000    -0.9200970000    -0.0351790000
    4      C      -2.4963790000    -0.0979510000     0.1183700000
    5      H      -0.7259630000     0.9310380000     0.8126320000
    6      H      -0.8682840000     0.8498240000    -0.9398600000
    7      H       0.2809910000    -1.3501300000     0.8874300000
    8      H       0.0782330000    -1.4754960000    -0.9516530000
    9      H      -2.6834170000    -0.6482150000     1.0459770000
   10      H      -3.1174080000     0.8048250000     0.1270570000
   11      H      -2.8245760000    -0.7274570000    -0.7149600000
   12      H       4.0403990000     1.3563640000    -1.3917900000
 ----------------------------------------------------------------
 Nuclear Repulsion Energy =   123.1520087267 hartrees
 There are       22 alpha and       20 beta electrons
 Requested basis set is 6-31G(d,p)
 There are 41 shells and 104 basis functions

 Total QAlloc Memory Limit   2000 MB
 Mega-Array Size       188 MB
 MEM_STATIC part       192 MB
A total of 1 constraints
  
            1
    1   1.0100000
    2   1.0100000
    3   3.0100000
    4   4.5000000
    5   4.5010000
    6   0.1000000
    7   0.0000000
    8   0.0000000
    9   0.0000000
   10   0.0000000

                       Distance Matrix (Angstroms)
             S (  1)   C (  2)   C (  3)   C (  4)   H (  5)   H (  6)
   C (  2)  5.163081
   C (  3)  4.600001  1.492093
   C (  4)  6.700153  1.547536  2.542844
   H (  5)  4.937038  1.097806  2.131568  2.162219
   H (  6)  5.058791  1.098376  2.132842  2.160746  1.760136
   H (  7)  4.571020  2.252286  1.085134  3.142163  2.494650  3.082145
   H (  8)  4.771195  2.251239  1.085545  3.109856  3.090443  2.510607
   H (  9)  7.079317  2.192729  2.818270  1.094636  2.525889  3.079347
   H ( 10)  7.245071  2.190687  3.483754  1.095791  2.490974  2.489758
   H ( 11)  7.163587  2.192865  2.819525  1.094728  3.080312  2.522989
   H ( 12)  1.351842  5.335393  4.911650  6.864771  5.268642  4.955400
             H (  7)   H (  8)   H (  9)   H ( 10)   H ( 11)
   H (  8)  1.854469
   H (  9)  3.050498  3.507368
   H ( 10)  4.095255  4.071314  1.773157
   H ( 11)  3.549637  3.006973  1.768362  1.772747
   H ( 12)  5.162664  4.889981  7.427701  7.337935  7.206129
 
 A cutoff of  1.0D-14 yielded    750 shell pairs
 There are      4742 function pairs
 
 -------------------------------------------------------
 OpenMP Integral Computing Module                       
 Release: version 1.0, May 2013, Q-Chem Inc. Pittsburgh 
 -------------------------------------------------------
 Integral Job Info:
 Integral job number is                      11
 Integral operator is                         1
 short-range coefficients                     0
 long-range coefficients              100000000
 Omega coefficients                           0
 if combine SR and LR in K                    0
 Integral screening is                        0
 Integral computing path is                   2
 max size of driver memory is            800000
 size of driver memory is                593474
 size of scratch memory is             15267112
 max col of scratch BK array               1296
 max len of scratch array in speh3          155
 max len of scratch index in speh4           18
 max int batch size is                      520
 min int batch size is                       52
 fixed nKL is                                52
 max L of basis functions is                  2
 order of int derivative is                   0
 number of shells is                         41
 number of basis is                         104
 number of cartesian basis is               104
 number of contracted shell pairs           750
 number of primitive shell pairs           2589
 maxK2 (contraction) of shell pair           36
 max number of K2 of shell pair               1
 max number of CS2 of shell pair             74
 max number of PS2 of shell pair            228
 mem total for path MDJ                  512182
 -------------------------------------------------------
 Smallest overlap matrix eigenvalue = 6.42E-03

 Scale SEOQF with 1.000000e-01/1.000000e+00/1.000000e+00

 Standard Electronic Orientation quadrupole field applied
 Nucleus-field energy     =     0.0000000251 hartrees
 Guess from superposition of atomic densities
 Warning:  Energy on first SCF cycle will be non-variational
 SAD guess density has 42.000000 electrons

 -----------------------------------------------------------------------
  General SCF calculation program by
  Eric Jon Sundstrom, Paul Horn, Yuezhi Mao, Dmitri Zuev, Alec White,
  David Stuck, Shaama M.S., Shane Yost, Joonho Lee, David Small,
  Daniel Levine, Susi Lehtola, Hugh Burton, Evgeny Epifanovsky
 -----------------------------------------------------------------------
 Exchange:     0.2000 Hartree-Fock + 0.0800 Slater + 0.7200 B88
 Correlation:  0.1900 VWN1RPA + 0.8100 LYP
 Using SG-1 standard quadrature grid
 using 12 threads for integral computing
 -------------------------------------------------------
 OpenMP Integral computing Module                
 Release: version 1.0, May 2013, Q-Chem Inc. Pittsburgh 
 -------------------------------------------------------
 -------------------------------------------------------
 OpenMP BLAS3 based DFT computing Module                
 Release: version 1.0, May 2013, Q-Chem Inc. Pittsburgh 
 -------------------------------------------------------
 A unrestricted SCF calculation will be
 performed using DIIS
 SCF converges when DIIS error is below 1.0e-06
 Alpha HF Exchange    Energy =  -4.31711080463737
 Beta HF Exchange     Energy =  -4.31711080463737
 DFT Correlation      Energy =  -1.85335169856933
 DFT Exchange         Energy = -33.94159394963538
 One-Electron (alpha) Energy = -474.46992096480426
 One-Electron (beta)  Energy = -474.46992096480426
 Total Coulomb        Energy = 352.80070680165875
 ---------------------------------------
  Cycle       Energy         DIIS error
 ---------------------------------------
    1    -517.4162936336      2.80e-02  
 Alpha HF Exchange    Energy =  -4.45353276849865
 Beta HF Exchange     Energy =  -4.27091120115497
 DFT Correlation      Energy =  -1.87356281006068
 DFT Exchange         Energy = -34.58945014451729
 One-Electron (alpha) Energy = -488.77888796193423
 One-Electron (beta)  Energy = -467.01585203738176
 Total Coulomb        Energy = 360.68897477431335
    2    -517.1412133974      3.63e-03  
 Alpha HF Exchange    Energy =  -4.39672274858580
 Beta HF Exchange     Energy =  -4.21960536993151
 DFT Correlation      Energy =  -1.84549112557155
 DFT Exchange         Energy = -34.13381775969061
 One-Electron (alpha) Energy = -485.43339428944978
 One-Electron (beta)  Energy = -463.70225948548284
 Total Coulomb        Energy = 353.44297146278393
    3    -517.1363105641      3.86e-03  
 Alpha HF Exchange    Energy =  -4.42580869006647
 Beta HF Exchange     Energy =  -4.24459204828380
 DFT Correlation      Energy =  -1.85880858820594
 DFT Exchange         Energy = -34.35829969892993
 One-Electron (alpha) Energy = -487.27566777492120
 One-Electron (beta)  Energy = -465.33331239892925
 Total Coulomb        Energy = 357.12073021815206
    4    -517.2237502294      2.70e-04  
 Alpha HF Exchange    Energy =  -4.42713110662450
 Beta HF Exchange     Energy =  -4.24458384959462
 DFT Correlation      Energy =  -1.85871996829277
 DFT Exchange         Energy = -34.36289187319789
 One-Electron (alpha) Energy = -487.31747261930417
 One-Electron (beta)  Energy = -465.30730673371403
 Total Coulomb        Energy = 357.14200800064634
    5    -517.2240893982      1.43e-04  
 Alpha HF Exchange    Energy =  -4.42683149285974
 Beta HF Exchange     Energy =  -4.24446253964285
 DFT Correlation      Energy =  -1.85850656474311
 DFT Exchange         Energy = -34.36099889921665
 One-Electron (alpha) Energy = -487.30884933279907
 One-Electron (beta)  Energy = -465.28543547348636
 Total Coulomb        Energy = 357.10886937692828
    6    -517.2242061740      3.76e-05  
 Alpha HF Exchange    Energy =  -4.42695682194100
 Beta HF Exchange     Energy =  -4.24438336142677
 DFT Correlation      Energy =  -1.85847966442343
 DFT Exchange         Energy = -34.36111919721380
 One-Electron (alpha) Energy = -487.31544509035632
 One-Electron (beta)  Energy = -465.27966172560036
 Total Coulomb        Energy = 357.10982151889635
    7    -517.2242155902      9.06e-06  
 Alpha HF Exchange    Energy =  -4.42701525055415
 Beta HF Exchange     Energy =  -4.24438547175156
 DFT Correlation      Energy =  -1.85846988617916
 DFT Exchange         Energy = -34.36132689157731
 One-Electron (alpha) Energy = -487.31964106296846
 One-Electron (beta)  Energy = -465.27856422334349
 Total Coulomb        Energy = 357.11317762822284
    8    -517.2242164063      3.79e-06  
 Alpha HF Exchange    Energy =  -4.42701175934715
 Beta HF Exchange     Energy =  -4.24436819767798
 DFT Correlation      Energy =  -1.85846227913372
 DFT Exchange         Energy = -34.36124479703687
 One-Electron (alpha) Energy = -487.31910667014324
 One-Electron (beta)  Energy = -465.27702459857085
 Total Coulomb        Energy = 357.11099302673392
    9    -517.2242165233      1.32e-06  
 Alpha HF Exchange    Energy =  -4.42701417117050
 Beta HF Exchange     Energy =  -4.24436791607099
 DFT Correlation      Energy =  -1.85846206358217
 DFT Exchange         Energy = -34.36125326545672
 One-Electron (alpha) Energy = -487.31925766964946
 One-Electron (beta)  Energy = -465.27695601032116
 Total Coulomb        Energy = 357.11108580581526
   10    -517.2242165386      5.28e-07  Convergence criterion met
 ---------------------------------------
 SCF time:   CPU 22.36s  wall 2.00s 
<S^2> =          2.006205606
 Alpha HF Exchange    Energy =  -4.42701417117050
 Beta HF Exchange     Energy =  -4.24436791607099
 DFT Correlation      Energy =  -1.85846206358217
 DFT Exchange         Energy = -34.36125326545672
 One-Electron (alpha) Energy = -487.31925766964946
 One-Electron (beta)  Energy = -465.27695601032116
 Total Coulomb        Energy = 357.11108580581526
 Nuclear repulsion Energy = 123.15200875183388
 SCF   energy in the final basis set =     -517.2242165386
 Total energy in the final basis set =     -517.2242165386
 
 --------------------------------------------------------------
 
                    Orbital Energies (a.u.)
 --------------------------------------------------------------
 
 Alpha MOs
 -- Occupied --
-88.909 -10.183 -10.182 -10.174  -7.971  -5.942  -5.932  -5.923
 -0.776  -0.737  -0.669  -0.575  -0.458  -0.424  -0.412  -0.389
 -0.374  -0.346  -0.329  -0.319  -0.271  -0.194
 -- Virtual --
  0.033   0.107   0.143   0.146   0.160   0.180   0.181   0.225
  0.234   0.272   0.278   0.327   0.334   0.356   0.515   0.536
  0.538   0.551   0.599   0.609   0.659   0.689   0.696   0.699
  0.728   0.738   0.744   0.793   0.814   0.861   0.879   0.884
  0.913   0.939   0.962   1.003   1.086   1.214   1.310   1.440
  1.481   1.521   1.605   1.685   1.824   1.875   1.957   1.986
  1.996   2.054   2.058   2.067   2.072   2.124   2.128   2.227
  2.265   2.293   2.372   2.446   2.451   2.528   2.577   2.677
  2.699   2.712   2.743   2.803   2.866   2.885   2.924   3.187
  3.260   3.362   3.383   3.467   3.480   3.560   3.920   4.243
  4.433   4.609
 
 Beta MOs
 -- Occupied --
-88.904 -10.183 -10.173 -10.168  -7.965  -5.929  -5.924  -5.920
 -0.765  -0.697  -0.651  -0.561  -0.454  -0.418  -0.398  -0.384
 -0.363  -0.340  -0.326  -0.257
 -- Virtual --
 -0.176  -0.035   0.043   0.110   0.147   0.154   0.162   0.182
  0.184   0.229   0.239   0.285   0.287   0.334   0.364   0.372
  0.520   0.538   0.552   0.570   0.602   0.643   0.672   0.708
  0.719   0.736   0.744   0.793   0.797   0.798   0.822   0.864
  0.881   0.887   0.920   0.945   0.974   1.006   1.096   1.224
  1.320   1.473   1.485   1.534   1.626   1.685   1.833   1.880
  1.960   2.005   2.042   2.055   2.061   2.064   2.073   2.127
  2.131   2.229   2.277   2.294   2.379   2.451   2.461   2.538
  2.602   2.682   2.701   2.713   2.747   2.805   2.868   2.887
  2.928   3.188   3.264   3.367   3.384   3.469   3.486   3.563
  3.938   4.262   4.449   4.611
 --------------------------------------------------------------
 
          Ground-State Mulliken Net Atomic Charges

     Atom                 Charge (a.u.)    Spin (a.u.)
  --------------------------------------------------------
      1 S                    -0.073011       1.028725
      2 C                    -0.188452      -0.074254
      3 C                    -0.214923       1.080116
      4 C                    -0.307002       0.049467
      5 H                     0.102223       0.011782
      6 H                     0.099482       0.015020
      7 H                     0.102083      -0.048067
      8 H                     0.098009      -0.047985
      9 H                     0.105304      -0.000356
     10 H                     0.099147       0.013571
     11 H                     0.104246      -0.000580
     12 H                     0.072894      -0.027438
  --------------------------------------------------------
  Sum of atomic charges =    -0.000000
  Sum of spin   charges =     2.000000

 -----------------------------------------------------------------
                    Cartesian Multipole Moments
 -----------------------------------------------------------------
    Charge (ESU x 10^10)
                -0.0000
    Dipole Moment (Debye)
         X      -0.2303      Y       0.4046      Z      -0.9470
       Tot       1.0553
    Quadrupole Moments (Debye-Ang)
        XX     -37.0819     XY      -0.2157     YY     -33.3280
        XZ      -4.0520     YZ      -1.2638     ZZ     -31.7123
    Octopole Moments (Debye-Ang^2)
       XXX    -111.2914    XXY     -11.9905    XYY     -27.4363
       YYY     -19.8956    XXZ     -16.1754    XYZ      -5.7071
       YYZ      -0.1776    XZZ     -22.5113    YZZ      -6.3554
       ZZZ       3.8707
    Hexadecapole Moments (Debye-Ang^3)
      XXXX   -1954.3876   XXXY    -212.3665   XXYY    -324.3334
      XYYY    -154.4404   YYYY    -170.6230   XXXZ     -39.8879
      XXYZ     -19.9899   XYYZ       4.5917   YYYZ       5.4639
      XXZZ    -274.6566   XYZZ     -43.1274   YYZZ     -35.2779
      XZZZ      28.1796   YZZZ       4.6951   ZZZZ     -64.3413
 -----------------------------------------------------------------
 Calculating analytic gradient of the SCF energy
 Gradient of SCF Energy
            1           2           3           4           5           6
    1  -0.0001296   0.0000527  -0.0000823  -0.0000346  -0.0000018  -0.0000205
    2  -0.0000242   0.0001675   0.0000109  -0.0000401  -0.0000926  -0.0000728
    3  -0.0000321  -0.0000938   0.0000458   0.0000287   0.0000891  -0.0000366
            7           8           9          10          11          12
    1  -0.0000161   0.0001388   0.0000119   0.0000005   0.0000046   0.0000765
    2  -0.0000169   0.0000342  -0.0000028  -0.0000093   0.0000040   0.0000420
    3   0.0000078   0.0000139   0.0000001   0.0000048  -0.0000090  -0.0000188
 Max gradient component =       1.675E-04
 RMS gradient           =       5.864E-05
 Gradient time:  CPU 7.36 s  wall 0.63 s
 Geometry Optimization Parameters
   NAtoms,    NIC,     NZ,  NCons,   NDum,   NFix, NCnnct, MaxDiis
       12     174       0       1       0       0       0       0


** CONSTRAINED OPTIMIZATION IN DELOCALIZED INTERNAL COORDINATES **
   Searching for a Minimum

   Optimization Cycle:   1

                       Coordinates (Angstroms)
     ATOM                X               Y               Z
      1  S         4.1227270000    0.9140160000   -0.1170240000
      2  C        -0.9987060000    0.2670790000   -0.0179990000
      3  C        -0.0950140000   -0.9200970000   -0.0351790000
      4  C        -2.4963790000   -0.0979510000    0.1183700000
      5  H        -0.7259630000    0.9310380000    0.8126320000
      6  H        -0.8682840000    0.8498240000   -0.9398600000
      7  H         0.2809910000   -1.3501300000    0.8874300000
      8  H         0.0782330000   -1.4754960000   -0.9516530000
      9  H        -2.6834170000   -0.6482150000    1.0459770000
     10  H        -3.1174080000    0.8048250000    0.1270570000
     11  H        -2.8245760000   -0.7274570000   -0.7149600000
     12  H         4.0403990000    1.3563640000   -1.3917900000
   Point Group: c1    Number of degrees of freedom:    30


   Energy is   -517.224216539

              Constraints and their Current Values
                                        Value     Constraint
   Distance(Angs):        1   3             4.600001     4.500000

 Attempting to Generate Delocalized Internal Coordinates

   Using Lagrange Multiplier Algorithm


 31 Hessian modes will be used to form the next step
  Hessian Eigenvalues:
    -0.997651    0.023194    0.036475    0.044366    0.045000    0.047532
     0.054639    0.056721    0.061936    0.065459    0.066447    0.070399
     0.082980    0.083053    0.087372    0.092001    0.127528    0.160000
     0.160000    0.160000    0.234562    0.256915    0.276354    0.278617
     0.298282    0.307719    0.321765    0.341519    0.342719    0.342823
     1.002354

 Minimum Search - Taking P-RFO Step
 Searching for Lamda that Maximizes Along the Constraint modes Only
 Value Taken    Lamda =   0.01764124
 Searching for Lamda that Minimizes Along All other modes
 Value Taken    Lamda =  -0.01745474
 Step Taken.  Stepsize is  0.185722

                             Maximum     Tolerance    Cnvgd?
         Gradient            0.188974       0.000300      NO
         Displacement        0.185715       0.001200      NO
         Energy change     *********       0.000001      NO


 New Cartesian Coordinates Obtained by Inverse Iteration

 Displacement from previous Coordinates is:  0.161121
 ----------------------------------------------------------------
             Standard Nuclear Orientation (Angstroms)
    I     Atom           X                Y                Z
 ----------------------------------------------------------------
    1      S       4.0632044928     0.8845296378    -0.1159279250
    2      C      -0.9933632889     0.2794872055    -0.0156736292
    3      C      -0.0638224200    -0.9117146255    -0.0341973445
    4      C      -2.4886244966    -0.0959880201     0.1182843571
    5      H      -0.7480908312     0.9404370700     0.8156694146
    6      H      -0.8693064453     0.8615767892    -0.9387066025
    7      H       0.2918461560    -1.3519689694     0.8924147535
    8      H       0.0898626898    -1.4828844591    -0.9619760871
    9      H      -2.6734445715    -0.6471848978     1.0457893612
   10      H      -3.1160222360     0.8023888281     0.1254940119
   11      H      -2.8109622685    -0.7281772915    -0.7153042377
   12      H       4.0313262195     1.3532987330    -1.3928650724
 ----------------------------------------------------------------
 Nuclear Repulsion Energy =   123.4017750910 hartrees
 There are       22 alpha and       20 beta electrons

                       Distance Matrix (Angstroms)
             S (  1)   C (  2)   C (  3)   C (  4)   H (  5)   H (  6)
   C (  2)  5.093624
   C (  3)  4.501725  1.511076
   C (  4)  6.628932  1.547492  2.562874
   H (  5)  4.900976  1.090020  2.149642  2.142424
   H (  6)  5.000716  1.098275  2.147441  2.157858  1.760326
   H (  7)  4.499092  2.266724  1.085787  3.147663  2.518429  3.098559
   H (  8)  4.701903  2.274823  1.100285  3.120744  3.120044  2.533189
   H (  9)  7.005582  2.192738  2.836631  1.094642  2.506090  3.077255
   H ( 10)  7.183754  2.190670  3.504223  1.095792  2.470324  2.486716
   H ( 11)  7.086201  2.192838  2.836260  1.094730  3.063265  2.519376
   H ( 12)  1.360636  5.319514  4.873039  6.847902  5.281184  4.946135
             H (  7)   H (  8)   H (  9)   H ( 10)   H ( 11)
   H (  8)  1.869947
   H (  9)  3.051753  3.516445
   H ( 10)  4.104021  4.084454  1.773156
   H ( 11)  3.549830  3.007526  1.768310  1.772748
   H ( 12)  5.150212  4.874909  7.409651  7.327585  7.183909
 
 Applying Cartesian multipole field
    Component          Value
    ---------          -----
     (2,0,0)        1.00000E-11
     (0,2,0)        2.00000E-10
     (0,0,2)       -3.00000E-10
 Nucleus-field energy     =     0.0000000242 hartrees
 Requested basis set is 6-31G(d,p)
 There are 41 shells and 104 basis functions
 A cutoff of  1.0D-14 yielded    752 shell pairs
 There are      4776 function pairs
 Smallest overlap matrix eigenvalue = 6.54E-03
 Guess from superposition of atomic densities
 Warning:  Energy on first SCF cycle will be non-variational
 SAD guess density has 42.000000 electrons

 -----------------------------------------------------------------------
  General SCF calculation program by
  Eric Jon Sundstrom, Paul Horn, Yuezhi Mao, Dmitri Zuev, Alec White,
  David Stuck, Shaama M.S., Shane Yost, Joonho Lee, David Small,
  Daniel Levine, Susi Lehtola, Hugh Burton, Evgeny Epifanovsky
 -----------------------------------------------------------------------
 Exchange:     0.2000 Hartree-Fock + 0.0800 Slater + 0.7200 B88
 Correlation:  0.1900 VWN1RPA + 0.8100 LYP
 Using SG-1 standard quadrature grid
 using 12 threads for integral computing
 -------------------------------------------------------
 OpenMP Integral computing Module                
 Release: version 1.0, May 2013, Q-Chem Inc. Pittsburgh 
 -------------------------------------------------------
 -------------------------------------------------------
 OpenMP BLAS3 based DFT computing Module                
 Release: version 1.0, May 2013, Q-Chem Inc. Pittsburgh 
 -------------------------------------------------------
 A unrestricted SCF calculation will be
 performed using DIIS
 SCF converges when DIIS error is below 1.0e-06
 Alpha HF Exchange    Energy =  -4.31421429479861
 Beta HF Exchange     Energy =  -4.31421429479861
 DFT Correlation      Energy =  -1.85270918343535
 DFT Exchange         Energy = -33.93544502418287
 One-Electron (alpha) Energy = -474.73558444525247
 One-Electron (beta)  Energy = -474.73558444525247
 Total Coulomb        Energy = 353.09588764827947
 ---------------------------------------
  Cycle       Energy         DIIS error
 ---------------------------------------
    1    -517.3900889242      2.77e-02  
 Alpha HF Exchange    Energy =  -4.45161841651325
 Beta HF Exchange     Energy =  -4.26934044493922
 DFT Correlation      Energy =  -1.87260684412639
 DFT Exchange         Energy = -34.57670365809643
 One-Electron (alpha) Energy = -489.04111033295243
 One-Electron (beta)  Energy = -467.23979197761855
 Total Coulomb        Energy = 360.90758238778693
    2    -517.1418141712      3.60e-03  
 Alpha HF Exchange    Energy =  -4.39574777216972
 Beta HF Exchange     Energy =  -4.21850609285648
 DFT Correlation      Energy =  -1.84483373494322
 DFT Exchange         Energy = -34.12663573899752
 One-Electron (alpha) Energy = -485.74396506837189
 One-Electron (beta)  Energy = -463.95616722857221
 Total Coulomb        Energy = 353.74681275262901
    3    -517.1372677680      3.83e-03  
 Alpha HF Exchange    Energy =  -4.42440597672530
 Beta HF Exchange     Energy =  -4.24327812365732
 DFT Correlation      Energy =  -1.85797575519549
 DFT Exchange         Energy = -34.34851405924817
 One-Electron (alpha) Energy = -487.56096442076455
 One-Electron (beta)  Energy = -465.56909006829159
 Total Coulomb        Energy = 357.37920454901655
    4    -517.2232487396      2.68e-04  
 Alpha HF Exchange    Energy =  -4.42575545453983
 Beta HF Exchange     Energy =  -4.24327082286910
 DFT Correlation      Energy =  -1.85789763508003
 DFT Exchange         Energy = -34.35322747121515
 One-Electron (alpha) Energy = -487.60490308386778
 One-Electron (beta)  Energy = -465.54431064903650
 Total Coulomb        Energy = 357.40400770476123
    5    -517.2235822966      1.45e-04  
 Alpha HF Exchange    Energy =  -4.42543331024422
 Beta HF Exchange     Energy =  -4.24313432601878
 DFT Correlation      Energy =  -1.85767247707431
 DFT Exchange         Energy = -34.35117551713034
 One-Electron (alpha) Energy = -487.59485760047954
 One-Electron (beta)  Energy = -465.52103863403221
 Total Coulomb        Energy = 357.36783336340835
    6    -517.2237033863      3.80e-05  
 Alpha HF Exchange    Energy =  -4.42556754446755
 Beta HF Exchange     Energy =  -4.24305844624467
 DFT Correlation      Energy =  -1.85764695830597
 DFT Exchange         Energy = -34.35134638460887
 One-Electron (alpha) Energy = -487.60197113817242
 One-Electron (beta)  Energy = -465.51538180648458
 Total Coulomb        Energy = 357.36948402408086
    7    -517.2237131390      9.18e-06  
 Alpha HF Exchange    Energy =  -4.42562731548606
 Beta HF Exchange     Energy =  -4.24305889036028
 DFT Correlation      Energy =  -1.85763631353998
 DFT Exchange         Energy = -34.35155184709778
 One-Electron (alpha) Energy = -487.60630531479740
 One-Electron (beta)  Energy = -465.51418158125625
 Total Coulomb        Energy = 357.37287215020240
    8    -517.2237139971      3.80e-06  
 Alpha HF Exchange    Energy =  -4.42562335638160
 Beta HF Exchange     Energy =  -4.24304078588120
 DFT Correlation      Energy =  -1.85762826060811
 DFT Exchange         Energy = -34.35146494274031
 One-Electron (alpha) Energy = -487.60571461194422
 One-Electron (beta)  Energy = -465.51253471763505
 Total Coulomb        Energy = 357.37051744273134
    9    -517.2237141172      1.27e-06  
 Alpha HF Exchange    Energy =  -4.42562649116742
 Beta HF Exchange     Energy =  -4.24304089328723
 DFT Correlation      Energy =  -1.85762823158940
 DFT Exchange         Energy = -34.35147778181896
 One-Electron (alpha) Energy = -487.60592884719699
 One-Electron (beta)  Energy = -465.51250161583488
 Total Coulomb        Energy = 357.37071461555115
   10    -517.2237141301      5.16e-07  Convergence criterion met
 ---------------------------------------
 SCF time:   CPU 22.34s  wall 2.00s 
<S^2> =          2.006273130
 Alpha HF Exchange    Energy =  -4.42562649116742
 Beta HF Exchange     Energy =  -4.24304089328723
 DFT Correlation      Energy =  -1.85762823158940
 DFT Exchange         Energy = -34.35147778181896
 One-Electron (alpha) Energy = -487.60592884719699
 One-Electron (beta)  Energy = -465.51250161583488
 Total Coulomb        Energy = 357.37071461555115
 Nuclear repulsion Energy = 123.40177511524743
 SCF   energy in the final basis set =     -517.2237141301
 Total energy in the final basis set =     -517.2237141301
 
 --------------------------------------------------------------
 
                    Orbital Energies (a.u.)
 --------------------------------------------------------------
 
 Alpha MOs
 -- Occupied --
-88.910 -10.185 -10.183 -10.174  -7.971  -5.942  -5.932  -5.923
 -0.773  -0.735  -0.668  -0.576  -0.457  -0.422  -0.410  -0.389
 -0.373  -0.344  -0.330  -0.319  -0.271  -0.195
 -- Virtual --
  0.030   0.106   0.140   0.148   0.161   0.179   0.181   0.222
  0.233   0.271   0.275   0.327   0.334   0.355   0.518   0.536
  0.538   0.551   0.597   0.612   0.654   0.690   0.696   0.700
  0.729   0.738   0.744   0.790   0.812   0.863   0.879   0.885
  0.912   0.940   0.961   1.002   1.078   1.211   1.312   1.429
  1.481   1.527   1.602   1.688   1.817   1.867   1.950   1.971
  1.996   2.055   2.056   2.064   2.073   2.123   2.133   2.225
  2.260   2.295   2.372   2.435   2.453   2.517   2.571   2.674
  2.685   2.705   2.741   2.800   2.854   2.887   2.919   3.187
  3.256   3.352   3.382   3.466   3.468   3.557   3.919   4.236
  4.431   4.607
 
 Beta MOs
 -- Occupied --
-88.904 -10.184 -10.172 -10.171  -7.965  -5.929  -5.924  -5.920
 -0.763  -0.695  -0.649  -0.562  -0.453  -0.417  -0.397  -0.383
 -0.362  -0.338  -0.328  -0.256
 -- Virtual --
 -0.176  -0.036   0.041   0.110   0.149   0.153   0.163   0.182
  0.183   0.226   0.238   0.280   0.288   0.334   0.364   0.373
  0.523   0.538   0.554   0.566   0.599   0.642   0.669   0.708
  0.720   0.737   0.745   0.793   0.794   0.799   0.819   0.866
  0.881   0.888   0.920   0.945   0.972   1.005   1.088   1.221
  1.321   1.457   1.486   1.544   1.623   1.688   1.827   1.871
  1.955   1.996   2.035   2.055   2.059   2.062   2.074   2.129
  2.134   2.227   2.271   2.296   2.378   2.440   2.465   2.525
  2.595   2.680   2.687   2.706   2.744   2.803   2.857   2.889
  2.923   3.188   3.260   3.356   3.384   3.469   3.473   3.560
  3.938   4.255   4.447   4.609
 --------------------------------------------------------------
 
          Ground-State Mulliken Net Atomic Charges

     Atom                 Charge (a.u.)    Spin (a.u.)
  --------------------------------------------------------
      1 S                    -0.072862       1.029469
      2 C                    -0.188829      -0.073313
      3 C                    -0.214310       1.083093
      4 C                    -0.307996       0.047478
      5 H                     0.103888       0.010664
      6 H                     0.100048       0.013935
      7 H                     0.102389      -0.047546
      8 H                     0.096741      -0.048068
      9 H                     0.104931      -0.000361
     10 H                     0.099402       0.013010
     11 H                     0.103886      -0.000578
     12 H                     0.072711      -0.027783
  --------------------------------------------------------
  Sum of atomic charges =    -0.000000
  Sum of spin   charges =     2.000000

 -----------------------------------------------------------------
                    Cartesian Multipole Moments
 -----------------------------------------------------------------
    Charge (ESU x 10^10)
                 0.0000
    Dipole Moment (Debye)
         X      -0.2259      Y       0.4112      Z      -0.9236
       Tot       1.0359
    Quadrupole Moments (Debye-Ang)
        XX     -36.8759     XY      -0.0765     YY     -33.1925
        XZ      -4.0936     YZ      -1.2737     ZZ     -31.7350
    Octopole Moments (Debye-Ang^2)
       XXX    -108.2458    XXY     -10.4127    XYY     -26.4394
       YYY     -18.9832    XXZ     -16.4691    XYZ      -5.8103
       YYZ      -0.1888    XZZ     -22.1698    YZZ      -6.1342
       ZZZ       3.8819
    Hexadecapole Moments (Debye-Ang^3)
      XXXX   -1905.5954   XXXY    -197.2011   XXYY    -313.6758
      XYYY    -145.6803   YYYY    -166.0655   XXXZ     -42.4599
      XXYZ     -20.5963   XYYZ       4.3466   YYYZ       5.2550
      XXZZ    -268.9046   XYZZ     -40.8232   YYZZ     -34.5756
      XZZZ      27.8644   YZZZ       4.5013   ZZZZ     -64.5946
 -----------------------------------------------------------------
 Calculating analytic gradient of the SCF energy
 Gradient of SCF Energy
            1           2           3           4           5           6
    1  -0.0000510  -0.0022746   0.0061641  -0.0005244  -0.0036290  -0.0008051
    2  -0.0015864   0.0094020  -0.0031094   0.0017747  -0.0026670  -0.0001508
    3   0.0041208   0.0033328   0.0069204   0.0009540  -0.0028978  -0.0005311
            7           8           9          10          11          12
    1  -0.0002399   0.0011469   0.0000980  -0.0002142   0.0003740  -0.0000449
    2  -0.0001562  -0.0050701   0.0000031  -0.0000731   0.0000524   0.0015808
    3   0.0005864  -0.0082393  -0.0000400   0.0000148  -0.0000568  -0.0041643
 Max gradient component =       9.402E-03
 RMS gradient           =       3.202E-03
 Gradient time:  CPU 7.67 s  wall 0.67 s
 Geometry Optimization Parameters
   NAtoms,    NIC,     NZ,  NCons,   NDum,   NFix, NCnnct, MaxDiis
       12     174       0       1       0       0       0       0

 Cartesian Hessian Update
 Hessian Updated using BFGS Update


** CONSTRAINED OPTIMIZATION IN DELOCALIZED INTERNAL COORDINATES **
   Searching for a Minimum

   Optimization Cycle:   2

                       Coordinates (Angstroms)
     ATOM                X               Y               Z
      1  S         4.0632044928    0.8845296378   -0.1159279250
      2  C        -0.9933632889    0.2794872055   -0.0156736292
      3  C        -0.0638224200   -0.9117146255   -0.0341973445
      4  C        -2.4886244966   -0.0959880201    0.1182843571
      5  H        -0.7480908312    0.9404370700    0.8156694146
      6  H        -0.8693064453    0.8615767892   -0.9387066025
      7  H         0.2918461560   -1.3519689694    0.8924147535
      8  H         0.0898626898   -1.4828844591   -0.9619760871
      9  H        -2.6734445715   -0.6471848978    1.0457893612
     10  H        -3.1160222360    0.8023888281    0.1254940119
     11  H        -2.8109622685   -0.7281772915   -0.7153042377
     12  H         4.0313262195    1.3532987330   -1.3928650724
   Point Group: c1    Number of degrees of freedom:    30


   Energy is   -517.223714130

              Constraints and their Current Values
                                        Value     Constraint
   Distance(Angs):        1   3             4.501725     4.500000
 Hessian Updated using BFGS Update

   Using Lagrange Multiplier Algorithm


 30 Hessian modes will be used to form the next step
  Hessian Eigenvalues:
    -0.988076    0.023604    0.036503    0.044399    0.045000    0.047537
     0.054661    0.056725    0.061952    0.065455    0.066421    0.070460
     0.082995    0.083057    0.090078    0.092010    0.128838    0.159999
     0.160226    0.236637    0.275526    0.278610    0.291731    0.298333
     0.319846    0.341517    0.342714    0.342822    0.468953    1.019274

 Minimum Search - Taking P-RFO Step
 Searching for Lamda that Maximizes Along the Constraint modes Only
 Value Taken    Lamda =   0.00002381
 Searching for Lamda that Minimizes Along All other modes
 Value Taken    Lamda =  -0.00045484
 Step Taken.  Stepsize is  0.039273

                             Maximum     Tolerance    Cnvgd?
         Gradient            0.005986       0.000300      NO
         Displacement        0.015633       0.001200      NO
         Energy change      0.000502       0.000001      NO


 New Cartesian Coordinates Obtained by Inverse Iteration

 Displacement from previous Coordinates is:  0.046352
 ----------------------------------------------------------------
             Standard Nuclear Orientation (Angstroms)
    I     Atom           X                Y                Z
 ----------------------------------------------------------------
    1      S       4.0597364906     0.8819879773    -0.1189796497
    2      C      -0.9912242565     0.2801029608    -0.0155434100
    3      C      -0.0690200712    -0.9057913122    -0.0340202444
    4      C      -2.4855487516    -0.1001234234     0.1164173297
    5      H      -0.7399226480     0.9426668038     0.8178528351
    6      H      -0.8659859824     0.8631699880    -0.9374169538
    7      H       0.2863718290    -1.3469341198     0.8918717222
    8      H       0.0814073472    -1.4736633328    -0.9557951459
    9      H      -2.6700661979    -0.6527188142     1.0432106946
   10      H      -3.1141755377     0.7973141001     0.1244350125
   11      H      -2.8074358872    -0.7319838512    -0.7177101736
   12      H       4.0284666656     1.3497730234    -1.3913210169
 ----------------------------------------------------------------
 Nuclear Repulsion Energy =   123.6149848621 hartrees
 There are       22 alpha and       20 beta electrons

                       Distance Matrix (Angstroms)
             S (  1)   C (  2)   C (  3)   C (  4)   H (  5)   H (  6)
   C (  2)  5.087747
   C (  3)  4.500000  1.502381
   C (  4)  6.622742  1.547576  2.551733
   H (  5)  4.890610  1.093934  2.143034  2.150961
   H (  6)  4.993289  1.097954  2.140211  2.159047  1.761586
   H (  7)  4.497577  2.258961  1.085443  3.136783  2.510186  3.091729
   H (  8)  4.698559  2.260599  1.093058  3.102501  3.107903  2.521643
   H (  9)  6.999733  2.193086  2.826643  1.094694  2.514258  3.078232
   H ( 10)  7.178540  2.189526  3.492656  1.095733  2.477707  2.487212
   H ( 11)  7.079650  2.194535  2.827819  1.094819  3.071973  2.522303
   H ( 12)  1.355969  5.313592  4.870240  6.841628  5.271027  4.939482
             H (  7)   H (  8)   H (  9)   H ( 10)   H ( 11)
   H (  8)  1.863315
   H (  9)  3.040619  3.498654
   H ( 10)  4.092735  4.066446  1.773126
   H ( 11)  3.541266  2.992021  1.768049  1.772583
   H ( 12)  5.146695  4.872448  7.403193  7.322572  7.177536
 
 Applying Cartesian multipole field
    Component          Value
    ---------          -----
     (2,0,0)        1.00000E-11
     (0,2,0)        2.00000E-10
     (0,0,2)       -3.00000E-10
 Nucleus-field energy     =     0.0000000241 hartrees
 Requested basis set is 6-31G(d,p)
 There are 41 shells and 104 basis functions
 A cutoff of  1.0D-14 yielded    752 shell pairs
 There are      4776 function pairs
 Smallest overlap matrix eigenvalue = 6.48E-03
 Guess from superposition of atomic densities
 Warning:  Energy on first SCF cycle will be non-variational
 SAD guess density has 42.000000 electrons

 -----------------------------------------------------------------------
  General SCF calculation program by
  Eric Jon Sundstrom, Paul Horn, Yuezhi Mao, Dmitri Zuev, Alec White,
  David Stuck, Shaama M.S., Shane Yost, Joonho Lee, David Small,
  Daniel Levine, Susi Lehtola, Hugh Burton, Evgeny Epifanovsky
 -----------------------------------------------------------------------
 Exchange:     0.2000 Hartree-Fock + 0.0800 Slater + 0.7200 B88
 Correlation:  0.1900 VWN1RPA + 0.8100 LYP
 Using SG-1 standard quadrature grid
 using 12 threads for integral computing
 -------------------------------------------------------
 OpenMP Integral computing Module                
 Release: version 1.0, May 2013, Q-Chem Inc. Pittsburgh 
 -------------------------------------------------------
 -------------------------------------------------------
 OpenMP BLAS3 based DFT computing Module                
 Release: version 1.0, May 2013, Q-Chem Inc. Pittsburgh 
 -------------------------------------------------------
 A unrestricted SCF calculation will be
 performed using DIIS
 SCF converges when DIIS error is below 1.0e-06
 Alpha HF Exchange    Energy =  -4.31561082145432
 Beta HF Exchange     Energy =  -4.31561082145432
 DFT Correlation      Energy =  -1.85305270587967
 DFT Exchange         Energy = -33.93836913591340
 One-Electron (alpha) Energy = -474.94121477106768
 One-Electron (beta)  Energy = -474.94121477106768
 Total Coulomb        Energy = 353.28748418347550
 ---------------------------------------
  Cycle       Energy         DIIS error
 ---------------------------------------
    1    -517.4026039572      2.79e-02  
 Alpha HF Exchange    Energy =  -4.45255806281279
 Beta HF Exchange     Energy =  -4.27002714511439
 DFT Correlation      Energy =  -1.87308707059632
 DFT Exchange         Energy = -34.58270911522551
 One-Electron (alpha) Energy = -489.27216911990939
 One-Electron (beta)  Energy = -467.44686549163890
 Total Coulomb        Energy = 361.14088387524805
    2    -517.1415472439      3.62e-03  
 Alpha HF Exchange    Energy =  -4.39625999216526
 Beta HF Exchange     Energy =  -4.21902094817421
 DFT Correlation      Energy =  -1.84517923093321
 DFT Exchange         Energy = -34.13017727921999
 One-Electron (alpha) Energy = -485.95221439298581
 One-Electron (beta)  Energy = -464.14848834171016
 Total Coulomb        Energy = 353.93947888662592
    3    -517.1368764124      3.85e-03  
 Alpha HF Exchange    Energy =  -4.42511756909627
 Beta HF Exchange     Energy =  -4.24389068699901
 DFT Correlation      Energy =  -1.85839512809961
 DFT Exchange         Energy = -34.35325666672993
 One-Electron (alpha) Energy = -487.78084394686164
 One-Electron (beta)  Energy = -465.77001532125217
 Total Coulomb        Energy = 357.59295631912147
    4    -517.2235781137      2.69e-04  
 Alpha HF Exchange    Energy =  -4.42645223342693
 Beta HF Exchange     Energy =  -4.24388147933476
 DFT Correlation      Energy =  -1.85831102322389
 DFT Exchange         Energy = -34.35789566820729
 One-Electron (alpha) Energy = -487.82377543134726
 One-Electron (beta)  Energy = -465.74476547496215
 Total Coulomb        Energy = 357.61618231954935
    5    -517.2239141048      1.44e-04  
 Alpha HF Exchange    Energy =  -4.42614124217094
 Beta HF Exchange     Energy =  -4.24375546354664
 DFT Correlation      Energy =  -1.85809155179832
 DFT Exchange         Energy = -34.35593215246138
 One-Electron (alpha) Energy = -487.81437131870433
 One-Electron (beta)  Energy = -465.72220150248410
 Total Coulomb        Energy = 357.58147455159474
    6    -517.2240337934      3.79e-05  
 Alpha HF Exchange    Energy =  -4.42627066889230
 Beta HF Exchange     Energy =  -4.24367820294743
 DFT Correlation      Energy =  -1.85806511290068
 DFT Exchange         Energy = -34.35607723536408
 One-Electron (alpha) Energy = -487.82120555367845
 One-Electron (beta)  Energy = -465.71649979863372
 Total Coulomb        Energy = 357.58276827298300
    7    -517.2240434132      9.13e-06  
 Alpha HF Exchange    Energy =  -4.42632943678676
 Beta HF Exchange     Energy =  -4.24367943716783
 DFT Correlation      Energy =  -1.85805480228551
 DFT Exchange         Energy = -34.35628220134585
 One-Electron (alpha) Energy = -487.82545032257468
 One-Electron (beta)  Energy = -465.71535003469114
 Total Coulomb        Energy = 357.58611710038156
    8    -517.2240442483      3.81e-06  
 Alpha HF Exchange    Energy =  -4.42632574970751
 Beta HF Exchange     Energy =  -4.24366182410324
 DFT Correlation      Energy =  -1.85804699117856
 DFT Exchange         Energy = -34.35619817905263
 One-Electron (alpha) Energy = -487.82489215170045
 One-Electron (beta)  Energy = -465.71376236065095
 Total Coulomb        Energy = 357.58385800464328
    9    -517.2240443656      1.30e-06  
 Alpha HF Exchange    Energy =  -4.42632849057072
 Beta HF Exchange     Energy =  -4.24366170098177
 DFT Correlation      Energy =  -1.85804685033128
 DFT Exchange         Energy = -34.35620857705969
 One-Electron (alpha) Energy = -487.82507102324820
 One-Electron (beta)  Energy = -465.71370752752574
 Total Coulomb        Energy = 357.58399490550096
   10    -517.2240443780      5.10e-07  Convergence criterion met
 ---------------------------------------
 SCF time:   CPU 22.57s  wall 2.00s 
<S^2> =          2.006220525
 Alpha HF Exchange    Energy =  -4.42632849057072
 Beta HF Exchange     Energy =  -4.24366170098177
 DFT Correlation      Energy =  -1.85804685033128
 DFT Exchange         Energy = -34.35620857705969
 One-Electron (alpha) Energy = -487.82507102324820
 One-Electron (beta)  Energy = -465.71370752752574
 Total Coulomb        Energy = 357.58399490550096
 Nuclear repulsion Energy = 123.61498488619560
 SCF   energy in the final basis set =     -517.2240443780
 Total energy in the final basis set =     -517.2240443780
 
 --------------------------------------------------------------
 
                    Orbital Energies (a.u.)
 --------------------------------------------------------------
 
 Alpha MOs
 -- Occupied --
-88.909 -10.183 -10.183 -10.174  -7.971  -5.942  -5.932  -5.923
 -0.774  -0.736  -0.668  -0.576  -0.457  -0.423  -0.411  -0.389
 -0.374  -0.344  -0.329  -0.319  -0.271  -0.194
 -- Virtual --
  0.032   0.106   0.141   0.147   0.160   0.179   0.181   0.223
  0.233   0.272   0.276   0.327   0.334   0.355   0.517   0.537
  0.538   0.551   0.598   0.612   0.657   0.690   0.696   0.700
  0.729   0.738   0.744   0.789   0.814   0.862   0.879   0.885
  0.913   0.940   0.961   1.003   1.082   1.213   1.311   1.430
  1.481   1.529   1.603   1.686   1.821   1.870   1.954   1.974
  2.001   2.055   2.057   2.066   2.073   2.124   2.129   2.227
  2.260   2.294   2.374   2.438   2.454   2.519   2.575   2.676
  2.693   2.710   2.743   2.803   2.856   2.886   2.921   3.187
  3.258   3.357   3.382   3.467   3.474   3.557   3.920   4.239
  4.432   4.608
 
 Beta MOs
 -- Occupied --
-88.904 -10.183 -10.172 -10.169  -7.965  -5.929  -5.924  -5.920
 -0.764  -0.696  -0.649  -0.561  -0.453  -0.417  -0.397  -0.383
 -0.362  -0.339  -0.327  -0.256
 -- Virtual --
 -0.176  -0.036   0.042   0.110   0.149   0.154   0.162   0.182
  0.183   0.227   0.238   0.283   0.287   0.334   0.364   0.373
  0.522   0.538   0.553   0.567   0.601   0.644   0.670   0.708
  0.721   0.737   0.744   0.793   0.794   0.799   0.821   0.865
  0.881   0.888   0.920   0.945   0.973   1.006   1.092   1.224
  1.320   1.458   1.486   1.546   1.624   1.687   1.830   1.875
  1.958   2.000   2.040   2.055   2.060   2.063   2.074   2.128
  2.133   2.228   2.272   2.295   2.380   2.443   2.465   2.528
  2.600   2.682   2.695   2.711   2.746   2.806   2.859   2.887
  2.924   3.188   3.262   3.361   3.383   3.469   3.480   3.559
  3.938   4.258   4.448   4.610
 --------------------------------------------------------------
 
          Ground-State Mulliken Net Atomic Charges

     Atom                 Charge (a.u.)    Spin (a.u.)
  --------------------------------------------------------
      1 S                    -0.072837       1.029294
      2 C                    -0.188852      -0.073399
      3 C                    -0.213460       1.080731
      4 C                    -0.307688       0.048513
      5 H                     0.102993       0.010904
      6 H                     0.099947       0.014327
      7 H                     0.101905      -0.047500
      8 H                     0.097074      -0.047736
      9 H                     0.105007      -0.000382
     10 H                     0.099319       0.013477
     11 H                     0.103908      -0.000628
     12 H                     0.072684      -0.027603
  --------------------------------------------------------
  Sum of atomic charges =    -0.000000
  Sum of spin   charges =     2.000000

 -----------------------------------------------------------------
                    Cartesian Multipole Moments
 -----------------------------------------------------------------
    Charge (ESU x 10^10)
                 0.0000
    Dipole Moment (Debye)
         X      -0.2256      Y       0.4091      Z      -0.9309
       Tot       1.0415
    Quadrupole Moments (Debye-Ang)
        XX     -36.8619     XY      -0.0367     YY     -33.1870
        XZ      -4.0902     YZ      -1.2744     ZZ     -31.7315
    Octopole Moments (Debye-Ang^2)
       XXX    -108.0729    XXY     -10.3973    XYY     -26.3598
       YYY     -18.9359    XXZ     -16.4650    XYZ      -5.7921
       YYZ      -0.1476    XZZ     -22.1097    YZZ      -6.1165
       ZZZ       3.9731
    Hexadecapole Moments (Debye-Ang^3)
      XXXX   -1901.8044   XXXY    -196.4403   XXYY    -312.7580
      XYYY    -145.3200   YYYY    -165.1276   XXXZ     -42.1185
      XXYZ     -20.4679   XYYZ       4.4733   YYYZ       5.3454
      XXZZ    -268.3170   XYZZ     -40.7418   YYZZ     -34.4559
      XZZZ      28.1190   YZZZ       4.6054   ZZZZ     -64.5198
 -----------------------------------------------------------------
 Calculating analytic gradient of the SCF energy
 Gradient of SCF Energy
            1           2           3           4           5           6
    1  -0.0001083  -0.0011594   0.0038864  -0.0001305  -0.0020726  -0.0004920
    2  -0.0007744   0.0055528  -0.0020016   0.0007590  -0.0013307  -0.0003495
    3   0.0018988   0.0014042   0.0036098   0.0004818  -0.0011981  -0.0002362
            7           8           9          10          11          12
    1  -0.0003548   0.0003255   0.0000126   0.0000408   0.0000389   0.0000134
    2  -0.0000297  -0.0024930  -0.0000416  -0.0000296  -0.0000286   0.0007669
    3   0.0003619  -0.0043404  -0.0000279  -0.0000145   0.0000023  -0.0019418
 Max gradient component =       5.553E-03
 RMS gradient           =       1.740E-03
 Gradient time:  CPU 7.67 s  wall 0.69 s
 Geometry Optimization Parameters
   NAtoms,    NIC,     NZ,  NCons,   NDum,   NFix, NCnnct, MaxDiis
       12     174       0       1       0       0       0       0

 Cartesian Hessian Update
 Hessian Updated using BFGS Update


** CONSTRAINED OPTIMIZATION IN DELOCALIZED INTERNAL COORDINATES **
   Searching for a Minimum

   Optimization Cycle:   3

                       Coordinates (Angstroms)
     ATOM                X               Y               Z
      1  S         4.0597364906    0.8819879773   -0.1189796497
      2  C        -0.9912242565    0.2801029608   -0.0155434100
      3  C        -0.0690200712   -0.9057913122   -0.0340202444
      4  C        -2.4855487516   -0.1001234234    0.1164173297
      5  H        -0.7399226480    0.9426668038    0.8178528351
      6  H        -0.8659859824    0.8631699880   -0.9374169538
      7  H         0.2863718290   -1.3469341198    0.8918717222
      8  H         0.0814073472   -1.4736633328   -0.9557951459
      9  H        -2.6700661979   -0.6527188142    1.0432106946
     10  H        -3.1141755377    0.7973141001    0.1244350125
     11  H        -2.8074358872   -0.7319838512   -0.7177101736
     12  H         4.0284666656    1.3497730234   -1.3913210169
   Point Group: c1    Number of degrees of freedom:    30


   Energy is   -517.224044378

              Constraints and their Current Values
                                        Value     Constraint
   Distance(Angs):        1   3             4.500000     4.500000
 Hessian Updated using BFGS Update

 29 Hessian modes will be used to form the next step
  Hessian Eigenvalues:
     0.022721    0.036430    0.044335    0.044999    0.047529    0.054521
     0.056720    0.061689    0.065475    0.066147    0.070270    0.082993
     0.083061    0.085577    0.091998    0.128181    0.159976    0.159999
     0.160762    0.237208    0.239605    0.275877    0.278625    0.297970
     0.311598    0.321315    0.341660    0.342782    0.342856

 Minimum Search - Taking Simple RFO Step
 Searching for Lamda that Minimizes Along All modes
 Value Taken    Lamda =  -0.00025944
 Step Taken.  Stepsize is  0.048276

                             Maximum     Tolerance    Cnvgd?
         Gradient           0.003308      0.000300      NO
         Displacement       0.018743      0.001200      NO
         Energy change     -0.000330      0.000001      NO


 New Cartesian Coordinates Obtained by Inverse Iteration

 Displacement from previous Coordinates is:  0.049345
 ----------------------------------------------------------------
             Standard Nuclear Orientation (Angstroms)
    I     Atom           X                Y                Z
 ----------------------------------------------------------------
    1      S       4.0561181061     0.8804180606    -0.1220271230
    2      C      -0.9888196463     0.2792225412    -0.0149644618
    3      C      -0.0755751485    -0.9003859249    -0.0334175868
    4      C      -2.4830321163    -0.1033265382     0.1145492808
    5      H      -0.7286856309     0.9433966508     0.8192984294
    6      H      -0.8618830472     0.8646693649    -0.9354232968
    7      H       0.2811858440    -1.3420422451     0.8914598496
    8      H       0.0729050467    -1.4649578020    -0.9482639479
    9      H      -2.6674590644    -0.6579109983     1.0401593232
   10      H      -3.1145098002     0.7923221052     0.1235449965
   11      H      -2.8017766828    -0.7341522852    -0.7214754754
   12      H       4.0241351398     1.3465470710    -1.3904389877
 ----------------------------------------------------------------
 Nuclear Repulsion Energy =   123.8432062516 hartrees
 There are       22 alpha and       20 beta electrons

                       Distance Matrix (Angstroms)
             S (  1)   C (  2)   C (  3)   C (  4)   H (  5)   H (  6)
   C (  2)  5.081761
   C (  3)  4.500000  1.491922
   C (  4)  6.616964  1.547833  2.540285
   H (  5)  4.876926  1.097630  2.133826  2.161026
   H (  6)  4.984837  1.098228  2.132443  2.160459  1.761530
   H (  7)  4.496287  2.250115  1.085236  3.127124  2.499656  3.084426
   H (  8)  4.695683  2.245100  1.085233  3.084871  3.093056  2.510210
   H (  9)  6.994542  2.193020  2.815888  1.094683  2.524244  3.079169
   H ( 10)  7.175373  2.191122  3.482100  1.095916  2.489790  2.490176
   H ( 11)  7.070848  2.193832  2.816599  1.094750  3.079913  2.522933
   H ( 12)  1.351728  5.306678  4.868043  6.834497  5.256879  4.930763
             H (  7)   H (  8)   H (  9)   H ( 10)   H ( 11)
   H (  8)  1.855552
   H (  9)  3.030619  3.480625
   H ( 10)  4.083620  4.050148  1.772911
   H ( 11)  3.532103  2.974778  1.768392  1.772565
   H ( 12)  5.142494  4.869527  7.396154  7.318440  7.167279
 
 Applying Cartesian multipole field
    Component          Value
    ---------          -----
     (2,0,0)        1.00000E-11
     (0,2,0)        2.00000E-10
     (0,0,2)       -3.00000E-10
 Nucleus-field energy     =     0.0000000240 hartrees
 Requested basis set is 6-31G(d,p)
 There are 41 shells and 104 basis functions
 A cutoff of  1.0D-14 yielded    752 shell pairs
 There are      4776 function pairs
 Smallest overlap matrix eigenvalue = 6.42E-03
 Guess from superposition of atomic densities
 Warning:  Energy on first SCF cycle will be non-variational
 SAD guess density has 42.000000 electrons

 -----------------------------------------------------------------------
  General SCF calculation program by
  Eric Jon Sundstrom, Paul Horn, Yuezhi Mao, Dmitri Zuev, Alec White,
  David Stuck, Shaama M.S., Shane Yost, Joonho Lee, David Small,
  Daniel Levine, Susi Lehtola, Hugh Burton, Evgeny Epifanovsky
 -----------------------------------------------------------------------
 Exchange:     0.2000 Hartree-Fock + 0.0800 Slater + 0.7200 B88
 Correlation:  0.1900 VWN1RPA + 0.8100 LYP
 Using SG-1 standard quadrature grid
 using 12 threads for integral computing
 -------------------------------------------------------
 OpenMP Integral computing Module                
 Release: version 1.0, May 2013, Q-Chem Inc. Pittsburgh 
 -------------------------------------------------------
 -------------------------------------------------------
 OpenMP BLAS3 based DFT computing Module                
 Release: version 1.0, May 2013, Q-Chem Inc. Pittsburgh 
 -------------------------------------------------------
 A unrestricted SCF calculation will be
 performed using DIIS
 SCF converges when DIIS error is below 1.0e-06
 Alpha HF Exchange    Energy =  -4.31718841560011
 Beta HF Exchange     Energy =  -4.31718841560011
 DFT Correlation      Energy =  -1.85343153822684
 DFT Exchange         Energy = -33.94165062974821
 One-Electron (alpha) Energy = -475.16091572622190
 One-Electron (beta)  Energy = -475.16091572622190
 Total Coulomb        Energy = 353.49131571695432
 ---------------------------------------
  Cycle       Energy         DIIS error
 ---------------------------------------
    1    -517.4167684591      2.80e-02  
 Alpha HF Exchange    Energy =  -4.45358998254129
 Beta HF Exchange     Energy =  -4.27078112472783
 DFT Correlation      Energy =  -1.87362483874461
 DFT Exchange         Energy = -34.58935529621464
 One-Electron (alpha) Energy = -489.51944118483237
 One-Electron (beta)  Energy = -467.66882325708895
 Total Coulomb        Energy = 361.39146663733470
    2    -517.1409427712      3.63e-03  
 Alpha HF Exchange    Energy =  -4.39679777526715
 Beta HF Exchange     Energy =  -4.21956870378944
 DFT Correlation      Energy =  -1.84555418938818
 DFT Exchange         Energy = -34.13394432974432
 One-Electron (alpha) Energy = -486.17217100114368
 One-Electron (beta)  Energy = -464.35238733967628
 Total Coulomb        Energy = 354.14112651248911
    3    -517.1360905509      3.87e-03  
 Alpha HF Exchange    Energy =  -4.42589296936736
 Beta HF Exchange     Energy =  -4.24455743214239
 DFT Correlation      Energy =  -1.85886152854457
 DFT Exchange         Energy = -34.35846855137422
 One-Electron (alpha) Energy = -488.01525097174073
 One-Electron (beta)  Energy = -465.98464422575341
 Total Coulomb        Energy = 357.82076351062386
    4    -517.2237058927      2.70e-04  
 Alpha HF Exchange    Energy =  -4.42720999464650
 Beta HF Exchange     Energy =  -4.24454585800879
 DFT Correlation      Energy =  -1.85877027526244
 DFT Exchange         Energy = -34.36301778814870
 One-Electron (alpha) Energy = -488.05697590853367
 One-Electron (beta)  Energy = -465.95877842190976
 Total Coulomb        Energy = 357.84204716340332
    5    -517.2240448075      1.44e-04  
 Alpha HF Exchange    Energy =  -4.42691155084182
 Beta HF Exchange     Energy =  -4.24443088661387
 DFT Correlation      Energy =  -1.85855697972163
 DFT Exchange         Energy = -34.36115064073957
 One-Electron (alpha) Energy = -488.04830275907636
 One-Electron (beta)  Energy = -465.93696957682266
 Total Coulomb        Energy = 357.80895320223811
    6    -517.2241629160      3.77e-05  
 Alpha HF Exchange    Energy =  -4.42703612237192
 Beta HF Exchange     Energy =  -4.24435233486605
 DFT Correlation      Energy =  -1.85852962286658
 DFT Exchange         Energy = -34.36126992126332
 One-Electron (alpha) Energy = -488.05486210811659
 One-Electron (beta)  Energy = -465.93122475881177
 Total Coulomb        Energy = 357.80989621206828
    7    -517.2241723806      9.08e-06  
 Alpha HF Exchange    Energy =  -4.42709374852384
 Beta HF Exchange     Energy =  -4.24435437248500
 DFT Correlation      Energy =  -1.85851965103914
 DFT Exchange         Energy = -34.36147392261748
 One-Electron (alpha) Energy = -488.05900961357850
 One-Electron (beta)  Energy = -465.93011958573913
 Total Coulomb        Energy = 357.81319142640240
    8    -517.2241731920      3.83e-06  
 Alpha HF Exchange    Energy =  -4.42709043509582
 Beta HF Exchange     Energy =  -4.24433728929727
 DFT Correlation      Energy =  -1.85851210727334
 DFT Exchange         Energy = -34.36139330417611
 One-Electron (alpha) Energy = -488.05849299836251
 One-Electron (beta)  Energy = -465.92859556197726
 Total Coulomb        Energy = 357.81104211344518
    9    -517.2241733071      1.34e-06  
 Alpha HF Exchange    Energy =  -4.42709274783785
 Beta HF Exchange     Energy =  -4.24433690154389
 DFT Correlation      Energy =  -1.85851183989524
 DFT Exchange         Energy = -34.36140099923296
 One-Electron (alpha) Energy = -488.05863403628496
 One-Electron (beta)  Energy = -465.92851524313437
 Total Coulomb        Energy = 357.81111217286434
   10    -517.2241733195      5.03e-07  Convergence criterion met
 ---------------------------------------
 SCF time:   CPU 22.54s  wall 2.00s 
<S^2> =          2.006166665
 Alpha HF Exchange    Energy =  -4.42709274783785
 Beta HF Exchange     Energy =  -4.24433690154389
 DFT Correlation      Energy =  -1.85851183989524
 DFT Exchange         Energy = -34.36140099923296
 One-Electron (alpha) Energy = -488.05863403628496
 One-Electron (beta)  Energy = -465.92851524313437
 Total Coulomb        Energy = 357.81111217286434
 Nuclear repulsion Energy = 123.84320627559255
 SCF   energy in the final basis set =     -517.2241733195
 Total energy in the final basis set =     -517.2241733195
 
 --------------------------------------------------------------
 
                    Orbital Energies (a.u.)
 --------------------------------------------------------------
 
 Alpha MOs
 -- Occupied --
-88.909 -10.182 -10.181 -10.174  -7.971  -5.942  -5.932  -5.923
 -0.776  -0.737  -0.669  -0.575  -0.458  -0.423  -0.411  -0.389
 -0.375  -0.345  -0.329  -0.319  -0.271  -0.194
 -- Virtual --
  0.033   0.107   0.143   0.146   0.160   0.180   0.182   0.224
  0.234   0.272   0.278   0.327   0.334   0.355   0.516   0.537
  0.538   0.552   0.598   0.613   0.660   0.690   0.696   0.700
  0.729   0.738   0.744   0.789   0.816   0.861   0.880   0.884
  0.914   0.940   0.962   1.003   1.086   1.216   1.310   1.431
  1.481   1.532   1.604   1.685   1.824   1.876   1.958   1.978
  2.006   2.055   2.058   2.067   2.073   2.124   2.127   2.229
  2.262   2.293   2.375   2.441   2.455   2.523   2.580   2.679
  2.700   2.715   2.744   2.806   2.860   2.885   2.923   3.186
  3.261   3.362   3.382   3.467   3.483   3.557   3.920   4.243
  4.433   4.609
 
 Beta MOs
 -- Occupied --
-88.904 -10.183 -10.173 -10.168  -7.965  -5.929  -5.924  -5.919
 -0.765  -0.697  -0.650  -0.561  -0.454  -0.418  -0.398  -0.384
 -0.363  -0.340  -0.327  -0.256
 -- Virtual --
 -0.176  -0.035   0.044   0.110   0.148   0.155   0.162   0.183
  0.184   0.228   0.239   0.285   0.288   0.334   0.364   0.373
  0.520   0.539   0.552   0.569   0.602   0.646   0.672   0.709
  0.721   0.736   0.744   0.793   0.793   0.798   0.823   0.864
  0.882   0.887   0.921   0.945   0.975   1.006   1.096   1.227
  1.320   1.461   1.486   1.548   1.625   1.685   1.833   1.880
  1.961   2.003   2.045   2.055   2.062   2.065   2.074   2.126
  2.133   2.230   2.273   2.294   2.380   2.446   2.466   2.532
  2.604   2.684   2.702   2.716   2.748   2.809   2.862   2.887
  2.927   3.188   3.264   3.367   3.383   3.470   3.489   3.560
  3.939   4.262   4.450   4.611
 --------------------------------------------------------------
 
          Ground-State Mulliken Net Atomic Charges

     Atom                 Charge (a.u.)    Spin (a.u.)
  --------------------------------------------------------
      1 S                    -0.072826       1.029127
      2 C                    -0.188881      -0.073618
      3 C                    -0.212464       1.077971
      4 C                    -0.307379       0.049845
      5 H                     0.102080       0.011204
      6 H                     0.099665       0.014913
      7 H                     0.101385      -0.047471
      8 H                     0.097393      -0.047389
      9 H                     0.105115      -0.000400
     10 H                     0.099237       0.013928
     11 H                     0.104001      -0.000668
     12 H                     0.072673      -0.027442
  --------------------------------------------------------
  Sum of atomic charges =     0.000000
  Sum of spin   charges =     2.000000

 -----------------------------------------------------------------
                    Cartesian Multipole Moments
 -----------------------------------------------------------------
    Charge (ESU x 10^10)
                -0.0000
    Dipole Moment (Debye)
         X      -0.2234      Y       0.4063      Z      -0.9384
       Tot       1.0467
    Quadrupole Moments (Debye-Ang)
        XX     -36.8478     XY      -0.0063     YY     -33.1885
        XZ      -4.0835     YZ      -1.2751     ZZ     -31.7300
    Octopole Moments (Debye-Ang^2)
       XXX    -107.9143    XXY     -10.4152    XYY     -26.2817
       YYY     -18.9195    XXZ     -16.4319    XYZ      -5.7702
       YYZ      -0.1127    XZZ     -22.0368    YZZ      -6.1062
       ZZZ       4.0524
    Hexadecapole Moments (Debye-Ang^3)
      XXXX   -1897.9264   XXXY    -196.1461   XXYY    -312.0010
      XYYY    -145.1612   YYYY    -164.3331   XXXZ     -41.6473
      XXYZ     -20.3100   XYYZ       4.6040   YYYZ       5.4524
      XXZZ    -267.7105   XYZZ     -40.6963   YYZZ     -34.3619
      XZZZ      28.3745   YZZZ       4.7233   ZZZZ     -64.4451
 -----------------------------------------------------------------
 Calculating analytic gradient of the SCF energy
 Gradient of SCF Energy
            1           2           3           4           5           6
    1  -0.0001608   0.0004649   0.0009519   0.0001231  -0.0003236  -0.0001288
    2  -0.0000136   0.0002385  -0.0000989  -0.0001868  -0.0001225  -0.0002535
    3  -0.0001744  -0.0001774  -0.0001787  -0.0000025   0.0001864  -0.0001052
            7           8           9          10          11          12
    1  -0.0004057  -0.0005140  -0.0000075  -0.0000275  -0.0000395   0.0000676
    2   0.0000136   0.0003778   0.0000137   0.0000204   0.0000068   0.0000045
    3   0.0001623   0.0001216   0.0000112   0.0000128   0.0000119   0.0001321
 Max gradient component =       9.519E-04
 RMS gradient           =       2.496E-04
 Gradient time:  CPU 7.53 s  wall 0.66 s
 Geometry Optimization Parameters
   NAtoms,    NIC,     NZ,  NCons,   NDum,   NFix, NCnnct, MaxDiis
       12     174       0       1       0       0       0       0

 Cartesian Hessian Update
 Hessian Updated using BFGS Update


** CONSTRAINED OPTIMIZATION IN DELOCALIZED INTERNAL COORDINATES **
   Searching for a Minimum

   Optimization Cycle:   4

                       Coordinates (Angstroms)
     ATOM                X               Y               Z
      1  S         4.0561181061    0.8804180606   -0.1220271230
      2  C        -0.9888196463    0.2792225412   -0.0149644618
      3  C        -0.0755751485   -0.9003859249   -0.0334175868
      4  C        -2.4830321163   -0.1033265382    0.1145492808
      5  H        -0.7286856309    0.9433966508    0.8192984294
      6  H        -0.8618830472    0.8646693649   -0.9354232968
      7  H         0.2811858440   -1.3420422451    0.8914598496
      8  H         0.0729050467   -1.4649578020   -0.9482639479
      9  H        -2.6674590644   -0.6579109983    1.0401593232
     10  H        -3.1145098002    0.7923221052    0.1235449965
     11  H        -2.8017766828   -0.7341522852   -0.7214754754
     12  H         4.0241351398    1.3465470710   -1.3904389877
   Point Group: c1    Number of degrees of freedom:    30


   Energy is   -517.224173319

              Constraints and their Current Values
                                        Value     Constraint
   Distance(Angs):        1   3             4.500000     4.500000
 Hessian Updated using BFGS Update

 29 Hessian modes will be used to form the next step
  Hessian Eigenvalues:
     0.022023    0.036361    0.044223    0.044999    0.047505    0.053756
     0.056724    0.060710    0.065334    0.065622    0.070056    0.082881
     0.083045    0.085187    0.091993    0.128678    0.159998    0.160017
     0.160720    0.237192    0.255162    0.276610    0.278644    0.298459
     0.315529    0.325922    0.341629    0.342784    0.342868

 Minimum Search - Taking Simple RFO Step
 Searching for Lamda that Minimizes Along All modes
 Value Taken    Lamda =  -0.00000444
 Step Taken.  Stepsize is  0.009390

                             Maximum     Tolerance    Cnvgd?
         Gradient           0.000272      0.000300     YES
         Displacement       0.004725      0.001200      NO
         Energy change     -0.000129      0.000001      NO


 New Cartesian Coordinates Obtained by Inverse Iteration

 Displacement from previous Coordinates is:  0.007310
 ----------------------------------------------------------------
             Standard Nuclear Orientation (Angstroms)
    I     Atom           X                Y                Z
 ----------------------------------------------------------------
    1      S       4.0552435485     0.8812001341    -0.1218880753
    2      C      -0.9888611860     0.2785544528    -0.0147991557
    3      C      -0.0757221795    -0.9012898917    -0.0332590912
    4      C      -2.4834371266    -0.1027705689     0.1145040627
    5      H      -0.7272397247     0.9429698579     0.8189897551
    6      H      -0.8615424063     0.8645941271    -0.9349659000
    7      H       0.2821413499    -1.3425650015     0.8913986554
    8      H       0.0738982529    -1.4663743832    -0.9479813582
    9      H      -2.6684365818    -0.6574946613     1.0399171919
   10      H      -3.1142326599     0.7932825477     0.1234157690
   11      H      -2.8021604217    -0.7332872433    -0.7217792243
   12      H       4.0229521349     1.3469806302    -1.3905516293
 ----------------------------------------------------------------
 Nuclear Repulsion Energy =   123.8380909533 hartrees
 There are       22 alpha and       20 beta electrons

                       Distance Matrix (Angstroms)
             S (  1)   C (  2)   C (  3)   C (  4)   H (  5)   H (  6)
   C (  2)  5.081106
   C (  3)  4.500000  1.492044
   C (  4)  6.616527  1.547865  2.540976
   H (  5)  4.874547  1.097769  2.133564  2.161967
   H (  6)  4.983589  1.098344  2.132823  2.160492  1.760835
   H (  7)  4.495351  2.250482  1.085257  3.128751  2.499553  3.084667
   H (  8)  4.695173  2.246122  1.085552  3.086787  3.093372  2.511699
   H (  9)  6.994659  2.193077  2.816613  1.094684  2.525577  3.079251
   H ( 10)  7.174210  2.191176  3.482624  1.095853  2.490776  2.489954
   H ( 11)  7.070391  2.193558  2.817046  1.094763  3.080439  2.522830
   H ( 12)  1.351851  5.305893  4.867863  6.833745  5.254486  4.929355
             H (  7)   H (  8)   H (  9)   H ( 10)   H ( 11)
   H (  8)  1.855266
   H (  9)  3.032703  3.482302
   H ( 10)  4.084972  4.051928  1.772982
   H ( 11)  3.533621  2.976625  1.768389  1.772614
   H ( 12)  5.141461  4.868867  7.395930  7.316972  7.166375
 
 Applying Cartesian multipole field
    Component          Value
    ---------          -----
     (2,0,0)        1.00000E-11
     (0,2,0)        2.00000E-10
     (0,0,2)       -3.00000E-10
 Nucleus-field energy     =     0.0000000240 hartrees
 Requested basis set is 6-31G(d,p)
 There are 41 shells and 104 basis functions
 A cutoff of  1.0D-14 yielded    752 shell pairs
 There are      4776 function pairs
 Smallest overlap matrix eigenvalue = 6.42E-03
 Guess from superposition of atomic densities
 Warning:  Energy on first SCF cycle will be non-variational
 SAD guess density has 42.000000 electrons

 -----------------------------------------------------------------------
  General SCF calculation program by
  Eric Jon Sundstrom, Paul Horn, Yuezhi Mao, Dmitri Zuev, Alec White,
  David Stuck, Shaama M.S., Shane Yost, Joonho Lee, David Small,
  Daniel Levine, Susi Lehtola, Hugh Burton, Evgeny Epifanovsky
 -----------------------------------------------------------------------
 Exchange:     0.2000 Hartree-Fock + 0.0800 Slater + 0.7200 B88
 Correlation:  0.1900 VWN1RPA + 0.8100 LYP
 Using SG-1 standard quadrature grid
 using 12 threads for integral computing
 -------------------------------------------------------
 OpenMP Integral computing Module                
 Release: version 1.0, May 2013, Q-Chem Inc. Pittsburgh 
 -------------------------------------------------------
 -------------------------------------------------------
 OpenMP BLAS3 based DFT computing Module                
 Release: version 1.0, May 2013, Q-Chem Inc. Pittsburgh 
 -------------------------------------------------------
 A unrestricted SCF calculation will be
 performed using DIIS
 SCF converges when DIIS error is below 1.0e-06
 Alpha HF Exchange    Energy =  -4.31712358497478
 Beta HF Exchange     Energy =  -4.31712358497478
 DFT Correlation      Energy =  -1.85341425036070
 DFT Exchange         Energy = -33.94152002896205
 One-Electron (alpha) Energy = -475.15620313443497
 One-Electron (beta)  Energy = -475.15620313443497
 Total Coulomb        Energy = 353.48722112188449
 ---------------------------------------
  Cycle       Energy         DIIS error
 ---------------------------------------
    1    -517.4162756190      2.80e-02  
 Alpha HF Exchange    Energy =  -4.45354143763477
 Beta HF Exchange     Energy =  -4.27074469970243
 DFT Correlation      Energy =  -1.87360267929824
 DFT Exchange         Energy = -34.58904298141563
 One-Electron (alpha) Energy = -489.51365490439605
 One-Electron (beta)  Energy = -467.66357388237958
 Total Coulomb        Energy = 361.38508627513920
    2    -517.1409833324      3.63e-03  
 Alpha HF Exchange    Energy =  -4.39676752825733
 Beta HF Exchange     Energy =  -4.21954481540280
 DFT Correlation      Energy =  -1.84553673667747
 DFT Exchange         Energy = -34.13375466867235
 One-Electron (alpha) Energy = -486.16736091215284
 One-Electron (beta)  Energy = -464.34792570381956
 Total Coulomb        Energy = 354.13667621084005
    3    -517.1361231769      3.87e-03  
 Alpha HF Exchange    Energy =  -4.42585461208819
 Beta HF Exchange     Energy =  -4.24452668698897
 DFT Correlation      Energy =  -1.85884252210501
 DFT Exchange         Energy = -34.35822284035358
 One-Electron (alpha) Energy = -488.01003297648521
 One-Electron (beta)  Energy = -465.97982717859747
 Total Coulomb        Energy = 357.81550605457983
    4    -517.2237097848      2.70e-04  
 Alpha HF Exchange    Energy =  -4.42717143765998
 Beta HF Exchange     Energy =  -4.24451521797189
 DFT Correlation      Energy =  -1.85875102308851
 DFT Exchange         Energy = -34.36277111975799
 One-Electron (alpha) Energy = -488.05172681861444
 One-Electron (beta)  Energy = -465.95392743742894
 Total Coulomb        Energy = 357.83672331243002
    5    -517.2240487648      1.44e-04  
 Alpha HF Exchange    Energy =  -4.42687310539368
 Beta HF Exchange     Energy =  -4.24439991932326
 DFT Correlation      Energy =  -1.85853778135522
 DFT Exchange         Energy = -34.36090348028341
 One-Electron (alpha) Energy = -488.04307051008220
 One-Electron (beta)  Energy = -465.93211914169433
 Total Coulomb        Energy = 357.80364613711049
    6    -517.2241668237      3.77e-05  
 Alpha HF Exchange    Energy =  -4.42699778501152
 Beta HF Exchange     Energy =  -4.24432136845792
 DFT Correlation      Energy =  -1.85851044227354
 DFT Exchange         Energy = -34.36102320521688
 One-Electron (alpha) Energy = -488.04963356582618
 One-Electron (beta)  Energy = -465.92637023316382
 Total Coulomb        Energy = 357.80458933422034
    7    -517.2241762885      9.08e-06  
 Alpha HF Exchange    Energy =  -4.42705545417793
 Beta HF Exchange     Energy =  -4.24432338729785
 DFT Correlation      Energy =  -1.85850046614053
 DFT Exchange         Energy = -34.36122731324733
 One-Electron (alpha) Energy = -488.05378655530905
 One-Electron (beta)  Energy = -465.92526489440411
 Total Coulomb        Energy = 357.80788999275165
    8    -517.2241771006      3.82e-06  
 Alpha HF Exchange    Energy =  -4.42705211909168
 Beta HF Exchange     Energy =  -4.24430626890171
 DFT Correlation      Energy =  -1.85849290986488
 DFT Exchange         Energy = -34.36114647674141
 One-Electron (alpha) Energy = -488.05326668600969
 One-Electron (beta)  Energy = -465.92373713131724
 Total Coulomb        Energy = 357.80573339910649
[...]

                             Maximum     Tolerance    Cnvgd?
         Gradient           0.000085      0.000300     YES
         Displacement       0.004718      0.001200      NO
         Energy change     -0.000001      0.000001      NO


 New Cartesian Coordinates Obtained by Inverse Iteration

 Displacement from previous Coordinates is:  0.005462
 ----------------------------------------------------------------
             Standard Nuclear Orientation (Angstroms)
    I     Atom           X                Y                Z
 ----------------------------------------------------------------
    1      S       4.0340958503     0.8939020287    -0.1133934356
    2      C      -0.9835617901     0.2686632505    -0.0178554511
    3      C      -0.0829969332    -0.9208653269    -0.0348434949
    4      C      -2.4823682632    -0.0931523807     0.1150650745
    5      H      -0.7106381683     0.9313351967     0.8136371212
    6      H      -0.8507485941     0.8523557367    -0.9388767061
    7      H       0.2987936425    -1.3464481757     0.8873741954
    8      H       0.0811753438    -1.4818909789    -0.9495651282
    9      H      -2.6727657930    -0.6432990825     1.0420651565
   10      H      -3.1015658402     0.8108986904     0.1225023428
   11      H      -2.8098813971    -0.7218317811    -0.7191676973
   12      H       3.9930649426     1.3541328227    -1.3839409772
 ----------------------------------------------------------------
 Nuclear Repulsion Energy =   123.9480731001 hartrees
 There are       22 alpha and       20 beta electrons

                       Distance Matrix (Angstroms)
             S (  1)   C (  2)   C (  3)   C (  4)   H (  5)   H (  6)
   C (  2)  5.057365
   C (  3)  4.500000  1.492074
   C (  4)  6.594754  1.547579  2.542551
   H (  5)  4.834593  1.097726  2.131783  2.162546
   H (  6)  4.954276  1.098461  2.133315  2.160315  1.759879
   H (  7)  4.469137  2.252212  1.085067  3.146756  2.492526  3.080808
   H (  8)  4.687127  2.250819  1.085550  3.103834  3.091846  2.513425
   H (  9)  6.977110  2.192833  2.818453  1.094642  2.526182  3.079101
   H ( 10)  7.140042  2.190813  3.483608  1.095796  2.491728  2.488860
   H ( 11)  7.058157  2.192798  2.818477  1.094736  3.080466  2.522804
   H ( 12)  1.351957  5.273637  4.859008  6.802418  5.208928  4.890030
             H (  7)   H (  8)   H (  9)   H ( 10)   H ( 11)
   H (  8)  1.854737
   H (  9)  3.057534  3.500574
   H ( 10)  4.098978  4.066455  1.773177
   H ( 11)  3.554572  2.998163  1.768307  1.772781
   H ( 12)  5.108782  4.851247  7.369433  7.273119  7.143643
 
 Applying Cartesian multipole field
    Component          Value
    ---------          -----
     (2,0,0)        1.00000E-11
     (0,2,0)        2.00000E-10
     (0,0,2)       -3.00000E-10
 Nucleus-field energy     =     0.0000000243 hartrees
 Requested basis set is 6-31G(d,p)
 There are 41 shells and 104 basis functions
 A cutoff of  1.0D-14 yielded    752 shell pairs
 There are      4776 function pairs
 Smallest overlap matrix eigenvalue = 6.42E-03
 Guess from superposition of atomic densities
 Warning:  Energy on first SCF cycle will be non-variational
 SAD guess density has 42.000000 electrons

 -----------------------------------------------------------------------
  General SCF calculation program by
  Eric Jon Sundstrom, Paul Horn, Yuezhi Mao, Dmitri Zuev, Alec White,
  David Stuck, Shaama M.S., Shane Yost, Joonho Lee, David Small,
  Daniel Levine, Susi Lehtola, Hugh Burton, Evgeny Epifanovsky
 -----------------------------------------------------------------------
 Exchange:     0.2000 Hartree-Fock + 0.0800 Slater + 0.7200 B88
 Correlation:  0.1900 VWN1RPA + 0.8100 LYP
 Using SG-1 standard quadrature grid
 using 12 threads for integral computing
 -------------------------------------------------------
 OpenMP Integral computing Module                
 Release: version 1.0, May 2013, Q-Chem Inc. Pittsburgh 
 -------------------------------------------------------
 -------------------------------------------------------
 OpenMP BLAS3 based DFT computing Module                
 Release: version 1.0, May 2013, Q-Chem Inc. Pittsburgh 
 -------------------------------------------------------
 A unrestricted SCF calculation will be
 performed using DIIS
 SCF converges when DIIS error is below 1.0e-06
 Alpha HF Exchange    Energy =  -4.31711075505593
 Beta HF Exchange     Energy =  -4.31711075505593
 DFT Correlation      Energy =  -1.85339948235251
 DFT Exchange         Energy = -33.94153834005295
 One-Electron (alpha) Energy = -475.26602110682973
 One-Electron (beta)  Energy = -475.26602110682973
 Total Coulomb        Energy = 353.59686699552765
 ---------------------------------------
  Cycle       Energy         DIIS error
 ---------------------------------------
    1    -517.4162614262      2.80e-02  
 Alpha HF Exchange    Energy =  -4.45351884860844
 Beta HF Exchange     Energy =  -4.27079902240869
 DFT Correlation      Energy =  -1.87361790727528
 DFT Exchange         Energy = -34.58914293661718
 One-Electron (alpha) Energy = -489.62554243332198
 One-Electron (beta)  Energy = -467.76977396517310
 Total Coulomb        Energy = 361.49333721024925
    2    -517.1409847787      3.63e-03  
 Alpha HF Exchange    Energy =  -4.39671046694945
 Beta HF Exchange     Energy =  -4.21958141491927
 DFT Correlation      Energy =  -1.84554495219754
 DFT Exchange         Energy = -34.13368313950189
 One-Electron (alpha) Energy = -486.27893240412550
 One-Electron (beta)  Energy = -464.45519273046102
 Total Coulomb        Energy = 354.24549414121384
    3    -517.1360778425      3.87e-03  
 Alpha HF Exchange    Energy =  -4.42580760871261
 Beta HF Exchange     Energy =  -4.24455706779532
 DFT Correlation      Energy =  -1.85886125098987
 DFT Exchange         Energy = -34.35817306421946
 One-Electron (alpha) Energy = -488.12173149285934
 One-Electron (beta)  Energy = -466.08663691686712
 Total Coulomb        Energy = 357.92396089826502
    4    -517.2237333787      2.69e-04  
 Alpha HF Exchange    Energy =  -4.42712394958825
 Beta HF Exchange     Energy =  -4.24454930631741
 DFT Correlation      Energy =  -1.85876919005519
 DFT Exchange         Energy = -34.36273434072838
 One-Electron (alpha) Energy = -488.16342479011348
 One-Electron (beta)  Energy = -466.06072367639439
 Total Coulomb        Energy = 357.94518039468494
    5    -517.2240717341      1.43e-04  
 Alpha HF Exchange    Energy =  -4.42682650064083
 Beta HF Exchange     Energy =  -4.24443198755590
 DFT Correlation      Energy =  -1.85855721668161
 DFT Exchange         Energy = -34.36086534690929
 One-Electron (alpha) Energy = -488.15486510743960
 One-Electron (beta)  Energy = -466.03896102927320
 Total Coulomb        Energy = 357.91224539932654
    6    -517.2241886647      3.77e-05  
 Alpha HF Exchange    Energy =  -4.42695195753512
 Beta HF Exchange     Energy =  -4.24435323799658
 DFT Correlation      Energy =  -1.85853020641388
 DFT Exchange         Energy = -34.36098718510965
 One-Electron (alpha) Energy = -488.16144233772923
 One-Electron (beta)  Energy = -466.03320201655009
 Total Coulomb        Energy = 357.91319569367977
    7    -517.2241981232      9.09e-06  
 Alpha HF Exchange    Energy =  -4.42700983356297
 Beta HF Exchange     Energy =  -4.24435524968719
 DFT Correlation      Energy =  -1.85852023756890
 DFT Exchange         Energy = -34.36119220571798
 One-Electron (alpha) Energy = -488.16562344032798
 One-Electron (beta)  Energy = -466.03210013420068
 Total Coulomb        Energy = 357.91652903677505
    8    -517.2241989398      3.79e-06  
 Alpha HF Exchange    Energy =  -4.42700634799143
 Beta HF Exchange     Energy =  -4.24433795912538
 DFT Correlation      Energy =  -1.85851262648020
 DFT Exchange         Energy = -34.36111008048337
 One-Electron (alpha) Energy = -488.16508381655291
 One-Electron (beta)  Energy = -466.03055655503192
 Total Coulomb        Energy = 357.91433520729112
    9    -517.2241990539      1.31e-06  
 Alpha HF Exchange    Energy =  -4.42700883386602
 Beta HF Exchange     Energy =  -4.24433773076054
 DFT Correlation      Energy =  -1.85851243408940
 DFT Exchange         Energy = -34.36111906672638
 One-Electron (alpha) Energy = -488.16523998020290
 One-Electron (beta)  Energy = -466.03049238875928
 Total Coulomb        Energy = 357.91443824385891
   10    -517.2241990661      5.03e-07  Convergence criterion met
 ---------------------------------------
 SCF time:   CPU 22.43s  wall 1.00s 
<S^2> =          2.006208320
 Alpha HF Exchange    Energy =  -4.42700883386602
 Beta HF Exchange     Energy =  -4.24433773076054
 DFT Correlation      Energy =  -1.85851243408940
 DFT Exchange         Energy = -34.36111906672638
 One-Electron (alpha) Energy = -488.16523998020290
 One-Electron (beta)  Energy = -466.03049238875928
 Total Coulomb        Energy = 357.91443824385891
 Nuclear repulsion Energy = 123.94807312445397
 SCF   energy in the final basis set =     -517.2241990661
 Total energy in the final basis set =     -517.2241990661
 
 --------------------------------------------------------------
 
                    Orbital Energies (a.u.)
 --------------------------------------------------------------
 
 Alpha MOs
 -- Occupied --
-88.909 -10.182 -10.181 -10.174  -7.971  -5.942  -5.932  -5.923
 -0.775  -0.737  -0.669  -0.575  -0.458  -0.424  -0.411  -0.389
 -0.374  -0.345  -0.328  -0.319  -0.271  -0.193
 -- Virtual --
  0.033   0.107   0.143   0.146   0.160   0.180   0.181   0.225
  0.234   0.272   0.278   0.327   0.334   0.355   0.516   0.537
  0.538   0.552   0.599   0.614   0.659   0.689   0.696   0.699
  0.728   0.738   0.744   0.793   0.815   0.861   0.879   0.885
  0.913   0.940   0.962   1.003   1.086   1.214   1.311   1.440
  1.481   1.521   1.605   1.685   1.825   1.876   1.957   1.986
  1.997   2.055   2.058   2.067   2.073   2.124   2.128   2.228
  2.265   2.294   2.373   2.447   2.451   2.528   2.577   2.677
  2.699   2.712   2.743   2.803   2.866   2.885   2.924   3.187
  3.260   3.362   3.383   3.467   3.480   3.561   3.920   4.243
  4.433   4.609
 
 Beta MOs
 -- Occupied --
-88.904 -10.183 -10.172 -10.168  -7.965  -5.929  -5.924  -5.920
 -0.765  -0.697  -0.651  -0.561  -0.453  -0.418  -0.398  -0.384
 -0.363  -0.340  -0.326  -0.257
 -- Virtual --
 -0.176  -0.035   0.043   0.110   0.148   0.155   0.163   0.182
  0.184   0.229   0.239   0.285   0.288   0.334   0.363   0.372
  0.520   0.538   0.553   0.570   0.602   0.646   0.672   0.709
  0.720   0.736   0.744   0.793   0.797   0.798   0.822   0.864
  0.881   0.888   0.920   0.945   0.975   1.006   1.096   1.224
  1.320   1.472   1.486   1.534   1.626   1.686   1.833   1.880
  1.960   2.005   2.043   2.055   2.061   2.064   2.074   2.127
  2.132   2.230   2.277   2.295   2.379   2.451   2.462   2.538
  2.602   2.683   2.701   2.713   2.747   2.806   2.869   2.887
  2.928   3.188   3.264   3.366   3.385   3.469   3.486   3.564
  3.938   4.262   4.449   4.611
 --------------------------------------------------------------
 
          Ground-State Mulliken Net Atomic Charges

     Atom                 Charge (a.u.)    Spin (a.u.)
  --------------------------------------------------------
      1 S                    -0.072923       1.029099
      2 C                    -0.188421      -0.074220
      3 C                    -0.214067       1.079689
      4 C                    -0.307077       0.049391
      5 H                     0.102080       0.011276
      6 H                     0.099531       0.015586
      7 H                     0.101952      -0.048068
      8 H                     0.097742      -0.047959
      9 H                     0.105247      -0.000314
     10 H                     0.099028       0.013591
     11 H                     0.104125      -0.000618
     12 H                     0.072783      -0.027452
  --------------------------------------------------------
  Sum of atomic charges =     0.000000
  Sum of spin   charges =     2.000000

 -----------------------------------------------------------------
                    Cartesian Multipole Moments
 -----------------------------------------------------------------
    Charge (ESU x 10^10)
                 0.0000
    Dipole Moment (Debye)
         X      -0.1935      Y       0.4189      Z      -0.9429
       Tot       1.0498
    Quadrupole Moments (Debye-Ang)
        XX     -36.8553     XY      -0.1023     YY     -33.2614
        XZ      -4.0450     YZ      -1.2746     ZZ     -31.7480
    Octopole Moments (Debye-Ang^2)
       XXX    -106.8357    XXY     -10.9218    XYY     -26.1971
       YYY     -19.1124    XXZ     -16.2509    XYZ      -5.7741
       YYZ      -0.2522    XZZ     -21.8375    YZZ      -6.1778
       ZZZ       3.8234
    Hexadecapole Moments (Debye-Ang^3)
      XXXX   -1879.2069   XXXY    -198.9666   XXYY    -311.3943
      XYYY    -146.8599   YYYY    -167.5675   XXXZ     -41.6225
      XXYZ     -20.2992   XYYZ       4.0474   YYYZ       5.1732
      XXZZ    -265.6948   XYZZ     -41.1166   YYZZ     -34.8369
      XZZZ      26.9510   YZZZ       4.4536   ZZZZ     -64.2471
 -----------------------------------------------------------------
 Calculating analytic gradient of the SCF energy
 Gradient of SCF Energy
            1           2           3           4           5           6
    1  -0.0001592   0.0001591  -0.0000302  -0.0000569  -0.0000222  -0.0000634
    2  -0.0000566   0.0001353  -0.0000416  -0.0000381  -0.0000660  -0.0000289
    3  -0.0000432  -0.0000938   0.0000409  -0.0000002   0.0000765  -0.0000170
            7           8           9          10          11          12
    1  -0.0000225   0.0001042   0.0000095   0.0000021   0.0000163   0.0000633
    2   0.0000261   0.0000414  -0.0000070  -0.0000095  -0.0000040   0.0000490
    3   0.0000232   0.0000026   0.0000005   0.0000120  -0.0000019   0.0000002
 Max gradient component =       1.592E-04
 RMS gradient           =       5.988E-05
 Gradient time:  CPU 7.71 s  wall 0.68 s
 Geometry Optimization Parameters
   NAtoms,    NIC,     NZ,  NCons,   NDum,   NFix, NCnnct, MaxDiis
       12     174       0       1       0       0       0       0

 Cartesian Hessian Update
 Hessian Updated using BFGS Update


** CONSTRAINED OPTIMIZATION IN DELOCALIZED INTERNAL COORDINATES **
   Searching for a Minimum

   Optimization Cycle:  12

                       Coordinates (Angstroms)
     ATOM                X               Y               Z
      1  S         4.0340958503    0.8939020287   -0.1133934356
      2  C        -0.9835617901    0.2686632505   -0.0178554511
      3  C        -0.0829969332   -0.9208653269   -0.0348434949
      4  C        -2.4823682632   -0.0931523807    0.1150650745
      5  H        -0.7106381683    0.9313351967    0.8136371212
      6  H        -0.8507485941    0.8523557367   -0.9388767061
      7  H         0.2987936425   -1.3464481757    0.8873741954
      8  H         0.0811753438   -1.4818909789   -0.9495651282
      9  H        -2.6727657930   -0.6432990825    1.0420651565
     10  H        -3.1015658402    0.8108986904    0.1225023428
     11  H        -2.8098813971   -0.7218317811   -0.7191676973
     12  H         3.9930649426    1.3541328227   -1.3839409772
   Point Group: c1    Number of degrees of freedom:    30


   Energy is   -517.224199066

              Constraints and their Current Values
                                        Value     Constraint
   Distance(Angs):        1   3             4.500000     4.500000
 Hessian Updated using BFGS Update

 29 Hessian modes will be used to form the next step
  Hessian Eigenvalues:
     0.001469    0.011974    0.029468    0.036223    0.041421    0.045084
     0.045921    0.048240    0.061070    0.064771    0.072114    0.082098
     0.083131    0.084036    0.091721    0.128150    0.159844    0.160233
     0.162669    0.237151    0.240978    0.276173    0.287066    0.302526
     0.313288    0.336499    0.342261    0.342815    0.343016

 Minimum Search - Taking Simple RFO Step
 Searching for Lamda that Minimizes Along All modes
 Value Taken    Lamda =   0.00000000
 Step Taken.  Stepsize is  0.006212

                             Maximum     Tolerance    Cnvgd?
         Gradient           0.000066      0.000300     YES
         Displacement       0.003825      0.001200      NO
         Energy change     -0.000001      0.000001     YES


                       Distance Matrix (Angstroms)
             S (  1)   C (  2)   C (  3)   C (  4)   H (  5)   H (  6)
   C (  2)  5.057365
   C (  3)  4.500000  1.492074
   C (  4)  6.594754  1.547579  2.542551
   H (  5)  4.834593  1.097726  2.131783  2.162546
   H (  6)  4.954276  1.098461  2.133315  2.160315  1.759879
   H (  7)  4.469137  2.252212  1.085067  3.146756  2.492526  3.080808
   H (  8)  4.687127  2.250819  1.085550  3.103834  3.091846  2.513425
   H (  9)  6.977110  2.192833  2.818453  1.094642  2.526182  3.079101
   H ( 10)  7.140042  2.190813  3.483608  1.095796  2.491728  2.488860
   H ( 11)  7.058157  2.192798  2.818477  1.094736  3.080466  2.522804
   H ( 12)  1.351957  5.273637  4.859008  6.802418  5.208928  4.890030
             H (  7)   H (  8)   H (  9)   H ( 10)   H ( 11)
   H (  8)  1.854737
   H (  9)  3.057534  3.500574
   H ( 10)  4.098978  4.066455  1.773177
   H ( 11)  3.554572  2.998163  1.768307  1.772781
   H ( 12)  5.108782  4.851247  7.369433  7.273119  7.143643
 
 Final energy is   -517.224199066092     


 ******************************
 **  OPTIMIZATION CONVERGED  **
 ******************************

                       Coordinates (Angstroms)
     ATOM                X               Y               Z
      1  S         4.0340958503    0.8939020287   -0.1133934356
      2  C        -0.9835617901    0.2686632505   -0.0178554511
      3  C        -0.0829969332   -0.9208653269   -0.0348434949
      4  C        -2.4823682632   -0.0931523807    0.1150650745
      5  H        -0.7106381683    0.9313351967    0.8136371212
      6  H        -0.8507485941    0.8523557367   -0.9388767061
      7  H         0.2987936425   -1.3464481757    0.8873741954
      8  H         0.0811753438   -1.4818909789   -0.9495651282
      9  H        -2.6727657930   -0.6432990825    1.0420651565
     10  H        -3.1015658402    0.8108986904    0.1225023428
     11  H        -2.8098813971   -0.7218317811   -0.7191676973
     12  H         3.9930649426    1.3541328227   -1.3839409772

Z-matrix Print:
$molecule
0 3
C 
H  1 1.097726
H  1 1.098461 2 106.515348
C  1 1.492074 2 109.866665 3 119.041001 0
H  4 1.085067 1 121.022995 2 33.813014 0
H  4 1.085550 1 120.856728 2 -156.139307 0
C  1 1.547579 2 108.473683 3 -116.336596 0
H  7 1.094642 1 111.019806 2 -62.524185 0
H  7 1.094736 1 111.011404 2 177.658340 0
H  7 1.095796 1 110.790778 2 57.596335 0
S  5 4.469137 4 84.672196 1 -100.481121 0
H  11 1.351957 5 110.838080 4 -12.091923 0
$end

PES scan, value:    4.5000 energy: -517.2241990661
------- Summary of potential scan: ------ 
    4.5000      -517.2241990661
----------------------------------------- 
Archival summary:
1\1\hpc0250\JobtypUnspecified\ProcedureUnspecified\6-31G**\138(3)\knomura\WedMar1321:14:092019WedMar1321:14:092019\0\\#,JobtypUnspecified,ProcedureUnspecified,6-31G**,\\0,3\C\H,1,1.09773\H,1,1.09846,2,106.515\C,1,1.49207,2,109.867,3,119.041,0\H,4,1.08507,1,121.023,2,33.813,0\H,4,1.08555,1,120.857,2,-156.139,0\C,1,1.54758,2,108.474,3,-116.337,0\H,7,1.09464,1,111.02,2,-62.5242,0\H,7,1.09474,1,111.011,2,177.658,0\H,7,1.0958,1,110.791,2,57.5963,0\S,5,4.46914,4,84.6722,1,-100.481,0\H,11,1.35196,5,110.838,4,-12.0919,0\\\@

 Total job time:  36.33s(wall), 416.37s(cpu) 
 Wed Mar 13 21:14:09 2019

        *************************************************************
        *                                                           *
        *  Thank you very much for using Q-Chem.  Have a nice day.  *
        *                                                           *
        *************************************************************


