
Running Job 1 of 1 thiol/02/C-S.xyz.data/inputs/bond_triplet_3.3.in
qchem thiol/02/C-S.xyz.data/inputs/bond_triplet_3.3.in_21854.0 /staging/scratch/2868767/qchem21854/ 1
/usr/usc/qchem/5.1.1/exe/qcprog.exe_s thiol/02/C-S.xyz.data/inputs/bond_triplet_3.3.in_21854.0 /staging/scratch/2868767/qchem21854/
Check license passed

                  Welcome to Q-Chem
     A Quantum Leap Into The Future Of Chemistry


 Q-Chem 5.1, Q-Chem, Inc., Pleasanton, CA (2018)

 Yihan Shao,  Zhengting Gan,  E. Epifanovsky,  A. T. B. Gilbert,  M. Wormit,  
 J. Kussmann,  A. W. Lange,  A. Behn,  Jia Deng,  Xintian Feng,  D. Ghosh,  
 M. Goldey,  P. R. Horn,  L. D. Jacobson,  I. Kaliman,  T. Kus,  A. Landau,  
 Jie Liu,  E. I. Proynov,  R. M. Richard,  R. P. Steele,  E. J. Sundstrom,  
 H. L. Woodcock III,  P. M. Zimmerman,  D. Zuev,  B. Albrecht,  E. Alguire,  
 S. A. Baeppler,  D. Barton,  Z. Benda,  Y. A. Bernard,  E. J. Berquist,  
 K. B. Bravaya,  H. Burton,  D. Casanova,  Chun-Min Chang,  Yunqing Chen,  
 A. Chien,  K. D. Closser,  M. P. Coons,  S. Coriani,  S. Dasgupta,  
 A. L. Dempwolff,  M. Diedenhofen,  Hainam Do,  R. G. Edgar,  Po-Tung Fang,  
 S. Faraji,  S. Fatehi,  Qingguo Feng,  K. D. Fenk,  J. Fosso-Tande,  
 Qinghui Ge,  A. Ghysels,  G. Gidofalvi,  J. Gomes,  J. Gonthier,  A. Gunina,  
 D. Hait,  M. W. D. Hanson-Heine,  P. H. P. Harbach,  A. W. Hauser,  
 J. E. Herr,  E. G. Hohenstein,  Z. C. Holden,  Kerwin Hui,  B. C. Huynh,  
 T.-C. Jagau,  Hyunjun Ji,  B. Kaduk,  K. Khistyaev,  Jaehoon Kim,  
 P. Klunzinger,  K. Koh,  D. Kosenkov,  L. Koulias,  T. Kowalczyk,  
 C. M. Krauter,  A. Kunitsa,  Ka Un Lao,  A. Laurent,  K. V. Lawler,  
 Joonho Lee,  D. Lefrancois,  S. Lehtola,  D. S. Levine,  Yi-Pei Li,  
 You-Sheng Lin,  Fenglai Liu,  E. Livshits,  A. Luenser,  P. Manohar,  
 E. Mansoor,  S. F. Manzer,  Shan-Ping Mao,  Yuezhi Mao,  N. Mardirossian,  
 A. V. Marenich,  T. Markovich,  L. A. Martinez-Martinez,  S. A. Maurer,  
 N. J. Mayhall,  S. C. McKenzie,  J.-M. Mewes,  A. F. Morrison,  
 J. W. Mullinax,  K. Nanda,  T. S. Nguyen-Beck,  R. Olivares-Amaya,  
 J. A. Parkhill,  T. M. Perrine,  F. Plasser,  P. Pokhilko,  S. Prager,  
 A. Prociuk,  E. Ramos,  D. R. Rehn,  F. Rob,  M. Schneider,  N. Sergueev,  
 S. M. Sharada,  S. Sharma,  D. W. Small,  T. Stauch,  T. Stein,  
 Yu-Chuan Su,  A. J. W. Thom,  A. Tkatchenko,  T. Tsuchimochi,  N. M. Tubman,  
 L. Vogt,  M. L. Vidal,  O. Vydrov,  M. A. Watson,  J. Wenzel,  
 M. de Wergifosse,  T. A. Wesolowski,  A. White,  J. Witte,  A. Yamada,  
 Jun Yang,  K. Yao,  S. Yeganeh,  S. R. Yost,  Zhi-Qiang You,  A. Zech,  
 Igor Ying Zhang,  Xing Zhang,  Yan Zhao,  Ying Zhu,  B. R. Brooks,  
 G. K. L. Chan,  C. J. Cramer,  M. S. Gordon,  W. J. Hehre,  A. Klamt,  
 M. W. Schmidt,  C. D. Sherrill,  D. G. Truhlar,  A. Aspuru-Guzik,  R. Baer,  
 A. T. Bell,  N. A. Besley,  Jeng-Da Chai,  A. E. DePrince, III,  
 R. A. DiStasio Jr.,  A. Dreuw,  B. D. Dunietz,  T. R. Furlani,  
 Chao-Ping Hsu,  Yousung Jung,  Jing Kong,  D. S. Lambrecht,  WanZhen Liang,  
 C. Ochsenfeld,  V. A. Rassolov,  L. V. Slipchenko,  J. E. Subotnik,  
 T. Van Voorhis,  J. M. Herbert,  A. I. Krylov,  P. M. W. Gill,  M. Head-Gordon

 Contributors to earlier versions of Q-Chem not listed above: 
 R. D. Adamson,  B. Austin,  J. Baker,  G. J. O. Beran,  K. Brandhorst,  
 S. T. Brown,  E. F. C. Byrd,  A. K. Chakraborty,  C.-L. Cheng,  
 Siu Hung Chien,  D. M. Chipman,  D. L. Crittenden,  H. Dachsel,  
 R. J. Doerksen,  A. D. Dutoi,  L. Fusti-Molnar,  W. A. Goddard III,  
 A. Golubeva-Zadorozhnaya,  S. R. Gwaltney,  G. Hawkins,  A. Heyden,  
 S. Hirata,  G. Kedziora,  F. J. Keil,  C. Kelley,  Jihan Kim,  R. A. King,  
 R. Z. Khaliullin,  P. P. Korambath,  W. Kurlancheek,  A. M. Lee,  M. S. Lee,  
 S. V. Levchenko,  Ching Yeh Lin,  D. Liotard,  R. C. Lochan,  I. Lotan,  
 P. E. Maslen,  N. Nair,  D. P. O'Neill,  D. Neuhauser,  E. Neuscamman,  
 C. M. Oana,  R. Olson,  B. Peters,  R. Peverati,  P. A. Pieniazek,  
 Y. M. Rhee,  J. Ritchie,  M. A. Rohrdanz,  E. Rosta,  N. J. Russ,  
 H. F. Schaefer III,  N. E. Schultz,  N. Shenvi,  A. C. Simmonett,  A. Sodt,  
 D. Stuck,  K. S. Thanthiriwatte,  V. Vanovschi,  Tao Wang,  A. Warshel,  
 C. F. Williams,  Q. Wu,  X. Xu,  W. Zhang

 Please cite Q-Chem as follows:
 Y. Shao et al., Mol. Phys. 113, 184-215 (2015)
 DOI: 10.1080/00268976.2014.952696

 Q-Chem 5.1.1 for Intel X86 EM64T Linux

 Parts of Q-Chem use Armadillo 8.300.2 (Tropical Shenanigans).
 http://arma.sourceforge.net/

 Q-Chem begins on Wed Mar 13 21:22:28 2019  

Host: 
0

     Scratch files written to /staging/scratch/2868767/qchem21854//
 Aug318 |scratch|qcdevops|jenkins|workspace|build_RNUM 6013   
Processing $rem in /usr/usc/qchem/5.1.1/config/preferences.
 MEM_TOTAL  2000 
Input Ideriv = 2
Curr. Ideriv = -1
Max.  Ideriv = 2

Checking the input file for inconsistencies... 	...done.

--------------------------------------------------------------
User input:
--------------------------------------------------------------

$comment
potential surface scanner
$end

$rem
JOBTYPE  PES_SCAN
UNRESTRICTED TRUE
SYM_IGNORE  TRUE
GEOM_OPT_MAX_CYCLES 400
SCF_MAX_CYCLES 400
METHOD   B3LYP
BASIS   6-31G**
PDB_PRINT 2
SCF_CONVERGENCE 6
THRESH 14
SCF_PRINT 1
$end
$molecule
0 3
S 3.225181 0.984789 -0.364150
C -0.734368 0.422207 -0.038657
C 0.259556 -0.673918 -0.246840
C -2.183240 -0.106657 0.086407
H -0.487371 0.985318 0.869927
H -0.689576 1.133438 -0.872452
H 0.560818 -1.294603 0.594001
H 0.378682 -1.116346 -1.233159
H -2.278939 -0.796669 0.930636
H -2.881556 0.721990 0.244325
H -2.487890 -0.639922 -0.819498
H 2.031310 0.284172 -0.327536
$end
$scan
stre 1 3 3.300000 3.301000 0.100000
$end
--------------------------------------------------------------
 ----------------------------------------------------------------
             Standard Nuclear Orientation (Angstroms)
    I     Atom           X                Y                Z
 ----------------------------------------------------------------
    1      S       3.2251810000     0.9847890000    -0.3641500000
    2      C      -0.7343680000     0.4222070000    -0.0386570000
    3      C       0.2595560000    -0.6739180000    -0.2468400000
    4      C      -2.1832400000    -0.1066570000     0.0864070000
    5      H      -0.4873710000     0.9853180000     0.8699270000
    6      H      -0.6895760000     1.1334380000    -0.8724520000
    7      H       0.5608180000    -1.2946030000     0.5940010000
    8      H       0.3786820000    -1.1163460000    -1.2331590000
    9      H      -2.2789390000    -0.7966690000     0.9306360000
   10      H      -2.8815560000     0.7219900000     0.2443250000
   11      H      -2.4878900000    -0.6399220000    -0.8194980000
   12      H       2.0313100000     0.2841720000    -0.3275360000
 ----------------------------------------------------------------
 Nuclear Repulsion Energy =   136.3347809285 hartrees
 There are       22 alpha and       20 beta electrons
 Requested basis set is 6-31G(d,p)
 There are 41 shells and 104 basis functions

 Total QAlloc Memory Limit   2000 MB
 Mega-Array Size       188 MB
 MEM_STATIC part       192 MB
A total of 1 constraints
  
            1
    1   1.0100000
    2   1.0100000
    3   3.0100000
    4   3.3000000
    5   3.3010000
    6   0.1000000
    7   0.0000000
    8   0.0000000
    9   0.0000000
   10   0.0000000

                       Distance Matrix (Angstroms)
             S (  1)   C (  2)   C (  3)   C (  4)   H (  5)   H (  6)
   C (  2)  4.012539
   C (  3)  3.400000  1.494227
   C (  4)  5.535817  1.547439  2.529840
   H (  5)  3.912287  1.097099  2.134978  2.163859
   H (  6)  3.950416  1.096845  2.135129  2.165243  1.760316
   H (  7)  3.634902  2.241696  1.087668  3.032939  2.524455  3.099896
   H (  8)  3.643144  2.243404  1.087547  3.053550  3.096774  2.516508
   H (  9)  5.928356  2.193373  2.800977  1.094531  2.527623  3.082615
   H ( 10)  6.142601  2.186405  3.472231  1.095098  2.488542  2.494245
   H ( 11)  5.957030  2.193780  2.806698  1.094462  3.081824  2.526172
   H ( 12)  1.384750  2.784148  2.015828  4.252826  2.875635  2.901966
             H (  7)   H (  8)   H (  9)   H ( 10)   H ( 11)
   H (  8)  1.844848
   H (  9)  2.902668  3.441969
   H ( 10)  4.004854  4.023877  1.772144
   H ( 11)  3.423625  2.935188  1.769519  1.772427
   H ( 12)  2.346083  2.347932  4.618383  4.965376  4.638873
 
 A cutoff of  1.0D-14 yielded    805 shell pairs
 There are      5162 function pairs
 
 -------------------------------------------------------
 OpenMP Integral Computing Module                       
 Release: version 1.0, May 2013, Q-Chem Inc. Pittsburgh 
 -------------------------------------------------------
 Integral Job Info:
 Integral job number is                      11
 Integral operator is                         1
 short-range coefficients                     0
 long-range coefficients              100000000
 Omega coefficients                           0
 if combine SR and LR in K                    0
 Integral screening is                        0
 Integral computing path is                   2
 max size of driver memory is            800000
 size of driver memory is                593474
 size of scratch memory is             15267112
 max col of scratch BK array               1296
 max len of scratch array in speh3          155
 max len of scratch index in speh4           18
 max int batch size is                      520
 min int batch size is                       52
 fixed nKL is                                52
 max L of basis functions is                  2
 order of int derivative is                   0
 number of shells is                         41
 number of basis is                         104
 number of cartesian basis is               104
 number of contracted shell pairs           805
 number of primitive shell pairs           2828
 maxK2 (contraction) of shell pair           36
 max number of K2 of shell pair               1
 max number of CS2 of shell pair             76
 max number of PS2 of shell pair            258
 mem total for path MDJ                  513036
 -------------------------------------------------------
 Smallest overlap matrix eigenvalue = 6.03E-03

 Scale SEOQF with 1.000000e-01/1.000000e+00/1.000000e+00

 Standard Electronic Orientation quadrupole field applied
 Nucleus-field energy     =     0.0000000185 hartrees
 Guess from superposition of atomic densities
 Warning:  Energy on first SCF cycle will be non-variational
 SAD guess density has 42.000000 electrons

 -----------------------------------------------------------------------
  General SCF calculation program by
  Eric Jon Sundstrom, Paul Horn, Yuezhi Mao, Dmitri Zuev, Alec White,
  David Stuck, Shaama M.S., Shane Yost, Joonho Lee, David Small,
  Daniel Levine, Susi Lehtola, Hugh Burton, Evgeny Epifanovsky
 -----------------------------------------------------------------------
 Exchange:     0.2000 Hartree-Fock + 0.0800 Slater + 0.7200 B88
 Correlation:  0.1900 VWN1RPA + 0.8100 LYP
 Using SG-1 standard quadrature grid
 using 12 threads for integral computing
 -------------------------------------------------------
 OpenMP Integral computing Module                
 Release: version 1.0, May 2013, Q-Chem Inc. Pittsburgh 
 -------------------------------------------------------
 -------------------------------------------------------
 OpenMP BLAS3 based DFT computing Module                
 Release: version 1.0, May 2013, Q-Chem Inc. Pittsburgh 
 -------------------------------------------------------
 A unrestricted SCF calculation will be
 performed using DIIS
 SCF converges when DIIS error is below 1.0e-06
 Alpha HF Exchange    Energy =  -4.32033502470651
 Beta HF Exchange     Energy =  -4.32033502470651
 DFT Correlation      Energy =  -1.85904228753704
 DFT Exchange         Energy = -33.94524322765060
 One-Electron (alpha) Energy = -487.66599188928637
 One-Electron (beta)  Energy = -487.66599188928637
 Total Coulomb        Energy = 366.00534487816196
 ---------------------------------------
  Cycle       Energy         DIIS error
 ---------------------------------------
    1    -517.4368135180      2.80e-02  
 Alpha HF Exchange    Energy =  -4.45221391460574
 Beta HF Exchange     Energy =  -4.26732773188356
 DFT Correlation      Energy =  -1.87760885047936
 DFT Exchange         Energy = -34.57726453706984
 One-Electron (alpha) Energy = -502.63487204075977
 One-Electron (beta)  Energy = -479.20704887963376
 Total Coulomb        Energy = 373.53067876453838
    2    -517.1508762429      3.54e-03  
 Alpha HF Exchange    Energy =  -4.39790227201546
 Beta HF Exchange     Energy =  -4.21831211141983
 DFT Correlation      Energy =  -1.85147424757408
 DFT Exchange         Energy = -34.14134512171226
 One-Electron (alpha) Energy = -499.53576824681551
 One-Electron (beta)  Energy = -476.08291797234466
 Total Coulomb        Energy = 366.75344156869096
    3    -517.1394974562      3.87e-03  
 Alpha HF Exchange    Energy =  -4.42537871476213
 Beta HF Exchange     Energy =  -4.24168747175781
 DFT Correlation      Energy =  -1.86369280681284
 DFT Exchange         Energy = -34.35081564668878
 One-Electron (alpha) Energy = -501.19327402120740
 One-Electron (beta)  Energy = -477.57274401623795
 Total Coulomb        Energy = 370.08485698835165
    4    -517.2279547421      2.76e-04  
 Alpha HF Exchange    Energy =  -4.42736711438704
 Beta HF Exchange     Energy =  -4.24248628911725
 DFT Correlation      Energy =  -1.86372247092666
 DFT Exchange         Energy = -34.36089004098903
 One-Electron (alpha) Energy = -501.28326318666734
 One-Electron (beta)  Energy = -477.58423437658081
 Total Coulomb        Energy = 370.19877797248085
    5    -517.2284045592      1.11e-04  
 Alpha HF Exchange    Energy =  -4.42689110345039
 Beta HF Exchange     Energy =  -4.24207585125553
 DFT Correlation      Energy =  -1.86342227266877
 DFT Exchange         Energy = -34.35697300561616
 One-Electron (alpha) Energy = -501.25872591947348
 One-Electron (beta)  Energy = -477.54456717002785
 Total Coulomb        Energy = 370.12938831818155
    6    -517.2284860573      3.75e-05  
 Alpha HF Exchange    Energy =  -4.42703351589385
 Beta HF Exchange     Energy =  -4.24202774607233
 DFT Correlation      Energy =  -1.86339533158586
 DFT Exchange         Energy = -34.35722797948945
 One-Electron (alpha) Energy = -501.26468345105218
 One-Electron (beta)  Energy = -477.53940742947759
 Total Coulomb        Energy = 370.13049946380266
    7    -517.2284950428      1.30e-05  
 Alpha HF Exchange    Energy =  -4.42710902996461
 Beta HF Exchange     Energy =  -4.24205779821535
 DFT Correlation      Energy =  -1.86339074305732
 DFT Exchange         Energy = -34.35760137237558
 One-Electron (alpha) Energy = -501.27048056456999
 One-Electron (beta)  Energy = -477.53990277767974
 Total Coulomb        Energy = 370.13726505811883
    8    -517.2284962807      4.75e-06  
 Alpha HF Exchange    Energy =  -4.42709995385335
 Beta HF Exchange     Energy =  -4.24203116112824
 DFT Correlation      Energy =  -1.86337947668560
 DFT Exchange         Energy = -34.35745358380071
 One-Electron (alpha) Energy = -501.26935901313743
 One-Electron (beta)  Energy = -477.53760961025267
 Total Coulomb        Energy = 370.13365538263645
    9    -517.2284964692      1.14e-06  
 Alpha HF Exchange    Energy =  -4.42710371252649
 Beta HF Exchange     Energy =  -4.24203183866615
 DFT Correlation      Energy =  -1.86337949666780
 DFT Exchange         Energy = -34.35747156702977
 One-Electron (alpha) Energy = -501.26964070934730
 One-Electron (beta)  Energy = -477.53761047101244
 Total Coulomb        Energy = 370.13396036667461
   10    -517.2284964816      4.37e-07  Convergence criterion met
 ---------------------------------------
 SCF time:   CPU 24.06s  wall 2.00s 
<S^2> =          2.006322702
 Alpha HF Exchange    Energy =  -4.42710371252649
 Beta HF Exchange     Energy =  -4.24203183866615
 DFT Correlation      Energy =  -1.86337949666780
 DFT Exchange         Energy = -34.35747156702977
 One-Electron (alpha) Energy = -501.26964070934730
 One-Electron (beta)  Energy = -477.53761047101244
 Total Coulomb        Energy = 370.13396036667461
 Nuclear repulsion Energy = 136.33478094699751
 SCF   energy in the final basis set =     -517.2284964816
 Total energy in the final basis set =     -517.2284964816
 
 --------------------------------------------------------------
 
                    Orbital Energies (a.u.)
 --------------------------------------------------------------
 
 Alpha MOs
 -- Occupied --
-88.891 -10.210 -10.199 -10.188  -7.953  -5.924  -5.914  -5.905
 -0.795  -0.720  -0.687  -0.595  -0.477  -0.442  -0.408  -0.406
 -0.383  -0.361  -0.345  -0.305  -0.257  -0.221
 -- Virtual --
  0.075   0.096   0.128   0.132   0.146   0.169   0.171   0.202
  0.213   0.255   0.286   0.343   0.346   0.370   0.500   0.511
  0.523   0.543   0.580   0.640   0.669   0.702   0.725   0.750
  0.753   0.756   0.763   0.790   0.844   0.865   0.868   0.897
  0.901   0.938   0.974   1.068   1.183   1.263   1.316   1.379
  1.494   1.548   1.591   1.667   1.798   1.848   1.932   1.936
  2.011   2.042   2.057   2.068   2.088   2.129   2.150   2.215
  2.245   2.276   2.402   2.405   2.450   2.501   2.553   2.668
  2.707   2.731   2.736   2.808   2.829   2.871   2.908   3.175
  3.244   3.333   3.360   3.456   3.472   3.532   3.937   4.258
  4.447   4.614
 
 Beta MOs
 -- Occupied --
-88.885 -10.199 -10.197 -10.187  -7.946  -5.909  -5.906  -5.901
 -0.784  -0.680  -0.665  -0.583  -0.472  -0.434  -0.401  -0.389
 -0.370  -0.356  -0.343  -0.242
 -- Virtual --
 -0.161  -0.081   0.089   0.111   0.134   0.139   0.148   0.172
  0.173   0.206   0.218   0.263   0.304   0.360   0.376   0.382
  0.506   0.524   0.530   0.553   0.584   0.649   0.673   0.745
  0.762   0.765   0.783   0.797   0.809   0.814   0.847   0.869
  0.870   0.902   0.916   0.941   0.978   1.081   1.183   1.276
  1.326   1.401   1.501   1.564   1.611   1.668   1.807   1.854
  1.939   1.964   2.036   2.042   2.058   2.068   2.086   2.139
  2.151   2.216   2.251   2.277   2.408   2.408   2.462   2.509
  2.572   2.674   2.710   2.735   2.740   2.812   2.831   2.872
  2.911   3.177   3.248   3.337   3.362   3.458   3.479   3.534
  3.957   4.271   4.464   4.619
 --------------------------------------------------------------
 
          Ground-State Mulliken Net Atomic Charges

     Atom                 Charge (a.u.)    Spin (a.u.)
  --------------------------------------------------------
      1 S                    -0.096065       1.122496
      2 C                    -0.184503      -0.063144
      3 C                    -0.249299       0.970252
      4 C                    -0.312541       0.048796
      5 H                     0.114385       0.011827
      6 H                     0.113503       0.010096
      7 H                     0.123518      -0.038153
      8 H                     0.123918      -0.038163
      9 H                     0.109812      -0.000999
     10 H                     0.110262       0.013771
     11 H                     0.109954      -0.000876
     12 H                     0.037056      -0.035903
  --------------------------------------------------------
  Sum of atomic charges =    -0.000000
  Sum of spin   charges =     2.000000

 -----------------------------------------------------------------
                    Cartesian Multipole Moments
 -----------------------------------------------------------------
    Charge (ESU x 10^10)
                -0.0000
    Dipole Moment (Debye)
         X      -2.2345      Y      -0.8781      Z       0.1263
       Tot       2.4041
    Quadrupole Moments (Debye-Ang)
        XX     -42.3206     XY      -2.3655     YY     -36.2712
        XZ       1.0581     YZ      -0.0534     ZZ     -32.8044
    Octopole Moments (Debye-Ang^2)
       XXX    -104.4160    XXY     -13.3167    XYY     -29.8710
       YYY     -36.3644    XXZ      10.9000    XYZ      -0.3942
       YYZ       6.4744    XZZ     -22.3648    YZZ     -10.4553
       ZZZ      17.2588
    Hexadecapole Moments (Debye-Ang^3)
      XXXX   -1253.2168   XXXY    -124.2255   XXYY    -228.4396
      XYYY    -134.1596   YYYY    -179.3790   XXXZ      72.2104
      XXYZ       2.7493   XYYZ      17.4928   YYYZ      10.8429
      XXZZ    -195.9369   XYZZ     -36.6563   YYZZ     -37.0504
      XZZZ      50.9400   YZZZ      10.5501   ZZZZ     -69.4396
 -----------------------------------------------------------------
 Calculating analytic gradient of the SCF energy
 Gradient of SCF Energy
            1           2           3           4           5           6
    1  -0.0002324  -0.0000304   0.0003892   0.0000100   0.0000194  -0.0000128
    2  -0.0001061   0.0000028   0.0002638  -0.0000069   0.0000187  -0.0000261
    3  -0.0000407  -0.0000001  -0.0000195   0.0000233  -0.0000188  -0.0000230
            7           8           9          10          11          12
    1  -0.0000180   0.0000263   0.0000038   0.0000012  -0.0000062  -0.0001500
    2  -0.0000114   0.0000137   0.0000136   0.0000070   0.0000019  -0.0001709
    3   0.0000037   0.0000000   0.0000159   0.0000092   0.0000141   0.0000358
 Max gradient component =       3.892E-04
 RMS gradient           =       9.826E-05
 Gradient time:  CPU 7.86 s  wall 0.67 s
 Geometry Optimization Parameters
   NAtoms,    NIC,     NZ,  NCons,   NDum,   NFix, NCnnct, MaxDiis
       12      75       0       1       0       0       0       0


** CONSTRAINED OPTIMIZATION IN DELOCALIZED INTERNAL COORDINATES **
   Searching for a Minimum

   Optimization Cycle:   1

                       Coordinates (Angstroms)
     ATOM                X               Y               Z
      1  S         3.2251810000    0.9847890000   -0.3641500000
      2  C        -0.7343680000    0.4222070000   -0.0386570000
      3  C         0.2595560000   -0.6739180000   -0.2468400000
      4  C        -2.1832400000   -0.1066570000    0.0864070000
      5  H        -0.4873710000    0.9853180000    0.8699270000
      6  H        -0.6895760000    1.1334380000   -0.8724520000
      7  H         0.5608180000   -1.2946030000    0.5940010000
      8  H         0.3786820000   -1.1163460000   -1.2331590000
      9  H        -2.2789390000   -0.7966690000    0.9306360000
     10  H        -2.8815560000    0.7219900000    0.2443250000
     11  H        -2.4878900000   -0.6399220000   -0.8194980000
     12  H         2.0313100000    0.2841720000   -0.3275360000
   Point Group: c1    Number of degrees of freedom:    30


   Energy is   -517.228496482

              Constraints and their Current Values
                                        Value     Constraint
   Distance(Angs):        1   3             3.400000     3.300000

 Attempting to Generate Delocalized Internal Coordinates

   Using Lagrange Multiplier Algorithm


 31 Hessian modes will be used to form the next step
  Hessian Eigenvalues:
    -0.992672    0.045000    0.045000    0.064141    0.068404    0.078305
     0.082859    0.083290    0.088981    0.103486    0.131955    0.136624
     0.160000    0.160000    0.160000    0.160000    0.160015    0.160019
     0.200000    0.200044    0.219407    0.278700    0.329906    0.340050
     0.340334    0.342301    0.342943    0.343020    0.350835    0.350976
     1.007383

 Minimum Search - Taking P-RFO Step
 Searching for Lamda that Maximizes Along the Constraint modes Only
 Value Taken    Lamda =   0.01786592
 Searching for Lamda that Minimizes Along All other modes
 Value Taken    Lamda =  -0.01723287
 Step Taken.  Stepsize is  0.185718

                             Maximum     Tolerance    Cnvgd?
         Gradient            0.188973       0.000300      NO
         Displacement        0.185713       0.001200      NO
         Energy change     *********       0.000001      NO


 New Cartesian Coordinates Obtained by Inverse Iteration

 Displacement from previous Coordinates is:  0.188191
 ----------------------------------------------------------------
             Standard Nuclear Orientation (Angstroms)
    I     Atom           X                Y                Z
 ----------------------------------------------------------------
    1      S       3.1464085286     0.9546445651    -0.3593468835
    2      C      -0.7246501456     0.4270691625    -0.0390691937
    3      C       0.2721976279    -0.6663854463    -0.2472596916
    4      C      -2.1721965396    -0.1055775353     0.0853454357
    5      H      -0.4794271756     0.9905767928     0.8697497029
    6      H      -0.6814628076     1.1386736427    -0.8726354232
    7      H       0.5750575200    -1.2863690612     0.5935225626
    8      H       0.3926467770    -1.1083449893    -1.2336294015
    9      H      -2.2664100063    -0.7960756987     0.9293447994
   10      H      -2.8727057666     0.7212192508     0.2432315430
   11      H      -2.4751359842    -0.6393901401    -0.8208127677
   12      H       1.9982849720     0.2737584571    -0.3254366825
 ----------------------------------------------------------------
 Nuclear Repulsion Energy =   137.8273612083 hartrees
 There are       22 alpha and       20 beta electrons

                       Distance Matrix (Angstroms)
             S (  1)   C (  2)   C (  3)   C (  4)   H (  5)   H (  6)
   C (  2)  3.919950
   C (  3)  3.301725  1.494219
   C (  4)  5.441450  1.547444  2.529861
   H (  5)  3.828662  1.097099  2.134988  2.163865
   H (  6)  3.866514  1.096849  2.135135  2.165219  1.760300
   H (  7)  3.541461  2.241714  1.087667  3.033137  2.524425  3.099886
   H (  8)  3.550141  2.243395  1.087548  3.053467  3.096803  2.516569
   H (  9)  5.833040  2.193384  2.801026  1.094531  2.527644  3.082604
   H ( 10)  6.053703  2.186404  3.472239  1.095095  2.488546  2.494188
   H ( 11)  5.861370  2.193777  2.806694  1.094464  3.081825  2.526155
   H ( 12)  1.335269  2.742241  1.967069  4.207797  2.842773  2.868545
             H (  7)   H (  8)   H (  9)   H ( 10)   H ( 11)
   H (  8)  1.844844
   H (  9)  2.902947  3.441882
   H ( 10)  4.005020  4.023798  1.772154
   H ( 11)  3.423829  2.935049  1.769511  1.772431
   H ( 12)  2.303055  2.305016  4.572378  4.924445  4.592465
 
 Applying Cartesian multipole field
    Component          Value
    ---------          -----
     (2,0,0)        1.00000E-11
     (0,2,0)        2.00000E-10
     (0,0,2)       -3.00000E-10
 Nucleus-field energy     =     0.0000000176 hartrees
 Requested basis set is 6-31G(d,p)
 There are 41 shells and 104 basis functions
 A cutoff of  1.0D-14 yielded    809 shell pairs
 There are      5211 function pairs
 Smallest overlap matrix eigenvalue = 5.97E-03
 Guess from superposition of atomic densities
 Warning:  Energy on first SCF cycle will be non-variational
 SAD guess density has 42.000000 electrons

 -----------------------------------------------------------------------
  General SCF calculation program by
  Eric Jon Sundstrom, Paul Horn, Yuezhi Mao, Dmitri Zuev, Alec White,
  David Stuck, Shaama M.S., Shane Yost, Joonho Lee, David Small,
  Daniel Levine, Susi Lehtola, Hugh Burton, Evgeny Epifanovsky
 -----------------------------------------------------------------------
 Exchange:     0.2000 Hartree-Fock + 0.0800 Slater + 0.7200 B88
 Correlation:  0.1900 VWN1RPA + 0.8100 LYP
 Using SG-1 standard quadrature grid
 using 12 threads for integral computing
 -------------------------------------------------------
 OpenMP Integral computing Module                
 Release: version 1.0, May 2013, Q-Chem Inc. Pittsburgh 
 -------------------------------------------------------
 -------------------------------------------------------
 OpenMP BLAS3 based DFT computing Module                
 Release: version 1.0, May 2013, Q-Chem Inc. Pittsburgh 
 -------------------------------------------------------
 A unrestricted SCF calculation will be
 performed using DIIS
 SCF converges when DIIS error is below 1.0e-06
 Alpha HF Exchange    Energy =  -4.32350506257174
 Beta HF Exchange     Energy =  -4.32350506257174
 DFT Correlation      Energy =  -1.86018415650715
 DFT Exchange         Energy = -33.95249978498877
 One-Electron (alpha) Energy = -489.13743620933570
 One-Electron (beta)  Energy = -489.13743620933570
 Total Coulomb        Energy = 367.44213489941421
 ---------------------------------------
  Cycle       Energy         DIIS error
 ---------------------------------------
    1    -517.4650703600      2.82e-02  
 Alpha HF Exchange    Energy =  -4.45462652705807
 Beta HF Exchange     Energy =  -4.26903283377915
 DFT Correlation      Energy =  -1.87881899296683
 DFT Exchange         Energy = -34.59188187301454
 One-Electron (alpha) Energy = -504.22921501769423
 One-Electron (beta)  Energy = -480.61330968829793
 Total Coulomb        Energy = 375.06012205820718
    2    -517.1494016488      3.54e-03  
 Alpha HF Exchange    Energy =  -4.40026295391874
 Beta HF Exchange     Energy =  -4.21993064226016
 DFT Correlation      Energy =  -1.85262154290808
 DFT Exchange         Energy = -34.15470816996802
 One-Electron (alpha) Energy = -501.10964854028691
 One-Electron (beta)  Energy = -477.47637756869892
 Total Coulomb        Energy = 368.24779677832055
    3    -517.1383914139      3.87e-03  
 Alpha HF Exchange    Energy =  -4.42757974470112
 Beta HF Exchange     Energy =  -4.24327218675743
 DFT Correlation      Energy =  -1.86483914666838
 DFT Exchange         Energy = -34.36383191095787
 One-Electron (alpha) Energy = -502.76917291521988
 One-Electron (beta)  Energy = -478.96862552252412
 Total Coulomb        Energy = 371.58329617833266
    4    -517.2266640226      2.75e-04  
 Alpha HF Exchange    Energy =  -4.42956672236013
 Beta HF Exchange     Energy =  -4.24407322144517
 DFT Correlation      Energy =  -1.86486861436208
 DFT Exchange         Energy = -34.37394014050409
 One-Electron (alpha) Energy = -502.85820479416884
 One-Electron (beta)  Energy = -478.98030556077492
 Total Coulomb        Energy = 371.69649346247826
    5    -517.2271043653      1.12e-04  
 Alpha HF Exchange    Energy =  -4.42910693148723
 Beta HF Exchange     Energy =  -4.24370603968828
 DFT Correlation      Energy =  -1.86457999601235
 DFT Exchange         Energy = -34.37025772049951
 One-Electron (alpha) Energy = -502.83551971713945
 One-Electron (beta)  Energy = -478.94319561757362
 Total Coulomb        Energy = 371.63182112804128
    6    -517.2271836685      3.89e-05  
 Alpha HF Exchange    Energy =  -4.42922512974627
 Beta HF Exchange     Energy =  -4.24363888259549
 DFT Correlation      Energy =  -1.86454966635698
 DFT Exchange         Energy = -34.37035478329356
 One-Electron (alpha) Energy = -502.83978888586222
 One-Electron (beta)  Energy = -478.93725465686606
 Total Coulomb        Energy = 371.63025782634469
    7    -517.2271929525      1.30e-05  
 Alpha HF Exchange    Energy =  -4.42930279253312
 Beta HF Exchange     Energy =  -4.24367458823173
 DFT Correlation      Energy =  -1.86454584519244
 DFT Exchange         Energy = -34.37075820213675
 One-Electron (alpha) Energy = -502.84569054570369
 One-Electron (beta)  Energy = -478.93801484781955
 Total Coulomb        Energy = 371.63743136709292
    8    -517.2271942287      4.39e-06  
 Alpha HF Exchange    Energy =  -4.42929430911351
 Beta HF Exchange     Energy =  -4.24364924003475
 DFT Correlation      Energy =  -1.86453514004001
 DFT Exchange         Energy = -34.37061845704238
 One-Electron (alpha) Energy = -502.84466041496086
 One-Electron (beta)  Energy = -478.93589497364900
 Total Coulomb        Energy = 371.63409691342616
    9    -517.2271943956      1.13e-06  
 Alpha HF Exchange    Energy =  -4.42929707960113
 Beta HF Exchange     Energy =  -4.24364991465712
 DFT Correlation      Energy =  -1.86453493991464
 DFT Exchange         Energy = -34.37063233827389
 One-Electron (alpha) Energy = -502.84485374412952
 One-Electron (beta)  Energy = -478.93587123945758
 Total Coulomb        Energy = 371.63428362351954
   10    -517.2271944067      5.44e-07  Convergence criterion met
 ---------------------------------------
 SCF time:   CPU 24.84s  wall 2.00s 
<S^2> =          2.006103803
 Alpha HF Exchange    Energy =  -4.42929707960113
 Beta HF Exchange     Energy =  -4.24364991465712
 DFT Correlation      Energy =  -1.86453493991464
 DFT Exchange         Energy = -34.37063233827389
 One-Electron (alpha) Energy = -502.84485374412952
 One-Electron (beta)  Energy = -478.93587123945758
 Total Coulomb        Energy = 371.63428362351954
 Nuclear repulsion Energy = 137.82736122585220
 SCF   energy in the final basis set =     -517.2271944067
 Total energy in the final basis set =     -517.2271944067
 
 --------------------------------------------------------------
 
                    Orbital Energies (a.u.)
 --------------------------------------------------------------
 
 Alpha MOs
 -- Occupied --
-88.889 -10.208 -10.198 -10.188  -7.951  -5.923  -5.913  -5.904
 -0.795  -0.727  -0.686  -0.595  -0.476  -0.442  -0.411  -0.406
 -0.384  -0.361  -0.345  -0.305  -0.258  -0.220
 -- Virtual --
  0.087   0.097   0.129   0.132   0.145   0.169   0.171   0.202
  0.213   0.255   0.283   0.343   0.351   0.370   0.500   0.511
  0.523   0.544   0.580   0.640   0.673   0.696   0.736   0.749
  0.753   0.756   0.766   0.793   0.845   0.866   0.869   0.897
  0.905   0.939   0.975   1.087   1.204   1.272   1.322   1.379
  1.498   1.548   1.593   1.668   1.799   1.849   1.932   1.936
  2.012   2.042   2.058   2.073   2.098   2.134   2.162   2.215
  2.249   2.277   2.403   2.408   2.459   2.503   2.553   2.670
  2.707   2.734   2.791   2.828   2.830   2.871   2.908   3.176
  3.244   3.333   3.361   3.456   3.473   3.533   3.941   4.261
  4.450   4.616
 
 Beta MOs
 -- Occupied --
-88.883 -10.199 -10.195 -10.186  -7.945  -5.907  -5.904  -5.900
 -0.784  -0.686  -0.665  -0.583  -0.472  -0.434  -0.401  -0.391
 -0.372  -0.356  -0.343  -0.242
 -- Virtual --
 -0.162  -0.078   0.093   0.118   0.134   0.142   0.148   0.172
  0.173   0.206   0.218   0.263   0.301   0.365   0.376   0.382
  0.507   0.525   0.531   0.554   0.585   0.649   0.676   0.739
  0.761   0.773   0.785   0.803   0.809   0.814   0.847   0.870
  0.871   0.902   0.920   0.942   0.979   1.098   1.206   1.284
  1.333   1.401   1.506   1.565   1.613   1.668   1.808   1.854
  1.940   1.963   2.037   2.042   2.059   2.073   2.098   2.142
  2.163   2.217   2.254   2.278   2.410   2.411   2.471   2.512
  2.572   2.675   2.711   2.738   2.794   2.832   2.833   2.873
  2.911   3.177   3.248   3.337   3.362   3.458   3.480   3.534
  3.961   4.273   4.466   4.621
 --------------------------------------------------------------
 
          Ground-State Mulliken Net Atomic Charges

     Atom                 Charge (a.u.)    Spin (a.u.)
  --------------------------------------------------------
      1 S                    -0.092291       1.119199
      2 C                    -0.182786      -0.063101
      3 C                    -0.256229       0.971777
      4 C                    -0.312195       0.048409
      5 H                     0.113958       0.011872
      6 H                     0.113070       0.010153
      7 H                     0.123660      -0.038055
      8 H                     0.124058      -0.038065
      9 H                     0.109617      -0.000992
     10 H                     0.109818       0.013910
     11 H                     0.109756      -0.000873
     12 H                     0.039563      -0.034235
  --------------------------------------------------------
  Sum of atomic charges =     0.000000
  Sum of spin   charges =     2.000000

 -----------------------------------------------------------------
                    Cartesian Multipole Moments
 -----------------------------------------------------------------
    Charge (ESU x 10^10)
                -0.0000
    Dipole Moment (Debye)
         X      -2.1696      Y      -0.8618      Z       0.1208
       Tot       2.3376
    Quadrupole Moments (Debye-Ang)
        XX     -42.0747     XY      -2.3211     YY     -36.2236
        XZ       1.0329     YZ      -0.0617     ZZ     -32.7537
    Octopole Moments (Debye-Ang^2)
       XXX    -100.4232    XXY     -12.8321    XYY     -28.7223
       YYY     -35.1541    XXZ      10.6896    XYZ      -0.3911
       YYZ       6.4131    XZZ     -21.4517    YZZ     -10.1424
       ZZZ      17.0600
    Hexadecapole Moments (Debye-Ang^3)
      XXXX   -1204.0640   XXXY    -116.7966   XXYY    -219.6032
      XYYY    -126.1906   YYYY    -173.8679   XXXZ      69.5082
      XXYZ       2.5909   XYYZ      16.8958   YYYZ      10.2113
      XXZZ    -188.9042   XYZZ     -34.4603   YYZZ     -36.2491
      XZZZ      49.1542   YZZZ       9.9829   ZZZZ     -69.0826
 -----------------------------------------------------------------
 Calculating analytic gradient of the SCF energy
 Gradient of SCF Energy
            1           2           3           4           5           6
    1  -0.0219104   0.0002674   0.0022102  -0.0000299   0.0000004  -0.0000239
    2  -0.0128965   0.0002049   0.0013172  -0.0001252  -0.0000299  -0.0000754
    3   0.0006731  -0.0000266  -0.0000760   0.0000208  -0.0000228  -0.0000207
            7           8           9          10          11          12
    1   0.0001017   0.0001421  -0.0000037   0.0000463  -0.0000126   0.0192126
    2   0.0001318   0.0001493   0.0000147   0.0000065   0.0000032   0.0112996
    3  -0.0000142   0.0000180   0.0000161   0.0000036   0.0000156  -0.0005870
 Max gradient component =       2.191E-02
 RMS gradient           =       5.654E-03
 Gradient time:  CPU 7.90 s  wall 0.66 s
 Geometry Optimization Parameters
   NAtoms,    NIC,     NZ,  NCons,   NDum,   NFix, NCnnct, MaxDiis
       12      75       0       1       0       0       0       0

 Cartesian Hessian Update
 Hessian Updated using BFGS Update


** CONSTRAINED OPTIMIZATION IN DELOCALIZED INTERNAL COORDINATES **
   Searching for a Minimum

   Optimization Cycle:   2

                       Coordinates (Angstroms)
     ATOM                X               Y               Z
      1  S         3.1464085286    0.9546445651   -0.3593468835
      2  C        -0.7246501456    0.4270691625   -0.0390691937
      3  C         0.2721976279   -0.6663854463   -0.2472596916
      4  C        -2.1721965396   -0.1055775353    0.0853454357
      5  H        -0.4794271756    0.9905767928    0.8697497029
      6  H        -0.6814628076    1.1386736427   -0.8726354232
      7  H         0.5750575200   -1.2863690612    0.5935225626
      8  H         0.3926467770   -1.1083449893   -1.2336294015
      9  H        -2.2664100063   -0.7960756987    0.9293447994
     10  H        -2.8727057666    0.7212192508    0.2432315430
     11  H        -2.4751359842   -0.6393901401   -0.8208127677
     12  H         1.9982849720    0.2737584571   -0.3254366825
   Point Group: c1    Number of degrees of freedom:    30


   Energy is   -517.227194407

              Constraints and their Current Values
                                        Value     Constraint
   Distance(Angs):        1   3             3.301725     3.300000
 Hessian Updated using BFGS Update

   Using Lagrange Multiplier Algorithm


 29 Hessian modes will be used to form the next step
  Hessian Eigenvalues:
    -0.966308    0.044998    0.045000    0.064149    0.068404    0.078305
     0.082859    0.083290    0.088981    0.103486    0.131955    0.159990
     0.159999    0.160015    0.160019    0.199418    0.199997    0.219352
     0.233066    0.278702    0.329931    0.340050    0.340335    0.342302
     0.342943    0.343020    0.350837    0.350979    1.042546

 Minimum Search - Taking P-RFO Step
 Searching for Lamda that Maximizes Along the Constraint modes Only
 Value Taken    Lamda =   0.00009136
 Searching for Lamda that Minimizes Along All other modes
 Value Taken    Lamda =  -0.00111211
 Step Taken.  Stepsize is  0.068314

                             Maximum     Tolerance    Cnvgd?
         Gradient            0.012954       0.000300      NO
         Displacement        0.056529       0.001200      NO
         Energy change      0.001302       0.000001      NO


 New Cartesian Coordinates Obtained by Inverse Iteration

 Displacement from previous Coordinates is:  0.046804
 ----------------------------------------------------------------
             Standard Nuclear Orientation (Angstroms)
    I     Atom           X                Y                Z
 ----------------------------------------------------------------
    1      S       3.1459348243     0.9581276699    -0.3592668198
    2      C      -0.7227083763     0.4277390602    -0.0389785717
    3      C       0.2749818251    -0.6651660328    -0.2472245879
    4      C      -2.1701353985    -0.1051795629     0.0850591668
    5      H      -0.4778350600     0.9913208307     0.8699257634
    6      H      -0.6796908662     1.1395834659    -0.8723954311
    7      H       0.5778241723    -1.2852876268     0.5935318458
    8      H       0.3950420367    -1.1074815505    -1.2335421180
    9      H      -2.2643276997    -0.7958577814     0.9289124040
   10      H      -2.8710422867     0.7213241697     0.2428858959
   11      H      -2.4726559314    -0.6389679629    -0.8212584441
   12      H       1.9772197603     0.2636443209    -0.3246451034
 ----------------------------------------------------------------
 Nuclear Repulsion Energy =   137.7756012203 hartrees
 There are       22 alpha and       20 beta electrons

                       Distance Matrix (Angstroms)
             S (  1)   C (  2)   C (  3)   C (  4)   H (  5)   H (  6)
   C (  2)  3.917945
   C (  3)  3.300001  1.494387
   C (  4)  5.439545  1.547395  2.530335
   H (  5)  3.826712  1.097130  2.135113  2.163841
   H (  6)  3.864148  1.096885  2.135266  2.165082  1.760230
   H (  7)  3.540612  2.241855  1.087720  3.033559  2.524630  3.100046
   H (  8)  3.549438  2.243491  1.087603  3.053433  3.097009  2.516899
   H (  9)  5.831536  2.193306  2.801512  1.094530  2.527656  3.082485
   H ( 10)  6.051667  2.186545  3.472756  1.095120  2.488678  2.494156
   H ( 11)  5.859412  2.193660  2.807083  1.094468  3.081762  2.525982
   H ( 12)  1.359927  2.719953  1.940695  4.183831  2.825563  2.850697
             H (  7)   H (  8)   H (  9)   H ( 10)   H ( 11)
   H (  8)  1.844783
   H (  9)  2.903420  3.441739
   H ( 10)  4.005512  4.023888  1.772167
   H ( 11)  3.424148  2.934821  1.769495  1.772430
   H ( 12)  2.280471  2.282404  4.548041  4.902775  4.567573
 
 Applying Cartesian multipole field
    Component          Value
    ---------          -----
     (2,0,0)        1.00000E-11
     (0,2,0)        2.00000E-10
     (0,0,2)       -3.00000E-10
 Nucleus-field energy     =     0.0000000176 hartrees
 Requested basis set is 6-31G(d,p)
 There are 41 shells and 104 basis functions
 A cutoff of  1.0D-14 yielded    809 shell pairs
 There are      5211 function pairs
 Smallest overlap matrix eigenvalue = 5.96E-03
 Guess from superposition of atomic densities
 Warning:  Energy on first SCF cycle will be non-variational
 SAD guess density has 42.000000 electrons

 -----------------------------------------------------------------------
  General SCF calculation program by
  Eric Jon Sundstrom, Paul Horn, Yuezhi Mao, Dmitri Zuev, Alec White,
  David Stuck, Shaama M.S., Shane Yost, Joonho Lee, David Small,
  Daniel Levine, Susi Lehtola, Hugh Burton, Evgeny Epifanovsky
 -----------------------------------------------------------------------
 Exchange:     0.2000 Hartree-Fock + 0.0800 Slater + 0.7200 B88
 Correlation:  0.1900 VWN1RPA + 0.8100 LYP
 Using SG-1 standard quadrature grid
 using 12 threads for integral computing
 -------------------------------------------------------
 OpenMP Integral computing Module                
 Release: version 1.0, May 2013, Q-Chem Inc. Pittsburgh 
 -------------------------------------------------------
 -------------------------------------------------------
 OpenMP BLAS3 based DFT computing Module                
 Release: version 1.0, May 2013, Q-Chem Inc. Pittsburgh 
 -------------------------------------------------------
 A unrestricted SCF calculation will be
 performed using DIIS
 SCF converges when DIIS error is below 1.0e-06
 Alpha HF Exchange    Energy =  -4.32264832385916
 Beta HF Exchange     Energy =  -4.32264832385916
 DFT Correlation      Energy =  -1.86007763469059
 DFT Exchange         Energy = -33.95021552365540
 One-Electron (alpha) Energy = -489.09637339134366
 One-Electron (beta)  Energy = -489.09637339134366
 Total Coulomb        Energy = 367.41627103107692
 ---------------------------------------
  Cycle       Energy         DIIS error
 ---------------------------------------
    1    -517.4564643197      2.81e-02  
 Alpha HF Exchange    Energy =  -4.45365913199665
 Beta HF Exchange     Energy =  -4.26791409893272
 DFT Correlation      Energy =  -1.87868179782737
 DFT Exchange         Energy = -34.58522173445620
 One-Electron (alpha) Energy = -504.17854878357184
 One-Electron (beta)  Energy = -480.55093700543455
 Total Coulomb        Energy = 374.98912931844211
    2    -517.1502319958      3.54e-03  
 Alpha HF Exchange    Energy =  -4.39953764314096
 Beta HF Exchange     Energy =  -4.21905197604254
 DFT Correlation      Energy =  -1.85255668204618
 DFT Exchange         Energy = -34.14989916089959
 One-Electron (alpha) Energy = -501.07749531520892
 One-Electron (beta)  Energy = -477.42718020184276
 Total Coulomb        Energy = 368.21153172167186
    3    -517.1385880196      3.88e-03  
 Alpha HF Exchange    Energy =  -4.42676547576071
 Beta HF Exchange     Energy =  -4.24226128091488
 DFT Correlation      Energy =  -1.86474936069799
 DFT Exchange         Energy = -34.35808073766741
 One-Electron (alpha) Energy = -502.72692011555148
 One-Electron (beta)  Energy = -478.91048328608451
 Total Coulomb        Energy = 371.52623855684180
    4    -517.2274204619      2.77e-04  
 Alpha HF Exchange    Energy =  -4.42879515109121
 Beta HF Exchange     Energy =  -4.24312987956442
 DFT Correlation      Energy =  -1.86478622798971
 DFT Exchange         Energy = -34.36856943344610
 One-Electron (alpha) Energy = -502.82018341764245
 One-Electron (beta)  Energy = -478.92525391008041
 Total Coulomb        Energy = 371.64723716152224
    5    -517.2278796203      1.11e-04  
 Alpha HF Exchange    Energy =  -4.42832247664032
 Beta HF Exchange     Energy =  -4.24271929042987
 DFT Correlation      Energy =  -1.86448808348534
 DFT Exchange         Energy = -34.36465115704480
 One-Electron (alpha) Energy = -502.79541397485855
 One-Electron (beta)  Energy = -478.88561539012773
 Total Coulomb        Energy = 371.57764877948000
    6    -517.2279603552      3.73e-05  
 Alpha HF Exchange    Energy =  -4.42845455542666
 Beta HF Exchange     Energy =  -4.24267297970731
 DFT Correlation      Energy =  -1.86445992986294
 DFT Exchange         Energy = -34.36487286144916
 One-Electron (alpha) Energy = -502.80079260290267
 One-Electron (beta)  Energy = -478.88041762219245
 Total Coulomb        Energy = 371.57810021847314
    7    -517.2279690951      1.32e-05  
 Alpha HF Exchange    Energy =  -4.42853031304538
 Beta HF Exchange     Energy =  -4.24270539894055
 DFT Correlation      Energy =  -1.86445596012903
 DFT Exchange         Energy = -34.36525603073505
 One-Electron (alpha) Energy = -502.80660096165286
 One-Electron (beta)  Energy = -478.88113853911216
 Total Coulomb        Energy = 371.58511560574595
    8    -517.2279703599      4.61e-06  
 Alpha HF Exchange    Energy =  -4.42852051581360
 Beta HF Exchange     Energy =  -4.24267980934333
 DFT Correlation      Energy =  -1.86444472988130
 DFT Exchange         Energy = -34.36510906511497
 One-Electron (alpha) Energy = -502.80544329049872
 One-Electron (beta)  Energy = -478.87889873763606
 Total Coulomb        Energy = 371.58152437280512
    9    -517.2279705375      1.07e-06  
 Alpha HF Exchange    Energy =  -4.42852429291925
 Beta HF Exchange     Energy =  -4.24268059098047
 DFT Correlation      Energy =  -1.86444479951299
 DFT Exchange         Energy = -34.36512768796582
 One-Electron (alpha) Energy = -502.80571812439791
 One-Electron (beta)  Energy = -478.87891980509045
 Total Coulomb        Energy = 371.58184351415485
   10    -517.2279705488      4.12e-07  Convergence criterion met
 ---------------------------------------
 SCF time:   CPU 22.70s  wall 2.00s 
<S^2> =          2.006270955
 Alpha HF Exchange    Energy =  -4.42852429291925
 Beta HF Exchange     Energy =  -4.24268059098047
 DFT Correlation      Energy =  -1.86444479951299
 DFT Exchange         Energy = -34.36512768796582
 One-Electron (alpha) Energy = -502.80571812439791
 One-Electron (beta)  Energy = -478.87891980509045
 Total Coulomb        Energy = 371.58184351415485
 Nuclear repulsion Energy = 137.77560123795567
 SCF   energy in the final basis set =     -517.2279705488
 Total energy in the final basis set =     -517.2279705488
 
 --------------------------------------------------------------
 
                    Orbital Energies (a.u.)
 --------------------------------------------------------------
 
 Alpha MOs
 -- Occupied --
-88.889 -10.210 -10.199 -10.188  -7.951  -5.922  -5.913  -5.903
 -0.796  -0.723  -0.687  -0.595  -0.477  -0.443  -0.410  -0.406
 -0.383  -0.361  -0.345  -0.305  -0.257  -0.220
 -- Virtual --
  0.085   0.096   0.129   0.131   0.145   0.169   0.171   0.201
  0.213   0.254   0.285   0.344   0.350   0.370   0.500   0.511
  0.523   0.544   0.580   0.640   0.672   0.698   0.737   0.751
  0.754   0.757   0.766   0.795   0.844   0.866   0.868   0.897
  0.904   0.939   0.974   1.082   1.194   1.271   1.324   1.377
  1.498   1.548   1.592   1.667   1.798   1.847   1.929   1.934
  2.011   2.042   2.057   2.070   2.095   2.131   2.162   2.215
  2.248   2.277   2.403   2.407   2.458   2.501   2.552   2.669
  2.707   2.734   2.773   2.817   2.830   2.871   2.907   3.175
  3.243   3.332   3.360   3.455   3.473   3.532   3.941   4.261
  4.450   4.616
 
 Beta MOs
 -- Occupied --
-88.883 -10.199 -10.197 -10.187  -7.945  -5.907  -5.904  -5.900
 -0.785  -0.683  -0.665  -0.584  -0.472  -0.435  -0.402  -0.390
 -0.370  -0.356  -0.344  -0.241
 -- Virtual --
 -0.161  -0.081   0.092   0.116   0.134   0.142   0.148   0.172
  0.173   0.206   0.218   0.262   0.303   0.365   0.376   0.382
  0.507   0.524   0.530   0.553   0.584   0.649   0.676   0.740
  0.764   0.773   0.787   0.805   0.810   0.815   0.847   0.870
  0.871   0.901   0.920   0.941   0.978   1.094   1.195   1.283
  1.334   1.399   1.506   1.564   1.612   1.668   1.807   1.853
  1.937   1.961   2.035   2.042   2.058   2.070   2.094   2.140
  2.162   2.216   2.253   2.278   2.410   2.410   2.470   2.509
  2.571   2.675   2.710   2.738   2.776   2.822   2.832   2.872
  2.911   3.177   3.247   3.336   3.362   3.458   3.479   3.534
  3.961   4.272   4.466   4.622
 --------------------------------------------------------------
 
          Ground-State Mulliken Net Atomic Charges

     Atom                 Charge (a.u.)    Spin (a.u.)
  --------------------------------------------------------
      1 S                    -0.094215       1.132453
      2 C                    -0.182292      -0.062268
      3 C                    -0.256136       0.961049
      4 C                    -0.312488       0.048014
      5 H                     0.114560       0.011760
      6 H                     0.113670       0.010087
      7 H                     0.125135      -0.037448
      8 H                     0.125515      -0.037457
      9 H                     0.109788      -0.000992
     10 H                     0.110217       0.013766
     11 H                     0.109921      -0.000878
     12 H                     0.036325      -0.038084
  --------------------------------------------------------
  Sum of atomic charges =     0.000000
  Sum of spin   charges =     2.000000

 -----------------------------------------------------------------
                    Cartesian Multipole Moments
 -----------------------------------------------------------------
    Charge (ESU x 10^10)
                 0.0000
    Dipole Moment (Debye)
         X      -2.2245      Y      -0.8857      Z       0.1243
       Tot       2.3976
    Quadrupole Moments (Debye-Ang)
        XX     -42.1958     XY      -2.3583     YY     -36.2360
        XZ       1.0478     YZ      -0.0513     ZZ     -32.7713
    Octopole Moments (Debye-Ang^2)
       XXX    -101.0372    XXY     -12.9454    XYY     -28.8407
       YYY     -35.4025    XXZ      10.7378    XYZ      -0.3764
       YYZ       6.4238    XZZ     -21.5560    YZZ     -10.2183
       ZZZ      17.0839
    Hexadecapole Moments (Debye-Ang^3)
      XXXX   -1204.4275   XXXY    -117.3411   XXYY    -219.6674
      XYYY    -126.6752   YYYY    -174.4197   XXXZ      69.5891
      XXYZ       2.6486   XYYZ      16.9164   YYYZ      10.2816
      XXZZ    -188.9047   XYZZ     -34.6046   YYZZ     -36.3186
      XZZZ      49.1862   YZZZ      10.0521   ZZZZ     -69.0986
 -----------------------------------------------------------------
 Calculating analytic gradient of the SCF energy
 Gradient of SCF Energy
            1           2           3           4           5           6
    1  -0.0122065   0.0003657   0.0013193  -0.0000647  -0.0000248  -0.0000634
    2  -0.0071544   0.0000304   0.0007653   0.0000160   0.0000251  -0.0000198
    3   0.0003813  -0.0000491  -0.0000423   0.0000378   0.0000183  -0.0000445
            7           8           9          10          11          12
    1   0.0002524   0.0002802   0.0000166  -0.0000262   0.0000093   0.0101422
    2   0.0002046   0.0002284   0.0000146   0.0000088   0.0000025   0.0058784
    3   0.0000173  -0.0000266   0.0000112   0.0000112   0.0000124  -0.0003270
 Max gradient component =       1.221E-02
 RMS gradient           =       3.076E-03
 Gradient time:  CPU 8.15 s  wall 0.71 s
 Geometry Optimization Parameters
   NAtoms,    NIC,     NZ,  NCons,   NDum,   NFix, NCnnct, MaxDiis
       12      75       0       1       0       0       0       0

 Cartesian Hessian Update
 Hessian Updated using BFGS Update


** CONSTRAINED OPTIMIZATION IN DELOCALIZED INTERNAL COORDINATES **
   Searching for a Minimum

   Optimization Cycle:   3

                       Coordinates (Angstroms)
     ATOM                X               Y               Z
      1  S         3.1459348243    0.9581276699   -0.3592668198
      2  C        -0.7227083763    0.4277390602   -0.0389785717
      3  C         0.2749818251   -0.6651660328   -0.2472245879
      4  C        -2.1701353985   -0.1051795629    0.0850591668
      5  H        -0.4778350600    0.9913208307    0.8699257634
      6  H        -0.6796908662    1.1395834659   -0.8723954311
      7  H         0.5778241723   -1.2852876268    0.5935318458
      8  H         0.3950420367   -1.1074815505   -1.2335421180
      9  H        -2.2643276997   -0.7958577814    0.9289124040
     10  H        -2.8710422867    0.7213241697    0.2428858959
     11  H        -2.4726559314   -0.6389679629   -0.8212584441
     12  H         1.9772197603    0.2636443209   -0.3246451034
   Point Group: c1    Number of degrees of freedom:    30


   Energy is   -517.227970549

              Constraints and their Current Values
                                        Value     Constraint
   Distance(Angs):        1   3             3.300001     3.300000
 Hessian Updated using BFGS Update

   Using Lagrange Multiplier Algorithm


 30 Hessian modes will be used to form the next step
  Hessian Eigenvalues:
    -0.946254    0.044986    0.045000    0.063714    0.068403    0.078306
     0.082857    0.083290    0.088981    0.103387    0.113604    0.131955
     0.159996    0.160000    0.160014    0.160015    0.160168    0.199996
     0.200058    0.219493    0.278701    0.329902    0.340057    0.340340
     0.342307    0.342943    0.343020    0.350834    0.350976    1.066077

 Minimum Search - Taking P-RFO Step
 Searching for Lamda that Maximizes Along the Constraint modes Only
 Value Taken    Lamda =   0.00000071
 Searching for Lamda that Minimizes Along All other modes
 Value Taken    Lamda =  -0.00061114
 Step Taken.  Stepsize is  0.073969

                             Maximum     Tolerance    Cnvgd?
         Gradient            0.006986       0.000300      NO
         Displacement        0.065904       0.001200      NO
         Energy change     -0.000776       0.000001      NO


 New Cartesian Coordinates Obtained by Inverse Iteration

 Displacement from previous Coordinates is:  0.047720
 ----------------------------------------------------------------
             Standard Nuclear Orientation (Angstroms)
    I     Atom           X                Y                Z
 ----------------------------------------------------------------
    1      S       3.1485075902     0.9616118846    -0.3600501051
    2      C      -0.7209843355     0.4294994044    -0.0385469095
    3      C       0.2780310879    -0.6624457967    -0.2468448740
    4      C      -2.1674862165    -0.1056205683     0.0844882658
    5      H      -0.4765651897     0.9929645511     0.8704284754
    6      H      -0.6779022708     1.1416198785    -0.8716234582
    7      H       0.5778721407    -1.2842646819     0.5938253169
    8      H       0.3945608407    -1.1069321866    -1.2326900450
    9      H      -2.2615193890    -0.7967131094     0.9280417303
   10      H      -2.8691109943     0.7201758096     0.2421914342
   11      H      -2.4690966863    -0.6394322331    -0.8221430238
   12      H       1.9563004226     0.2533360478    -0.3240728069
 ----------------------------------------------------------------
 Nuclear Repulsion Energy =   137.6924321875 hartrees
 There are       22 alpha and       20 beta electrons

                       Distance Matrix (Angstroms)
             S (  1)   C (  2)   C (  3)   C (  4)   H (  5)   H (  6)
   C (  2)  3.919117
   C (  3)  3.300002  1.494578
   C (  4)  5.440256  1.547210  2.529899
   H (  5)  3.828343  1.097028  2.134970  2.164210
   H (  6)  3.864650  1.096808  2.135137  2.165322  1.759937
   H (  7)  3.544292  2.241408  1.087791  3.030779  2.524702  3.099907
   H (  8)  3.553111  2.242998  1.087676  3.049864  3.097020  2.517247
   H (  9)  5.832605  2.193431  2.801375  1.094547  2.528305  3.082819
   H ( 10)  6.052497  2.185808  3.472075  1.095028  2.488648  2.493911
   H ( 11)  5.859552  2.193749  2.806815  1.094488  3.082158  2.526455
   H ( 12)  1.387194  2.698224  1.913428  4.159494  2.809398  2.833352
             H (  7)   H (  8)   H (  9)   H ( 10)   H ( 11)
   H (  8)  1.844236
   H (  9)  2.900267  3.437988
   H ( 10)  4.002889  4.020591  1.772148
   H ( 11)  3.421227  2.930467  1.769455  1.772386
   H ( 12)  2.259827  2.261625  4.523317  4.880901  4.541943
 
 Applying Cartesian multipole field
    Component          Value
    ---------          -----
     (2,0,0)        1.00000E-11
     (0,2,0)        2.00000E-10
     (0,0,2)       -3.00000E-10
 Nucleus-field energy     =     0.0000000177 hartrees
 Requested basis set is 6-31G(d,p)
 There are 41 shells and 104 basis functions
 A cutoff of  1.0D-14 yielded    809 shell pairs
 There are      5211 function pairs
 Smallest overlap matrix eigenvalue = 5.94E-03
 Guess from superposition of atomic densities
 Warning:  Energy on first SCF cycle will be non-variational
 SAD guess density has 42.000000 electrons

 -----------------------------------------------------------------------
  General SCF calculation program by
  Eric Jon Sundstrom, Paul Horn, Yuezhi Mao, Dmitri Zuev, Alec White,
  David Stuck, Shaama M.S., Shane Yost, Joonho Lee, David Small,
  Daniel Levine, Susi Lehtola, Hugh Burton, Evgeny Epifanovsky
 -----------------------------------------------------------------------
 Exchange:     0.2000 Hartree-Fock + 0.0800 Slater + 0.7200 B88
 Correlation:  0.1900 VWN1RPA + 0.8100 LYP
 Using SG-1 standard quadrature grid
 using 12 threads for integral computing
 -------------------------------------------------------
 OpenMP Integral computing Module                
 Release: version 1.0, May 2013, Q-Chem Inc. Pittsburgh 
 -------------------------------------------------------
 -------------------------------------------------------
 OpenMP BLAS3 based DFT computing Module                
 Release: version 1.0, May 2013, Q-Chem Inc. Pittsburgh 
 -------------------------------------------------------
 A unrestricted SCF calculation will be
 performed using DIIS
 SCF converges when DIIS error is below 1.0e-06
 Alpha HF Exchange    Energy =  -4.32177638900818
 Beta HF Exchange     Energy =  -4.32177638900818
 DFT Correlation      Energy =  -1.85995573887089
 DFT Exchange         Energy = -33.94788079904846
 One-Electron (alpha) Energy = -489.02357494652870
 One-Electron (beta)  Energy = -489.02357494652870
 Total Coulomb        Energy = 367.35860408384428
 ---------------------------------------
  Cycle       Energy         DIIS error
 ---------------------------------------
    1    -517.4475029200      2.80e-02  
 Alpha HF Exchange    Energy =  -4.45266683724819
 Beta HF Exchange     Energy =  -4.26672710238949
 DFT Correlation      Energy =  -1.87853778689710
 DFT Exchange         Energy = -34.57838646100053
 One-Electron (alpha) Energy = -504.09593347790951
 One-Electron (beta)  Energy = -480.45704407159621
 Total Coulomb        Energy = 374.88623864536180
    2    -517.1506248865      3.54e-03  
 Alpha HF Exchange    Energy =  -4.39879516802124
 Beta HF Exchange     Energy =  -4.21809659527852
 DFT Correlation      Energy =  -1.85247982812353
 DFT Exchange         Energy = -34.14488449417293
 One-Electron (alpha) Energy = -501.01362692795345
 One-Electron (beta)  Energy = -477.34592069349247
 Total Coulomb        Energy = 368.14316766687574
    3    -517.1382038350      3.89e-03  
 Alpha HF Exchange    Energy =  -4.42592459208855
 Beta HF Exchange     Energy =  -4.24116514102501
 DFT Correlation      Energy =  -1.86465205479129
 DFT Exchange         Energy = -34.35207786484621
 One-Electron (alpha) Energy = -502.65252607978391
 One-Electron (beta)  Energy = -478.81970157139449
 Total Coulomb        Energy = 371.43585967909246
    4    -517.2277554197      2.81e-04  
 Alpha HF Exchange    Energy =  -4.42800768156752
 Beta HF Exchange     Energy =  -4.24211621212282
 DFT Correlation      Energy =  -1.86469898835309
 DFT Exchange         Energy = -34.36303652135735
 One-Electron (alpha) Energy = -502.75111012826414
 One-Electron (beta)  Energy = -478.83839730547311
 Total Coulomb        Energy = 371.56669569236249
    5    -517.2282389396      1.10e-04  
 Alpha HF Exchange    Energy =  -4.42752179840412
 Beta HF Exchange     Energy =  -4.24165314992027
 DFT Correlation      Energy =  -1.86439000967160
 DFT Exchange         Energy = -34.35884564151021
 One-Electron (alpha) Energy = -502.72380583242983
 One-Electron (beta)  Energy = -478.79565365464254
 Total Coulomb        Energy = 371.49111452481196
    6    -517.2283233566      3.60e-05  
 Alpha HF Exchange    Energy =  -4.42766723840980
 Beta HF Exchange     Energy =  -4.24163444665391
 DFT Correlation      Energy =  -1.86436330076233
 DFT Exchange         Energy = -34.35921003846774
 One-Electron (alpha) Energy = -502.73056799361683
 One-Electron (beta)  Energy = -478.79138669450970
 Total Coulomb        Energy = 371.49406559263491
    7    -517.2283319146      1.34e-05  
 Alpha HF Exchange    Energy =  -4.42774225502780
 Beta HF Exchange     Energy =  -4.24165887197187
 DFT Correlation      Energy =  -1.86435913475034
 DFT Exchange         Energy = -34.35956037936413
 One-Electron (alpha) Energy = -502.73617270393470
 One-Electron (beta)  Energy = -478.79189581646614
 Total Coulomb        Energy = 371.50062379415613
    8    -517.2283331622      4.97e-06  
 Alpha HF Exchange    Energy =  -4.42773095406877
 Beta HF Exchange     Energy =  -4.24163531007473
 DFT Correlation      Energy =  -1.86434734908595
 DFT Exchange         Energy = -34.35941320227867
 One-Electron (alpha) Energy = -502.73495230748921
 One-Electron (beta)  Energy = -478.78960362072689
 Total Coulomb        Energy = 371.49691718567220
    9    -517.2283333529      1.11e-06  
 Alpha HF Exchange    Energy =  -4.42773550217541
 Beta HF Exchange     Energy =  -4.24163487892198
 DFT Correlation      Energy =  -1.86434757206593
 DFT Exchange         Energy = -34.35943075969433
 One-Electron (alpha) Energy = -502.73525086113295
 One-Electron (beta)  Energy = -478.78960981371881
 Total Coulomb        Energy = 371.49724381775707
   10    -517.2283333648      3.74e-07  Convergence criterion met
 ---------------------------------------
 SCF time:   CPU 23.48s  wall 2.00s 
<S^2> =          2.006504163
 Alpha HF Exchange    Energy =  -4.42773550217541
 Beta HF Exchange     Energy =  -4.24163487892198
 DFT Correlation      Energy =  -1.86434757206593
 DFT Exchange         Energy = -34.35943075969433
 One-Electron (alpha) Energy = -502.73525086113295
 One-Electron (beta)  Energy = -478.78960981371881
 Total Coulomb        Energy = 371.49724381775707
 Nuclear repulsion Energy = 137.69243220517586
 SCF   energy in the final basis set =     -517.2283333648
 Total energy in the final basis set =     -517.2283333648
 
 --------------------------------------------------------------
 
                    Orbital Energies (a.u.)
 --------------------------------------------------------------
 
 Alpha MOs
 -- Occupied --
-88.889 -10.211 -10.199 -10.189  -7.951  -5.922  -5.912  -5.903
 -0.797  -0.719  -0.687  -0.596  -0.477  -0.443  -0.410  -0.407
 -0.382  -0.362  -0.346  -0.303  -0.256  -0.221
 -- Virtual --
  0.081   0.095   0.128   0.131   0.145   0.169   0.170   0.200
  0.212   0.254   0.288   0.344   0.350   0.371   0.499   0.510
  0.522   0.543   0.579   0.639   0.672   0.700   0.738   0.753
  0.755   0.758   0.765   0.796   0.844   0.866   0.868   0.896
  0.903   0.938   0.973   1.074   1.187   1.270   1.325   1.375
  1.499   1.549   1.591   1.666   1.796   1.846   1.926   1.931
  2.011   2.041   2.056   2.068   2.092   2.129   2.162   2.214
  2.247   2.277   2.402   2.406   2.457   2.498   2.551   2.668
  2.707   2.733   2.749   2.813   2.829   2.870   2.907   3.175
  3.242   3.331   3.359   3.455   3.472   3.531   3.939   4.260
  4.450   4.616
 
 Beta MOs
 -- Occupied --
-88.883 -10.200 -10.198 -10.187  -7.944  -5.907  -5.903  -5.899
 -0.786  -0.681  -0.663  -0.585  -0.473  -0.435  -0.402  -0.390
 -0.368  -0.357  -0.344  -0.240
 -- Virtual --
 -0.160  -0.084   0.091   0.114   0.133   0.141   0.147   0.171
  0.173   0.205   0.217   0.262   0.306   0.365   0.377   0.383
  0.506   0.524   0.529   0.553   0.583   0.648   0.675   0.741
  0.767   0.773   0.788   0.807   0.811   0.816   0.846   0.870
  0.871   0.901   0.919   0.941   0.977   1.086   1.187   1.282
  1.335   1.397   1.506   1.565   1.611   1.667   1.805   1.852
  1.934   1.958   2.034   2.042   2.057   2.068   2.090   2.138
  2.162   2.216   2.251   2.278   2.409   2.409   2.469   2.505
  2.570   2.674   2.710   2.737   2.753   2.817   2.831   2.872
  2.910   3.176   3.246   3.335   3.361   3.457   3.479   3.533
  3.960   4.272   4.466   4.622
 --------------------------------------------------------------
 
          Ground-State Mulliken Net Atomic Charges

     Atom                 Charge (a.u.)    Spin (a.u.)
  --------------------------------------------------------
      1 S                    -0.096836       1.148553
      2 C                    -0.181846      -0.061048
      3 C                    -0.255601       0.947762
      4 C                    -0.312894       0.047496
      5 H                     0.115255       0.011526
      6 H                     0.114373       0.009941
      7 H                     0.126650      -0.036602
      8 H                     0.127005      -0.036608
      9 H                     0.110010      -0.000999
     10 H                     0.110731       0.013658
     11 H                     0.110136      -0.000892
     12 H                     0.033017      -0.042788
  --------------------------------------------------------
  Sum of atomic charges =     0.000000
  Sum of spin   charges =     2.000000

 -----------------------------------------------------------------
                    Cartesian Multipole Moments
 -----------------------------------------------------------------
    Charge (ESU x 10^10)
                 0.0000
    Dipole Moment (Debye)
         X      -2.2932      Y      -0.9130      Z       0.1293
       Tot       2.4716
    Quadrupole Moments (Debye-Ang)
        XX     -42.3452     XY      -2.3949     YY     -36.2442
        XZ       1.0688     YZ      -0.0385     ZZ     -32.7923
    Octopole Moments (Debye-Ang^2)
       XXX    -101.9035    XXY     -13.0867    XYY     -29.0332
       YYY     -35.6941    XXZ      10.8121    XYZ      -0.3594
       YYZ       6.4467    XZZ     -21.7146    YZZ     -10.3028
       ZZZ      17.1391
    Hexadecapole Moments (Debye-Ang^3)
      XXXX   -1206.5827   XXXY    -118.1078   XXYY    -220.0542
      XYYY    -127.3674   YYYY    -174.9736   XXXZ      69.8683
      XXYZ       2.7259   XYYZ      16.9960   YYYZ      10.4058
      XXZZ    -189.1508   XYZZ     -34.7955   YYZZ     -36.3908
      XZZZ      49.3567   YZZZ      10.1626   ZZZZ     -69.1527
 -----------------------------------------------------------------
 Calculating analytic gradient of the SCF energy
 Gradient of SCF Energy
            1           2           3           4           5           6
    1  -0.0033945   0.0002996   0.0002455  -0.0000670   0.0000054  -0.0000325
    2  -0.0019193  -0.0000035   0.0001808   0.0000651   0.0000452  -0.0000058
    3   0.0000680  -0.0000322   0.0000065   0.0000412  -0.0000172  -0.0000201
            7           8           9          10          11          12
    1   0.0003310   0.0003542   0.0000046   0.0000191  -0.0000014   0.0022360
    2   0.0002592   0.0002818  -0.0000073   0.0000001  -0.0000191   0.0011228
    3   0.0000272  -0.0000398   0.0000056   0.0000031   0.0000155  -0.0000579
 Max gradient component =       3.394E-03
 RMS gradient           =       7.828E-04
 Gradient time:  CPU 8.10 s  wall 0.75 s
 Geometry Optimization Parameters
   NAtoms,    NIC,     NZ,  NCons,   NDum,   NFix, NCnnct, MaxDiis
       12      75       0       1       0       0       0       0

 Cartesian Hessian Update
 Hessian Updated using BFGS Update


** CONSTRAINED OPTIMIZATION IN DELOCALIZED INTERNAL COORDINATES **
   Searching for a Minimum

   Optimization Cycle:   4

                       Coordinates (Angstroms)
     ATOM                X               Y               Z
      1  S         3.1485075902    0.9616118846   -0.3600501051
      2  C        -0.7209843355    0.4294994044   -0.0385469095
      3  C         0.2780310879   -0.6624457967   -0.2468448740
      4  C        -2.1674862165   -0.1056205683    0.0844882658
      5  H        -0.4765651897    0.9929645511    0.8704284754
      6  H        -0.6779022708    1.1416198785   -0.8716234582
      7  H         0.5778721407   -1.2842646819    0.5938253169
      8  H         0.3945608407   -1.1069321866   -1.2326900450
      9  H        -2.2615193890   -0.7967131094    0.9280417303
     10  H        -2.8691109943    0.7201758096    0.2421914342
     11  H        -2.4690966863   -0.6394322331   -0.8221430238
     12  H         1.9563004226    0.2533360478   -0.3240728069
   Point Group: c1    Number of degrees of freedom:    30


   Energy is   -517.228333365

              Constraints and their Current Values
                                        Value     Constraint
   Distance(Angs):        1   3             3.300002     3.300000
 Hessian Updated using BFGS Update

   Using Lagrange Multiplier Algorithm


 31 Hessian modes will be used to form the next step
  Hessian Eigenvalues:
    -0.949351    0.044951    0.045000    0.059312    0.068404    0.078303
     0.082838    0.083290    0.088978    0.095168    0.103711    0.131956
     0.160000    0.160000    0.160013    0.160015    0.160026    0.160395
     0.199988    0.200120    0.219527    0.278700    0.329900    0.340057
     0.340340    0.342308    0.342943    0.343021    0.350834    0.350975
     1.060032

 Minimum Search - Taking P-RFO Step
 Searching for Lamda that Maximizes Along the Constraint modes Only
 Value Taken    Lamda =   0.00000052
 Searching for Lamda that Minimizes Along All other modes
 Value Taken    Lamda =  -0.00004526
 Step Taken.  Stepsize is  0.024650

                             Maximum     Tolerance    Cnvgd?
         Gradient            0.001747       0.000300      NO
         Displacement        0.023980       0.001200      NO
         Energy change     -0.000363       0.000001      NO


 New Cartesian Coordinates Obtained by Inverse Iteration

 Displacement from previous Coordinates is:  0.015993
 ----------------------------------------------------------------
             Standard Nuclear Orientation (Angstroms)
    I     Atom           X                Y                Z
 ----------------------------------------------------------------
    1      S       3.1507037090     0.9620876454    -0.3603880406
    2      C      -0.7205342981     0.4307913447    -0.0383554218
    3      C       0.2794578000    -0.6605730249    -0.2467243763
    4      C      -2.1662798853    -0.1061417119     0.0842075799
    5      H      -0.4766634234     0.9941644949     0.8707712573
    6      H      -0.6777010517     1.1430540358    -0.8712854493
    7      H       0.5759043778    -1.2842358355     0.5938911058
    8      H       0.3922841983    -1.1073286527    -1.2320632797
    9      H      -2.2596913897    -0.7973988634     0.9276900636
   10      H      -2.8689379037     0.7187948501     0.2418995263
   11      H      -2.4671129613    -0.6401014076    -0.8225833376
   12      H       1.9511778280     0.2506861252    -0.3240556277
 ----------------------------------------------------------------
 Nuclear Repulsion Energy =   137.6581410168 hartrees
 There are       22 alpha and       20 beta electrons

                       Distance Matrix (Angstroms)
             S (  1)   C (  2)   C (  3)   C (  4)   H (  5)   H (  6)
   C (  2)  3.920773
   C (  3)  3.300000  1.494817
   C (  4)  5.441424  1.547094  2.529534
   H (  5)  3.830741  1.096984  2.135105  2.164292
   H (  6)  3.866581  1.096779  2.135252  2.165485  1.759928
   H (  7)  3.547705  2.240939  1.087874  3.027748  2.525009  3.100001
   H (  8)  3.556850  2.242569  1.087756  3.046505  3.097298  2.517787
   H (  9)  5.833294  2.193331  2.800937  1.094543  2.528266  3.082915
   H ( 10)  6.054587  2.185664  3.471859  1.095041  2.488832  2.494132
   H ( 11)  5.860077  2.193710  2.806365  1.094479  3.082234  2.526660
   H ( 12)  1.395089  2.692974  1.905524  4.153006  2.806205  2.829626
             H (  7)   H (  8)   H (  9)   H ( 10)   H ( 11)
   H (  8)  1.843671
   H (  9)  2.896383  3.434176
   H ( 10)  4.000371  4.017818  1.772099
   H ( 11)  3.417786  2.926111  1.769526  1.772339
   H ( 12)  2.256100  2.258059  4.516278  4.875751  4.534680
 
 Applying Cartesian multipole field
    Component          Value
    ---------          -----
     (2,0,0)        1.00000E-11
     (0,2,0)        2.00000E-10
     (0,0,2)       -3.00000E-10
 Nucleus-field energy     =     0.0000000177 hartrees
 Requested basis set is 6-31G(d,p)
 There are 41 shells and 104 basis functions
 A cutoff of  1.0D-14 yielded    809 shell pairs
 There are      5211 function pairs
 Smallest overlap matrix eigenvalue = 5.94E-03
 Guess from superposition of atomic densities
 Warning:  Energy on first SCF cycle will be non-variational
 SAD guess density has 42.000000 electrons

 -----------------------------------------------------------------------
  General SCF calculation program by
  Eric Jon Sundstrom, Paul Horn, Yuezhi Mao, Dmitri Zuev, Alec White,
  David Stuck, Shaama M.S., Shane Yost, Joonho Lee, David Small,
  Daniel Levine, Susi Lehtola, Hugh Burton, Evgeny Epifanovsky
 -----------------------------------------------------------------------
 Exchange:     0.2000 Hartree-Fock + 0.0800 Slater + 0.7200 B88
 Correlation:  0.1900 VWN1RPA + 0.8100 LYP
 Using SG-1 standard quadrature grid
 using 12 threads for integral computing
 -------------------------------------------------------
 OpenMP Integral computing Module                
 Release: version 1.0, May 2013, Q-Chem Inc. Pittsburgh 
 -------------------------------------------------------
 -------------------------------------------------------
 OpenMP BLAS3 based DFT computing Module                
 Release: version 1.0, May 2013, Q-Chem Inc. Pittsburgh 
 -------------------------------------------------------
 A unrestricted SCF calculation will be
 performed using DIIS
 SCF converges when DIIS error is below 1.0e-06
 Alpha HF Exchange    Energy =  -4.32151773528642
 Beta HF Exchange     Energy =  -4.32151773528642
 DFT Correlation      Energy =  -1.85991559338653
 DFT Exchange         Energy = -33.94719906999379
 One-Electron (alpha) Energy = -488.99217526806694
 One-Electron (beta)  Energy = -488.99217526806694
 Total Coulomb        Energy = 367.33151355199590
 ---------------------------------------
  Cycle       Energy         DIIS error
 ---------------------------------------
    1    -517.4448460836      2.80e-02  
 Alpha HF Exchange    Energy =  -4.45238506481539
 Beta HF Exchange     Energy =  -4.26636661755430
 DFT Correlation      Energy =  -1.87849024082386
 DFT Exchange         Energy = -34.57639082657452
 One-Electron (alpha) Energy = -504.06185017369762
 One-Electron (beta)  Energy = -480.41941490532486
 Total Coulomb        Energy = 374.84608985263662
    2    -517.1506669417      3.54e-03  
 Alpha HF Exchange    Energy =  -4.39859876616749
 Beta HF Exchange     Energy =  -4.21780398026744
 DFT Correlation      Energy =  -1.85245146503832
 DFT Exchange         Energy = -34.14345145499230
 One-Electron (alpha) Energy = -500.98516813743493
 One-Electron (beta)  Energy = -477.31182065282513
 Total Coulomb        Energy = 368.11315183494071
    3    -517.1380015873      3.90e-03  
 Alpha HF Exchange    Energy =  -4.42569170961062
 Beta HF Exchange     Energy =  -4.24082958897930
 DFT Correlation      Energy =  -1.86461780532554
 DFT Exchange         Energy = -34.35033267328663
 One-Electron (alpha) Energy = -502.62093842848634
 One-Electron (beta)  Energy = -478.78274358396163
 Total Coulomb        Energy = 371.39923914118413
    4    -517.2277736140      2.83e-04  
 Alpha HF Exchange    Energy =  -4.42779224830490
 Beta HF Exchange     Energy =  -4.24180640478504
 DFT Correlation      Energy =  -1.86466802554200
 DFT Exchange         Energy = -34.36144010741033
 One-Electron (alpha) Energy = -502.72120609398945
 One-Electron (beta)  Energy = -478.80268172710208
 Total Coulomb        Energy = 371.53318869004124
    5    -517.2282648826      1.10e-04  
 Alpha HF Exchange    Energy =  -4.42730266801178
 Beta HF Exchange     Energy =  -4.24132770841351
 DFT Correlation      Energy =  -1.86435583516086
 DFT Exchange         Energy = -34.35716923660839
 One-Electron (alpha) Energy = -502.69313111597910
 One-Electron (beta)  Energy = -478.75898744280897
 Total Coulomb        Energy = 371.45578205821323
    6    -517.2283509143      3.59e-05  
 Alpha HF Exchange    Energy =  -4.42745081991384
 Beta HF Exchange     Energy =  -4.24131749642424
 DFT Correlation      Energy =  -1.86432916900255
 DFT Exchange         Energy = -34.35757119042833
 One-Electron (alpha) Energy = -502.70028339853087
 One-Electron (beta)  Energy = -478.75498643736773
 Total Coulomb        Energy = 371.45943792608921
    7    -517.2283595511      1.35e-05  
 Alpha HF Exchange    Energy =  -4.42752629951770
 Beta HF Exchange     Energy =  -4.24133886891367
 DFT Correlation      Energy =  -1.86432499702912
 DFT Exchange         Energy = -34.35791194467265
 One-Electron (alpha) Energy = -502.70582052488254
 One-Electron (beta)  Energy = -478.75540266232116
 Total Coulomb        Energy = 371.46582345361480
    8    -517.2283608092      5.12e-06  
 Alpha HF Exchange    Energy =  -4.42751473324927
[...]

                             Maximum     Tolerance    Cnvgd?
         Gradient           0.000120      0.000300     YES
         Displacement       0.001944      0.001200      NO
         Energy change     -0.000001      0.000001      NO


 New Cartesian Coordinates Obtained by Inverse Iteration

 Displacement from previous Coordinates is:  0.003247
 ----------------------------------------------------------------
             Standard Nuclear Orientation (Angstroms)
    I     Atom           X                Y                Z
 ----------------------------------------------------------------
    1      S       3.1544850207     0.9624916377    -0.3603652982
    2      C      -0.7196478138     0.4331640752    -0.0379804552
    3      C       0.2816832581    -0.6574105530    -0.2466680046
    4      C      -2.1640168897    -0.1073145325     0.0836596947
    5      H      -0.4769343294     0.9962330659     0.8715853807
    6      H      -0.6776759231     1.1458262648    -0.8705854854
    7      H       0.5685779939    -1.2862904647     0.5937184609
    8      H       0.3829611315    -1.1109721929    -1.2304392199
    9      H      -2.2563696340    -0.7987257258     0.9271453387
   10      H      -2.8687511092     0.7159280977     0.2410379556
   11      H      -2.4632337270    -0.6418195601    -0.8233572421
   12      H       1.9515290222     0.2526888877    -0.3247471253
 ----------------------------------------------------------------
 Nuclear Repulsion Energy =   137.6288737035 hartrees
 There are       22 alpha and       20 beta electrons

                       Distance Matrix (Angstroms)
             S (  1)   C (  2)   C (  3)   C (  4)   H (  5)   H (  6)
   C (  2)  3.923395
   C (  3)  3.300000  1.495181
   C (  4)  5.443171  1.546970  2.528472
   H (  5)  3.834846  1.096935  2.135539  2.164461
   H (  6)  3.870322  1.096759  2.135721  2.165677  1.760067
   H (  7)  3.557276  2.239440  1.088140  3.019473  2.525910  3.100407
   H (  8)  3.568981  2.240996  1.088017  3.036656  3.098103  2.519441
   H (  9)  5.834117  2.193293  2.799914  1.094553  2.528113  3.083082
   H ( 10)  6.058205  2.185509  3.471189  1.095056  2.489367  2.494259
   H ( 11)  5.860626  2.193741  2.804886  1.094489  3.082439  2.527078
   H ( 12)  1.397209  2.692581  1.903356  4.151399  2.807402  2.829903
             H (  7)   H (  8)   H (  9)   H ( 10)   H ( 11)
   H (  8)  1.841940
   H (  9)  2.886039  3.423264
   H ( 10)  3.993557  4.009544  1.771985
   H ( 11)  3.408127  2.913185  1.769653  1.772247
   H ( 12)  2.263756  2.267213  4.514324  4.875429  4.531985
 
 Applying Cartesian multipole field
    Component          Value
    ---------          -----
     (2,0,0)        1.00000E-11
     (0,2,0)        2.00000E-10
     (0,0,2)       -3.00000E-10
 Nucleus-field energy     =     0.0000000177 hartrees
 Requested basis set is 6-31G(d,p)
 There are 41 shells and 104 basis functions
 A cutoff of  1.0D-14 yielded    809 shell pairs
 There are      5211 function pairs
 Smallest overlap matrix eigenvalue = 5.94E-03
 Guess from superposition of atomic densities
 Warning:  Energy on first SCF cycle will be non-variational
 SAD guess density has 42.000000 electrons

 -----------------------------------------------------------------------
  General SCF calculation program by
  Eric Jon Sundstrom, Paul Horn, Yuezhi Mao, Dmitri Zuev, Alec White,
  David Stuck, Shaama M.S., Shane Yost, Joonho Lee, David Small,
  Daniel Levine, Susi Lehtola, Hugh Burton, Evgeny Epifanovsky
 -----------------------------------------------------------------------
 Exchange:     0.2000 Hartree-Fock + 0.0800 Slater + 0.7200 B88
 Correlation:  0.1900 VWN1RPA + 0.8100 LYP
 Using SG-1 standard quadrature grid
 using 12 threads for integral computing
 -------------------------------------------------------
 OpenMP Integral computing Module                
 Release: version 1.0, May 2013, Q-Chem Inc. Pittsburgh 
 -------------------------------------------------------
 -------------------------------------------------------
 OpenMP BLAS3 based DFT computing Module                
 Release: version 1.0, May 2013, Q-Chem Inc. Pittsburgh 
 -------------------------------------------------------
 A unrestricted SCF calculation will be
 performed using DIIS
 SCF converges when DIIS error is below 1.0e-06
 Alpha HF Exchange    Energy =  -4.32140698627570
 Beta HF Exchange     Energy =  -4.32140698627570
 DFT Correlation      Energy =  -1.85989161992364
 DFT Exchange         Energy = -33.94691830442073
 One-Electron (alpha) Energy = -488.96400590215444
 One-Electron (beta)  Energy = -488.96400590215444
 Total Coulomb        Energy = 367.30496320823431
 ---------------------------------------
  Cycle       Energy         DIIS error
 ---------------------------------------
    1    -517.4437987717      2.80e-02  
 Alpha HF Exchange    Energy =  -4.45230338422075
 Beta HF Exchange     Energy =  -4.26619329771069
 DFT Correlation      Energy =  -1.87845465784688
 DFT Exchange         Energy = -34.57558410560061
 One-Electron (alpha) Energy = -504.03300136167798
 One-Electron (beta)  Energy = -480.38841034969357
 Total Coulomb        Energy = 374.81437317412986
    2    -517.1507002614      3.54e-03  
 Alpha HF Exchange    Energy =  -4.39858442082094
 Beta HF Exchange     Energy =  -4.21766426733202
 DFT Correlation      Energy =  -1.85242447482179
 DFT Exchange         Energy = -34.14298469164344
 One-Electron (alpha) Energy = -500.95874905408851
 One-Electron (beta)  Energy = -477.28172304165980
 Total Coulomb        Energy = 368.08530214259292
    3    -517.1379540865      3.90e-03  
 Alpha HF Exchange    Energy =  -4.42564849288255
 Beta HF Exchange     Energy =  -4.24067435032954
 DFT Correlation      Energy =  -1.86458640828977
 DFT Exchange         Energy = -34.34971337757253
 One-Electron (alpha) Energy = -502.59356377020930
 One-Electron (beta)  Energy = -478.75182548241742
 Total Coulomb        Energy = 371.36935758785933
    4    -517.2277805726      2.83e-04  
 Alpha HF Exchange    Energy =  -4.42775610173075
 Beta HF Exchange     Energy =  -4.24165912153259
 DFT Correlation      Energy =  -1.86463743415606
 DFT Exchange         Energy = -34.36086988449432
 One-Electron (alpha) Energy = -502.69430982498358
 One-Electron (beta)  Energy = -478.77209281676727
 Total Coulomb        Energy = 371.50417771024229
    5    -517.2282737522      1.11e-04  
 Alpha HF Exchange    Energy =  -4.42726405633780
 Beta HF Exchange     Energy =  -4.24117702731378
 DFT Correlation      Energy =  -1.86432378599977
 DFT Exchange         Energy = -34.35657330090211
 One-Electron (alpha) Energy = -502.66598428681039
 One-Electron (beta)  Energy = -478.72811272500365
 Total Coulomb        Energy = 371.42620091088145
    6    -517.2283605502      3.59e-05  
 Alpha HF Exchange    Energy =  -4.42741262156968
 Beta HF Exchange     Energy =  -4.24116874143410
 DFT Correlation      Energy =  -1.86429696928470
 DFT Exchange         Energy = -34.35698263937925
 One-Electron (alpha) Energy = -502.67322449007537
 One-Electron (beta)  Energy = -478.72415720680476
 Total Coulomb        Energy = 371.42999972200789
    7    -517.2283692253      1.35e-05  
 Alpha HF Exchange    Energy =  -4.42748818929492
 Beta HF Exchange     Energy =  -4.24118973991392
 DFT Correlation      Energy =  -1.86429280388467
 DFT Exchange         Energy = -34.35732214747431
 One-Electron (alpha) Energy = -502.67875045377667
 One-Electron (beta)  Energy = -478.72455924613848
 Total Coulomb        Energy = 371.43635837331664
    8    -517.2283704859      5.16e-06  
 Alpha HF Exchange    Energy =  -4.42747662101309
 Beta HF Exchange     Energy =  -4.24116766591110
 DFT Correlation      Energy =  -1.86428083639720
 DFT Exchange         Energy = -34.35717852949740
 One-Electron (alpha) Energy = -502.67756113203899
 One-Electron (beta)  Energy = -478.72228013515200
 Total Coulomb        Energy = 371.43270051350902
    9    -517.2283706853      1.17e-06  
 Alpha HF Exchange    Energy =  -4.42748105555202
 Beta HF Exchange     Energy =  -4.24116636986285
 DFT Correlation      Energy =  -1.86428097639255
 DFT Exchange         Energy = -34.35719245588679
 One-Electron (alpha) Energy = -502.67782918063250
 One-Electron (beta)  Energy = -478.72224468818246
 Total Coulomb        Energy = 371.43295030761556
   10    -517.2283706977      4.49e-07  Convergence criterion met
 ---------------------------------------
 SCF time:   CPU 23.92s  wall 2.00s 
<S^2> =          2.006585341
 Alpha HF Exchange    Energy =  -4.42748105555202
 Beta HF Exchange     Energy =  -4.24116636986285
 DFT Correlation      Energy =  -1.86428097639255
 DFT Exchange         Energy = -34.35719245588679
 One-Electron (alpha) Energy = -502.67782918063250
 One-Electron (beta)  Energy = -478.72224468818246
 Total Coulomb        Energy = 371.43295030761556
 Nuclear repulsion Energy = 137.62887372124192
 SCF   energy in the final basis set =     -517.2283706977
 Total energy in the final basis set =     -517.2283706977
 
 --------------------------------------------------------------
 
                    Orbital Energies (a.u.)
 --------------------------------------------------------------
 
 Alpha MOs
 -- Occupied --
-88.889 -10.212 -10.200 -10.189  -7.950  -5.922  -5.912  -5.903
 -0.797  -0.718  -0.687  -0.596  -0.478  -0.443  -0.410  -0.407
 -0.381  -0.362  -0.346  -0.303  -0.256  -0.222
 -- Virtual --
  0.080   0.095   0.128   0.131   0.145   0.168   0.171   0.199
  0.212   0.253   0.289   0.344   0.350   0.371   0.499   0.509
  0.522   0.543   0.578   0.640   0.671   0.700   0.739   0.754
  0.755   0.758   0.763   0.797   0.843   0.866   0.868   0.896
  0.903   0.938   0.970   1.070   1.186   1.271   1.324   1.369
  1.498   1.555   1.590   1.666   1.796   1.844   1.922   1.934
  2.014   2.041   2.056   2.068   2.091   2.127   2.161   2.214
  2.245   2.276   2.397   2.407   2.461   2.496   2.549   2.668
  2.709   2.732   2.739   2.814   2.827   2.870   2.906   3.174
  3.241   3.328   3.357   3.455   3.474   3.529   3.939   4.260
  4.449   4.616
 
 Beta MOs
 -- Occupied --
-88.883 -10.200 -10.199 -10.188  -7.944  -5.906  -5.903  -5.899
 -0.786  -0.680  -0.662  -0.585  -0.473  -0.435  -0.402  -0.390
 -0.367  -0.357  -0.344  -0.240
 -- Virtual --
 -0.159  -0.086   0.090   0.114   0.133   0.140   0.147   0.172
  0.173   0.204   0.217   0.261   0.307   0.365   0.377   0.383
  0.506   0.524   0.528   0.552   0.582   0.648   0.675   0.739
  0.768   0.774   0.788   0.807   0.811   0.816   0.846   0.870
  0.871   0.901   0.919   0.941   0.974   1.082   1.185   1.283
  1.334   1.390   1.506   1.572   1.610   1.666   1.804   1.850
  1.937   1.953   2.036   2.041   2.056   2.067   2.088   2.137
  2.161   2.216   2.249   2.277   2.404   2.410   2.473   2.504
  2.567   2.674   2.713   2.736   2.743   2.817   2.829   2.872
  2.910   3.176   3.245   3.332   3.359   3.457   3.480   3.531
  3.959   4.272   4.465   4.622
 --------------------------------------------------------------
 
          Ground-State Mulliken Net Atomic Charges

     Atom                 Charge (a.u.)    Spin (a.u.)
  --------------------------------------------------------
      1 S                    -0.097892       1.155914
      2 C                    -0.181950      -0.059743
      3 C                    -0.254429       0.940410
      4 C                    -0.313245       0.047180
      5 H                     0.115523       0.011086
      6 H                     0.114669       0.009703
      7 H                     0.126763      -0.035663
      8 H                     0.127047      -0.035669
      9 H                     0.110126      -0.001021
     10 H                     0.111094       0.013765
     11 H                     0.110232      -0.000927
     12 H                     0.032061      -0.045035
  --------------------------------------------------------
  Sum of atomic charges =    -0.000000
  Sum of spin   charges =     2.000000

 -----------------------------------------------------------------
                    Cartesian Multipole Moments
 -----------------------------------------------------------------
    Charge (ESU x 10^10)
                 0.0000
    Dipole Moment (Debye)
         X      -2.3375      Y      -0.9251      Z       0.1324
       Tot       2.5174
    Quadrupole Moments (Debye-Ang)
        XX     -42.4201     XY      -2.3903     YY     -36.2303
        XZ       1.0821     YZ      -0.0368     ZZ     -32.8110
    Octopole Moments (Debye-Ang^2)
       XXX    -102.5795    XXY     -13.1474    XYY     -29.2386
       YYY     -35.9031    XXZ      10.8540    XYZ      -0.3738
       YYZ       6.4405    XZZ     -21.8863    YZZ     -10.3454
       ZZZ      17.1799
    Hexadecapole Moments (Debye-Ang^3)
      XXXX   -1209.4235   XXXY    -118.6873   XXYY    -220.6854
      XYYY    -127.8983   YYYY    -175.1293   XXXZ      70.0554
      XXYZ       2.7125   XYYZ      17.0305   YYYZ      10.4575
      XXZZ    -189.5758   XYZZ     -34.9078   YYZZ     -36.3970
      XZZZ      49.4814   YZZZ      10.2026   ZZZZ     -69.1918
 -----------------------------------------------------------------
 Calculating analytic gradient of the SCF energy
 Gradient of SCF Energy
            1           2           3           4           5           6
    1  -0.0006653  -0.0000309   0.0006784   0.0000080   0.0000103  -0.0000091
    2  -0.0003188  -0.0000099   0.0004636  -0.0000038   0.0000195  -0.0000212
    3  -0.0000284  -0.0000034  -0.0000261   0.0000166  -0.0000182  -0.0000219
            7           8           9          10          11          12
    1  -0.0000206  -0.0000021   0.0000052   0.0000019  -0.0000062   0.0000304
    2  -0.0000133  -0.0000154   0.0000125   0.0000049  -0.0000045  -0.0001138
    3   0.0000077   0.0000077   0.0000189   0.0000081   0.0000173   0.0000217
 Max gradient component =       6.784E-04
 RMS gradient           =       1.856E-04
 Gradient time:  CPU 8.27 s  wall 0.75 s
 Geometry Optimization Parameters
   NAtoms,    NIC,     NZ,  NCons,   NDum,   NFix, NCnnct, MaxDiis
       12      75       0       1       0       0       0       0

 Cartesian Hessian Update
 Hessian Updated using BFGS Update


** CONSTRAINED OPTIMIZATION IN DELOCALIZED INTERNAL COORDINATES **
   Searching for a Minimum

   Optimization Cycle:   9

                       Coordinates (Angstroms)
     ATOM                X               Y               Z
      1  S         3.1544850207    0.9624916377   -0.3603652982
      2  C        -0.7196478138    0.4331640752   -0.0379804552
      3  C         0.2816832581   -0.6574105530   -0.2466680046
      4  C        -2.1640168897   -0.1073145325    0.0836596947
      5  H        -0.4769343294    0.9962330659    0.8715853807
      6  H        -0.6776759231    1.1458262648   -0.8705854854
      7  H         0.5685779939   -1.2862904647    0.5937184609
      8  H         0.3829611315   -1.1109721929   -1.2304392199
      9  H        -2.2563696340   -0.7987257258    0.9271453387
     10  H        -2.8687511092    0.7159280977    0.2410379556
     11  H        -2.4632337270   -0.6418195601   -0.8233572421
     12  H         1.9515290222    0.2526888877   -0.3247471253
   Point Group: c1    Number of degrees of freedom:    30


   Energy is   -517.228370698

              Constraints and their Current Values
                                        Value     Constraint
   Distance(Angs):        1   3             3.300000     3.300000
 Hessian Updated using BFGS Update

 29 Hessian modes will be used to form the next step
  Hessian Eigenvalues:
     0.015960    0.039050    0.045003    0.067065    0.069731    0.078371
     0.082895    0.083313    0.090533    0.103639    0.131955    0.145942
     0.159904    0.160001    0.160002    0.160016    0.160228    0.193750
     0.200043    0.219239    0.278670    0.329605    0.340053    0.340337
     0.342307    0.342943    0.343020    0.350619    0.350923

 Minimum Search - Taking Simple RFO Step
 Searching for Lamda that Minimizes Along All modes
 Value Taken    Lamda =   0.00000000
 Step Taken.  Stepsize is  0.001836

                             Maximum     Tolerance    Cnvgd?
         Gradient           0.000067      0.000300     YES
         Displacement       0.000847      0.001200     YES
         Energy change     -0.000000      0.000001     YES


                       Distance Matrix (Angstroms)
             S (  1)   C (  2)   C (  3)   C (  4)   H (  5)   H (  6)
   C (  2)  3.923395
   C (  3)  3.300000  1.495181
   C (  4)  5.443171  1.546970  2.528472
   H (  5)  3.834846  1.096935  2.135539  2.164461
   H (  6)  3.870322  1.096759  2.135721  2.165677  1.760067
   H (  7)  3.557276  2.239440  1.088140  3.019473  2.525910  3.100407
   H (  8)  3.568981  2.240996  1.088017  3.036656  3.098103  2.519441
   H (  9)  5.834117  2.193293  2.799914  1.094553  2.528113  3.083082
   H ( 10)  6.058205  2.185509  3.471189  1.095056  2.489367  2.494259
   H ( 11)  5.860626  2.193741  2.804886  1.094489  3.082439  2.527078
   H ( 12)  1.397209  2.692581  1.903356  4.151399  2.807402  2.829903
             H (  7)   H (  8)   H (  9)   H ( 10)   H ( 11)
   H (  8)  1.841940
   H (  9)  2.886039  3.423264
   H ( 10)  3.993557  4.009544  1.771985
   H ( 11)  3.408127  2.913185  1.769653  1.772247
   H ( 12)  2.263756  2.267213  4.514324  4.875429  4.531985
 
 Final energy is   -517.228370697652     


 ******************************
 **  OPTIMIZATION CONVERGED  **
 ******************************

                       Coordinates (Angstroms)
     ATOM                X               Y               Z
      1  S         3.1544850207    0.9624916377   -0.3603652982
      2  C        -0.7196478138    0.4331640752   -0.0379804552
      3  C         0.2816832581   -0.6574105530   -0.2466680046
      4  C        -2.1640168897   -0.1073145325    0.0836596947
      5  H        -0.4769343294    0.9962330659    0.8715853807
      6  H        -0.6776759231    1.1458262648   -0.8705854854
      7  H         0.5685779939   -1.2862904647    0.5937184609
      8  H         0.3829611315   -1.1109721929   -1.2304392199
      9  H        -2.2563696340   -0.7987257258    0.9271453387
     10  H        -2.8687511092    0.7159280977    0.2410379556
     11  H        -2.4632337270   -0.6418195601   -0.8233572421
     12  H         1.9515290222    0.2526888877   -0.3247471253

Z-matrix Print:
$molecule
0 3
S 
H  1 1.397209
C  2 1.903356 1 177.856103
H  3 1.088017 2 94.621461 1 138.826223 0
H  3 1.088140 2 94.399886 1 -104.957282 0
C  3 1.495181 2 104.152662 1 16.816583 0
H  6 1.096759 3 110.021057 2 59.738076 0
H  6 1.096935 3 109.996069 2 -57.531784 0
C  6 1.546970 3 112.422192 2 -178.821742 0
H  9 1.094489 6 111.144002 3 -60.360834 0
H  9 1.094553 6 111.104531 3 59.783044 0
H  9 1.095056 6 110.458020 3 179.680650 0
$end

PES scan, value:    3.3000 energy: -517.2283706977
------- Summary of potential scan: ------ 
    3.3000      -517.2283706977
----------------------------------------- 
Archival summary:
1\1\hpc0250\JobtypUnspecified\ProcedureUnspecified\6-31G**\138(3)\knomura\WedMar1321:22:572019WedMar1321:22:572019\0\\#,JobtypUnspecified,ProcedureUnspecified,6-31G**,\\0,3\S\H,1,1.39721\C,2,1.90336,1,177.856\H,3,1.08802,2,94.6215,1,138.826,0\H,3,1.08814,2,94.3999,1,-104.957,0\C,3,1.49518,2,104.153,1,16.8166,0\H,6,1.09676,3,110.021,2,59.7381,0\H,6,1.09694,3,109.996,2,-57.5318,0\C,6,1.54697,3,112.422,2,-178.822,0\H,9,1.09449,6,111.144,3,-60.3608,0\H,9,1.09455,6,111.105,3,59.783,0\H,9,1.09506,6,110.458,3,179.681,0\\\@

 Total job time:  28.98s(wall), 331.58s(cpu) 
 Wed Mar 13 21:22:57 2019

        *************************************************************
        *                                                           *
        *  Thank you very much for using Q-Chem.  Have a nice day.  *
        *                                                           *
        *************************************************************


