
Running Job 1 of 1 ruruma/CH3CH2CH2Cl_afterGeo_singlet.xyz.data/inputs/bond_triplet_3.9.in
qchem ruruma/CH3CH2CH2Cl_afterGeo_singlet.xyz.data/inputs/bond_triplet_3.9.in_14486.0 /staging/scratch/2858534/qchem14486/ 1
/usr/usc/qchem/5.1.1/exe/qcprog.exe_s ruruma/CH3CH2CH2Cl_afterGeo_singlet.xyz.data/inputs/bond_triplet_3.9.in_14486.0 /staging/scratch/2858534/qchem14486/
Check license passed

                  Welcome to Q-Chem
     A Quantum Leap Into The Future Of Chemistry


 Q-Chem 5.1, Q-Chem, Inc., Pleasanton, CA (2018)

 Yihan Shao,  Zhengting Gan,  E. Epifanovsky,  A. T. B. Gilbert,  M. Wormit,  
 J. Kussmann,  A. W. Lange,  A. Behn,  Jia Deng,  Xintian Feng,  D. Ghosh,  
 M. Goldey,  P. R. Horn,  L. D. Jacobson,  I. Kaliman,  T. Kus,  A. Landau,  
 Jie Liu,  E. I. Proynov,  R. M. Richard,  R. P. Steele,  E. J. Sundstrom,  
 H. L. Woodcock III,  P. M. Zimmerman,  D. Zuev,  B. Albrecht,  E. Alguire,  
 S. A. Baeppler,  D. Barton,  Z. Benda,  Y. A. Bernard,  E. J. Berquist,  
 K. B. Bravaya,  H. Burton,  D. Casanova,  Chun-Min Chang,  Yunqing Chen,  
 A. Chien,  K. D. Closser,  M. P. Coons,  S. Coriani,  S. Dasgupta,  
 A. L. Dempwolff,  M. Diedenhofen,  Hainam Do,  R. G. Edgar,  Po-Tung Fang,  
 S. Faraji,  S. Fatehi,  Qingguo Feng,  K. D. Fenk,  J. Fosso-Tande,  
 Qinghui Ge,  A. Ghysels,  G. Gidofalvi,  J. Gomes,  J. Gonthier,  A. Gunina,  
 D. Hait,  M. W. D. Hanson-Heine,  P. H. P. Harbach,  A. W. Hauser,  
 J. E. Herr,  E. G. Hohenstein,  Z. C. Holden,  Kerwin Hui,  B. C. Huynh,  
 T.-C. Jagau,  Hyunjun Ji,  B. Kaduk,  K. Khistyaev,  Jaehoon Kim,  
 P. Klunzinger,  K. Koh,  D. Kosenkov,  L. Koulias,  T. Kowalczyk,  
 C. M. Krauter,  A. Kunitsa,  Ka Un Lao,  A. Laurent,  K. V. Lawler,  
 Joonho Lee,  D. Lefrancois,  S. Lehtola,  D. S. Levine,  Yi-Pei Li,  
 You-Sheng Lin,  Fenglai Liu,  E. Livshits,  A. Luenser,  P. Manohar,  
 E. Mansoor,  S. F. Manzer,  Shan-Ping Mao,  Yuezhi Mao,  N. Mardirossian,  
 A. V. Marenich,  T. Markovich,  L. A. Martinez-Martinez,  S. A. Maurer,  
 N. J. Mayhall,  S. C. McKenzie,  J.-M. Mewes,  A. F. Morrison,  
 J. W. Mullinax,  K. Nanda,  T. S. Nguyen-Beck,  R. Olivares-Amaya,  
 J. A. Parkhill,  T. M. Perrine,  F. Plasser,  P. Pokhilko,  S. Prager,  
 A. Prociuk,  E. Ramos,  D. R. Rehn,  F. Rob,  M. Schneider,  N. Sergueev,  
 S. M. Sharada,  S. Sharma,  D. W. Small,  T. Stauch,  T. Stein,  
 Yu-Chuan Su,  A. J. W. Thom,  A. Tkatchenko,  T. Tsuchimochi,  N. M. Tubman,  
 L. Vogt,  M. L. Vidal,  O. Vydrov,  M. A. Watson,  J. Wenzel,  
 M. de Wergifosse,  T. A. Wesolowski,  A. White,  J. Witte,  A. Yamada,  
 Jun Yang,  K. Yao,  S. Yeganeh,  S. R. Yost,  Zhi-Qiang You,  A. Zech,  
 Igor Ying Zhang,  Xing Zhang,  Yan Zhao,  Ying Zhu,  B. R. Brooks,  
 G. K. L. Chan,  C. J. Cramer,  M. S. Gordon,  W. J. Hehre,  A. Klamt,  
 M. W. Schmidt,  C. D. Sherrill,  D. G. Truhlar,  A. Aspuru-Guzik,  R. Baer,  
 A. T. Bell,  N. A. Besley,  Jeng-Da Chai,  A. E. DePrince, III,  
 R. A. DiStasio Jr.,  A. Dreuw,  B. D. Dunietz,  T. R. Furlani,  
 Chao-Ping Hsu,  Yousung Jung,  Jing Kong,  D. S. Lambrecht,  WanZhen Liang,  
 C. Ochsenfeld,  V. A. Rassolov,  L. V. Slipchenko,  J. E. Subotnik,  
 T. Van Voorhis,  J. M. Herbert,  A. I. Krylov,  P. M. W. Gill,  M. Head-Gordon

 Contributors to earlier versions of Q-Chem not listed above: 
 R. D. Adamson,  B. Austin,  J. Baker,  G. J. O. Beran,  K. Brandhorst,  
 S. T. Brown,  E. F. C. Byrd,  A. K. Chakraborty,  C.-L. Cheng,  
 Siu Hung Chien,  D. M. Chipman,  D. L. Crittenden,  H. Dachsel,  
 R. J. Doerksen,  A. D. Dutoi,  L. Fusti-Molnar,  W. A. Goddard III,  
 A. Golubeva-Zadorozhnaya,  S. R. Gwaltney,  G. Hawkins,  A. Heyden,  
 S. Hirata,  G. Kedziora,  F. J. Keil,  C. Kelley,  Jihan Kim,  R. A. King,  
 R. Z. Khaliullin,  P. P. Korambath,  W. Kurlancheek,  A. M. Lee,  M. S. Lee,  
 S. V. Levchenko,  Ching Yeh Lin,  D. Liotard,  R. C. Lochan,  I. Lotan,  
 P. E. Maslen,  N. Nair,  D. P. O'Neill,  D. Neuhauser,  E. Neuscamman,  
 C. M. Oana,  R. Olson,  B. Peters,  R. Peverati,  P. A. Pieniazek,  
 Y. M. Rhee,  J. Ritchie,  M. A. Rohrdanz,  E. Rosta,  N. J. Russ,  
 H. F. Schaefer III,  N. E. Schultz,  N. Shenvi,  A. C. Simmonett,  A. Sodt,  
 D. Stuck,  K. S. Thanthiriwatte,  V. Vanovschi,  Tao Wang,  A. Warshel,  
 C. F. Williams,  Q. Wu,  X. Xu,  W. Zhang

 Please cite Q-Chem as follows:
 Y. Shao et al., Mol. Phys. 113, 184-215 (2015)
 DOI: 10.1080/00268976.2014.952696

 Q-Chem 5.1.1 for Intel X86 EM64T Linux

 Parts of Q-Chem use Armadillo 8.300.2 (Tropical Shenanigans).
 http://arma.sourceforge.net/

 Q-Chem begins on Mon Mar 11 20:34:57 2019  

Host: 
0

     Scratch files written to /staging/scratch/2858534/qchem14486//
 Aug318 |scratch|qcdevops|jenkins|workspace|build_RNUM 6013   
Processing $rem in /usr/usc/qchem/5.1.1/config/preferences.
 MEM_TOTAL  2000 
Input Ideriv = 2
Curr. Ideriv = -1
Max.  Ideriv = 2

Checking the input file for inconsistencies... 	...done.

--------------------------------------------------------------
User input:
--------------------------------------------------------------

$comment
potential surface scanner
$end

$rem
JOBTYPE  PES_SCAN
UNRESTRICTED TRUE
SYM_IGNORE  TRUE
GEOM_OPT_MAX_CYCLES 400
SCF_MAX_CYCLES 400
METHOD   B3LYP
BASIS   6-31G**
PDB_PRINT 2
SCF_CONVERGENCE 6
THRESH 14
SCF_PRINT 1
$end
$molecule
0 3
Cl 2.457723 -2.095290 -0.556552
C -0.947162 0.759358 -0.273463
C 0.326168 1.152625 0.396086
C -1.498707 -0.593548 0.197828
H -0.805991 0.745880 -1.363134
H -1.718669 1.532417 -0.097839
H 0.515234 0.871726 1.428091
H 1.003957 1.865172 -0.062201
H -1.653602 -0.594690 1.282717
H -2.459547 -0.816627 -0.276876
H -0.803804 -1.405421 -0.039958
$end
$scan
stre 1 3 3.900000 3.901000 0.100000
$end
--------------------------------------------------------------
 ----------------------------------------------------------------
             Standard Nuclear Orientation (Angstroms)
    I     Atom           X                Y                Z
 ----------------------------------------------------------------
    1      Cl      2.4577230000    -2.0952900000    -0.5565520000
    2      C      -0.9471620000     0.7593580000    -0.2734630000
    3      C       0.3261680000     1.1526250000     0.3960860000
    4      C      -1.4987070000    -0.5935480000     0.1978280000
    5      H      -0.8059910000     0.7458800000    -1.3631340000
    6      H      -1.7186690000     1.5324170000    -0.0978390000
    7      H       0.5152340000     0.8717260000     1.4280910000
    8      H       1.0039570000     1.8651720000    -0.0622010000
    9      H      -1.6536020000    -0.5946900000     1.2827170000
   10      H      -2.4595470000    -0.8166270000    -0.2768760000
   11      H      -0.8038040000    -1.4054210000    -0.0399580000
 ----------------------------------------------------------------
 Nuclear Repulsion Energy =   128.1783857907 hartrees
 There are       22 alpha and       20 beta electrons
 Requested basis set is 6-31G(d,p)
 There are 38 shells and 99 basis functions

 Total QAlloc Memory Limit   2000 MB
 Mega-Array Size       188 MB
 MEM_STATIC part       192 MB
A total of 1 constraints
  
            1
    1   1.0100000
    2   1.0100000
    3   3.0100000
    4   3.9000000
    5   3.9010000
    6   0.1000000
    7   0.0000000
    8   0.0000000
    9   0.0000000
   10   0.0000000

                       Distance Matrix (Angstroms)
             Cl(  1)   C (  2)   C (  3)   C (  4)   H (  5)   H (  6)
   C (  2)  4.452235
   C (  3)  4.000000  1.491417
   C (  4)  4.298564  1.535146  2.533495
   H (  5)  4.401665  1.098860  2.131216  2.170374
   H (  6)  5.550939  1.106204  2.137653  2.157668  1.747167
   H (  7)  4.063897  2.246445  1.086133  2.777865  3.090697  2.784833
   H (  8)  4.247714  2.252625  1.084965  3.517989  2.494224  2.743117
   H (  9)  4.747389  2.180413  2.785447  1.095891  3.084818  2.536681
   H ( 10)  5.088491  2.184273  3.477217  1.094679  2.521038  2.469608
   H ( 11)  3.373477  2.182050  2.830295  1.094792  2.525648  3.077535
             H (  7)   H (  8)   H (  9)   H ( 10)
   H (  8)  1.856544
   H (  9)  2.622091  3.862945
   H ( 10)  3.821880  4.385657  1.769501
   H ( 11)  3.013375  3.737014  1.768873  1.773216
 
 A cutoff of  1.0D-14 yielded    690 shell pairs
 There are      4741 function pairs
 
 -------------------------------------------------------
 OpenMP Integral Computing Module                       
 Release: version 1.0, May 2013, Q-Chem Inc. Pittsburgh 
 -------------------------------------------------------
 Integral Job Info:
 Integral job number is                      11
 Integral operator is                         1
 short-range coefficients                     0
 long-range coefficients              100000000
 Omega coefficients                           0
 if combine SR and LR in K                    0
 Integral screening is                        0
 Integral computing path is                   2
 max size of driver memory is            800000
 size of driver memory is                593474
 size of scratch memory is             15267112
 max col of scratch BK array               1296
 max len of scratch array in speh3          155
 max len of scratch index in speh4           18
 max int batch size is                      520
 min int batch size is                       52
 fixed nKL is                                52
 max L of basis functions is                  2
 order of int derivative is                   0
 number of shells is                         38
 number of basis is                          99
 number of cartesian basis is                99
 number of contracted shell pairs           690
 number of primitive shell pairs           2466
 maxK2 (contraction) of shell pair           36
 max number of K2 of shell pair               1
 max number of CS2 of shell pair             57
 max number of PS2 of shell pair            210
 mem total for path MDJ                  512642
 -------------------------------------------------------
 Smallest overlap matrix eigenvalue = 6.24E-03

 Scale SEOQF with 1.000000e-01/1.000000e-01/1.000000e+00

 Standard Electronic Orientation quadrupole field applied
 Nucleus-field energy     =    -0.0000000015 hartrees
 Guess from superposition of atomic densities
 Warning:  Energy on first SCF cycle will be non-variational
 SAD guess density has 42.000000 electrons

 -----------------------------------------------------------------------
  General SCF calculation program by
  Eric Jon Sundstrom, Paul Horn, Yuezhi Mao, Dmitri Zuev, Alec White,
  David Stuck, Shaama M.S., Shane Yost, Joonho Lee, David Small,
  Daniel Levine, Susi Lehtola, Hugh Burton, Evgeny Epifanovsky
 -----------------------------------------------------------------------
 Exchange:     0.2000 Hartree-Fock + 0.0800 Slater + 0.7200 B88
 Correlation:  0.1900 VWN1RPA + 0.8100 LYP
 Using SG-1 standard quadrature grid
 using 12 threads for integral computing
 -------------------------------------------------------
 OpenMP Integral computing Module                
 Release: version 1.0, May 2013, Q-Chem Inc. Pittsburgh 
 -------------------------------------------------------
 -------------------------------------------------------
 OpenMP BLAS3 based DFT computing Module                
 Release: version 1.0, May 2013, Q-Chem Inc. Pittsburgh 
 -------------------------------------------------------
 A unrestricted SCF calculation will be
 performed using DIIS
 SCF converges when DIIS error is below 1.0e-06
 Alpha HF Exchange    Energy =  -4.53868124737021
 Beta HF Exchange     Energy =  -4.53868124737021
 DFT Correlation      Energy =  -1.88420579973431
 DFT Exchange         Energy = -35.69528135359212
 One-Electron (alpha) Energy = -522.07990217835447
 One-Electron (beta)  Energy = -522.07990217835447
 Total Coulomb        Energy = 383.82224950350388
 ---------------------------------------
  Cycle       Energy         DIIS error
 ---------------------------------------
    1    -578.8160187121      2.82e-02  
 Alpha HF Exchange    Energy =  -4.67573710199089
 Beta HF Exchange     Energy =  -4.47889715634257
 DFT Correlation      Energy =  -1.90213445500466
 DFT Exchange         Energy = -36.29344932429348
 One-Electron (alpha) Energy = -537.06995564912029
 One-Electron (beta)  Energy = -513.20710077602178
 Total Coulomb        Energy = 390.91495562351008
    2    -578.5339330501      3.86e-03  
 Alpha HF Exchange    Energy =  -4.62389066028093
 Beta HF Exchange     Energy =  -4.43110698270669
 DFT Correlation      Energy =  -1.87486572315059
 DFT Exchange         Energy = -35.88714652569605
 One-Electron (alpha) Energy = -534.07170043899441
 One-Electron (beta)  Energy = -511.97128261135623
 Total Coulomb        Energy = 386.58330315762521
    3    -578.0983039954      7.30e-03  
 Alpha HF Exchange    Energy =  -4.64038811139696
 Beta HF Exchange     Energy =  -4.44757915200301
 DFT Correlation      Energy =  -1.88649724587891
 DFT Exchange         Energy = -36.01379374427599
 One-Electron (alpha) Energy = -535.06227983185011
 One-Electron (beta)  Energy = -511.18451095399422
 Total Coulomb        Energy = 386.46108756982483
    4    -578.5955756804      1.89e-03  
 Alpha HF Exchange    Energy =  -4.65141683262861
 Beta HF Exchange     Energy =  -4.45485748476821
 DFT Correlation      Energy =  -1.88919148721066
 DFT Exchange         Energy = -36.08597986825014
 One-Electron (alpha) Energy = -535.72874175983952
 One-Electron (beta)  Energy = -511.66156622857613
 Total Coulomb        Energy = 387.68042388549998
    5    -578.6129439866      8.49e-04  
 Alpha HF Exchange    Energy =  -4.65167401444528
 Beta HF Exchange     Energy =  -4.45454771630724
 DFT Correlation      Energy =  -1.88844539889489
 DFT Exchange         Energy = -36.08442676363962
 One-Electron (alpha) Energy = -535.78294921731401
 One-Electron (beta)  Energy = -511.63871523867010
 Total Coulomb        Energy = 387.70540865934072
    6    -578.6169639008      3.50e-04  
 Alpha HF Exchange    Energy =  -4.65155936426332
 Beta HF Exchange     Energy =  -4.45391633935405
 DFT Correlation      Energy =  -1.88810233577636
 DFT Exchange         Energy = -36.08104160004894
 One-Electron (alpha) Energy = -535.77367140191950
 One-Electron (beta)  Energy = -511.60380354386967
 Total Coulomb        Energy = 387.65608271308110
    7    -578.6176260830      1.07e-04  
 Alpha HF Exchange    Energy =  -4.65184777233687
 Beta HF Exchange     Energy =  -4.45413859773336
 DFT Correlation      Energy =  -1.88809452254323
 DFT Exchange         Energy = -36.08293877625690
 One-Electron (alpha) Energy = -535.80109781718932
 One-Electron (beta)  Energy = -511.62019824680931
 Total Coulomb        Energy = 387.70222932242638
    8    -578.6177006213      1.83e-05  
 Alpha HF Exchange    Energy =  -4.65180850585577
 Beta HF Exchange     Energy =  -4.45412247274889
 DFT Correlation      Energy =  -1.88807097913283
 DFT Exchange         Energy = -36.08270248541128
 One-Electron (alpha) Energy = -535.79832872756958
 One-Electron (beta)  Energy = -511.61814323050913
 Total Coulomb        Energy = 387.69708806155529
    9    -578.6177025505      5.07e-06  
 Alpha HF Exchange    Energy =  -4.65181352898548
 Beta HF Exchange     Energy =  -4.45412372961339
 DFT Correlation      Energy =  -1.88807161879040
 DFT Exchange         Energy = -36.08272827252849
 One-Electron (alpha) Energy = -535.79868289608578
 One-Electron (beta)  Energy = -511.61861107587413
 Total Coulomb        Energy = 387.69794263565791
   10    -578.6177026971      1.78e-06  
 Alpha HF Exchange    Energy =  -4.65181246862360
 Beta HF Exchange     Energy =  -4.45412798967695
 DFT Correlation      Energy =  -1.88807183164503
 DFT Exchange         Energy = -36.08274091054207
 One-Electron (alpha) Energy = -535.79874050686078
 One-Electron (beta)  Energy = -511.61896005134145
 Total Coulomb        Energy = 387.69836524227389
   11    -578.6177027273      4.29e-07  Convergence criterion met
 ---------------------------------------
 SCF time:   CPU 23.92s  wall 2.00s 
<S^2> =          2.005546036
 Alpha HF Exchange    Energy =  -4.65181246862360
 Beta HF Exchange     Energy =  -4.45412798967695
 DFT Correlation      Energy =  -1.88807183164503
 DFT Exchange         Energy = -36.08274091054207
 One-Electron (alpha) Energy = -535.79874050686078
 One-Electron (beta)  Energy = -511.61896005134145
 Total Coulomb        Energy = 387.69836524227389
 Nuclear repulsion Energy = 128.17838578915044
 SCF   energy in the final basis set =     -578.6177027273
 Total energy in the final basis set =     -578.6177027273
 
 --------------------------------------------------------------
 
                    Orbital Energies (a.u.)
 --------------------------------------------------------------
 
 Alpha MOs
 -- Occupied --
******* -10.184 -10.183 -10.172  -9.508  -7.283  -7.260  -7.260
 -0.843  -0.777  -0.670  -0.577  -0.450  -0.435  -0.405  -0.401
 -0.356  -0.351  -0.350  -0.346  -0.337  -0.194
 -- Virtual --
  0.105   0.141   0.148   0.154   0.175   0.187   0.203   0.245
  0.280   0.333   0.397   0.412   0.442   0.511   0.522   0.568
  0.577   0.593   0.639   0.671   0.708   0.782   0.796   0.797
  0.800   0.828   0.840   0.843   0.856   0.878   0.912   0.922
  0.945   0.952   0.989   1.191   1.305   1.415   1.451   1.540
  1.675   1.724   1.829   1.854   1.904   1.973   2.026   2.056
  2.073   2.110   2.123   2.250   2.261   2.303   2.356   2.424
  2.466   2.525   2.590   2.671   2.705   2.751   2.811   2.869
  2.888   2.931   3.189   3.276   3.296   3.417   3.442   3.511
  3.549   4.159   4.239   4.406   4.624
 
 Beta MOs
 -- Occupied --
******* -10.185 -10.172 -10.169  -9.502  -7.261  -7.256  -7.256
 -0.789  -0.768  -0.652  -0.562  -0.444  -0.428  -0.396  -0.349
 -0.342  -0.335  -0.333  -0.332
 -- Virtual --
 -0.243  -0.035   0.107   0.150   0.153   0.159   0.176   0.189
  0.208   0.250   0.287   0.349   0.425   0.438   0.449   0.514
  0.525   0.570   0.582   0.632   0.668   0.675   0.717   0.810
  0.835   0.847   0.853   0.857   0.858   0.861   0.867   0.882
  0.916   0.927   0.948   0.970   0.992   1.201   1.317   1.433
  1.465   1.555   1.680   1.732   1.832   1.883   1.911   2.017
  2.032   2.056   2.074   2.116   2.126   2.256   2.270   2.304
  2.362   2.434   2.475   2.546   2.604   2.679   2.711   2.753
  2.814   2.872   2.891   2.934   3.190   3.283   3.299   3.420
  3.445   3.516   3.553   4.180   4.262   4.415   4.627
 --------------------------------------------------------------
 
          Ground-State Mulliken Net Atomic Charges

     Atom                 Charge (a.u.)    Spin (a.u.)
  --------------------------------------------------------
      1 Cl                    0.001265       1.003099
      2 C                    -0.183198      -0.075833
      3 C                    -0.215982       1.077888
      4 C                    -0.319156       0.011738
      5 H                     0.101460       0.016313
      6 H                     0.105931       0.060491
      7 H                     0.096839      -0.047711
      8 H                     0.096425      -0.047986
      9 H                     0.102584      -0.000852
     10 H                     0.098433       0.001505
     11 H                     0.115399       0.001348
  --------------------------------------------------------
  Sum of atomic charges =    -0.000000
  Sum of spin   charges =     2.000000

 -----------------------------------------------------------------
                    Cartesian Multipole Moments
 -----------------------------------------------------------------
    Charge (ESU x 10^10)
                 0.0000
    Dipole Moment (Debye)
         X      -0.1888      Y       0.0460      Z      -0.0749
       Tot       0.2082
    Quadrupole Moments (Debye-Ang)
        XX     -33.5602     XY       0.0507     YY     -33.7918
        XZ       0.2268     YZ      -0.8775     ZZ     -31.2058
    Octopole Moments (Debye-Ang^2)
       XXX     -49.7984    XXY      19.1745    XYY     -14.7842
       YYY      54.3652    XXZ       4.9660    XYZ      -1.7697
       YYZ       5.8187    XZZ     -11.4266    YZZ      14.9352
       ZZZ      11.8238
    Hexadecapole Moments (Debye-Ang^3)
      XXXX    -668.2421   XXXY     182.4268   XXYY    -190.8260
      XYYY     181.0906   YYYY    -491.6490   XXXZ      53.6275
      XXYZ     -19.5509   XYYZ      22.4429   YYYZ     -55.6250
      XXZZ    -115.0534   XYZZ      52.8058   YYZZ     -92.3036
      XZZZ      42.2373   YZZZ     -40.4847   ZZZZ     -83.1387
 -----------------------------------------------------------------
 Calculating analytic gradient of the SCF energy
 Gradient of SCF Energy
            1           2           3           4           5           6
    1  -0.0001455  -0.0000950   0.0001049   0.0000182   0.0000659   0.0000475
    2   0.0000035   0.0000330  -0.0000909   0.0001857  -0.0000248  -0.0000798
    3   0.0001444   0.0000277  -0.0000419   0.0000431  -0.0000424  -0.0000025
            7           8           9          10          11
    1   0.0000194   0.0000613   0.0000595  -0.0000038  -0.0001325
    2  -0.0000120  -0.0000909   0.0000591   0.0000601  -0.0000429
    3   0.0000315  -0.0000135   0.0000488   0.0000050  -0.0002001
 Max gradient component =       2.001E-04
 RMS gradient           =       8.020E-05
 Gradient time:  CPU 7.55 s  wall 0.80 s
 Geometry Optimization Parameters
   NAtoms,    NIC,     NZ,  NCons,   NDum,   NFix, NCnnct, MaxDiis
       11      66       0       1       0       0       0       0


** CONSTRAINED OPTIMIZATION IN DELOCALIZED INTERNAL COORDINATES **
   Searching for a Minimum

   Optimization Cycle:   1

                       Coordinates (Angstroms)
     ATOM                X               Y               Z
      1  Cl        2.4577230000   -2.0952900000   -0.5565520000
      2  C        -0.9471620000    0.7593580000   -0.2734630000
      3  C         0.3261680000    1.1526250000    0.3960860000
      4  C        -1.4987070000   -0.5935480000    0.1978280000
      5  H        -0.8059910000    0.7458800000   -1.3631340000
      6  H        -1.7186690000    1.5324170000   -0.0978390000
      7  H         0.5152340000    0.8717260000    1.4280910000
      8  H         1.0039570000    1.8651720000   -0.0622010000
      9  H        -1.6536020000   -0.5946900000    1.2827170000
     10  H        -2.4595470000   -0.8166270000   -0.2768760000
     11  H        -0.8038040000   -1.4054210000   -0.0399580000
   Point Group: c1    Number of degrees of freedom:    27


   Energy is   -578.617702727

              Constraints and their Current Values
                                        Value     Constraint
   Distance(Angs):        1   3             4.000000     3.900000

 Attempting to Generate Delocalized Internal Coordinates

   Using Lagrange Multiplier Algorithm


 28 Hessian modes will be used to form the next step
  Hessian Eigenvalues:
    -0.996067    0.011240    0.045000    0.045000    0.045646    0.046498
     0.071472    0.078307    0.081892    0.084470    0.112156    0.125686
     0.137732    0.143522    0.160000    0.160000    0.160000    0.216333
     0.288743    0.330053    0.332783    0.337865    0.338085    0.341406
     0.342775    0.352634    0.354011    1.003948

 Minimum Search - Taking P-RFO Step
 Searching for Lamda that Maximizes Along the Constraint modes Only
 Value Taken    Lamda =   0.01770539


 ********************************************
 ** ERROR IN DETERMINING Lamda IN CONFormD **
 ********************************************


 ** Scaling Hessian by  3.150333 **


 28 Hessian modes will be used to form the next step
  Hessian Eigenvalues:
    -0.987662    0.035411    0.141765    0.141765    0.143799    0.146483
     0.225160    0.246694    0.257986    0.266109    0.353329    0.395953
     0.433903    0.452143    0.504053    0.504053    0.504053    0.681521
     0.909637    1.012492    1.039775    1.048376    1.064386    1.065079
     1.075542    1.079855    1.110914    1.115252

 Minimum Search - Taking P-RFO Step
 Searching for Lamda that Maximizes Along the Constraint modes Only
 Value Taken    Lamda =   0.01799863
 Searching for Lamda that Minimizes Along All other modes
 Value Taken    Lamda =  -0.01710402
 Step Taken.  Stepsize is  0.185713

                             Maximum     Tolerance    Cnvgd?
         Gradient            0.188972       0.000300      NO
         Displacement        0.185710       0.001200      NO
         Energy change     *********       0.000001      NO


 New Cartesian Coordinates Obtained by Inverse Iteration

 Displacement from previous Coordinates is:  0.212006
 ----------------------------------------------------------------
             Standard Nuclear Orientation (Angstroms)
    I     Atom           X                Y                Z
 ----------------------------------------------------------------
    1      Cl      2.4592192168    -2.0092780083    -0.5485681514
    2      C      -0.9449486682     0.7521462851    -0.2767700485
    3      C       0.3352731048     1.1257245976     0.3916870496
    4      C      -1.5115247594    -0.5905733273     0.2020850526
    5      H      -0.8043639286     0.7325699997    -1.3664051340
    6      H      -1.7055641618     1.5367673918    -0.1046972036
    7      H       0.5198255576     0.8442424528     1.4243366412
    8      H       1.0247967124     1.8257095808    -0.0684724339
    9      H      -1.6648017737    -0.5877410646     1.2871822846
   10      H      -2.4751949764    -0.8089405278    -0.2690893834
   11      H      -0.8171163235    -1.3990253798    -0.0365896733
 ----------------------------------------------------------------
 Nuclear Repulsion Energy =   128.9517144778 hartrees
 There are       22 alpha and       20 beta electrons

                       Distance Matrix (Angstroms)
             Cl(  1)   C (  2)   C (  3)   C (  4)   H (  5)   H (  6)
   C (  2)  4.391776
   C (  3)  3.901726  1.491765
   C (  4)  4.282874  1.534017  2.528298
   H (  5)  4.340226  1.098841  2.131720  2.170471
   H (  6)  5.487885  1.106244  2.140180  2.158088  1.746655
   H (  7)  3.974441  2.246733  1.086120  2.771097  3.090985  2.787453
   H (  8)  4.122522  2.252959  1.084974  3.513481  2.495078  2.745846
   H (  9)  4.732684  2.181613  2.781758  1.095873  3.086276  2.540182
   H ( 10)  5.085997  2.186025  3.475383  1.094692  2.524289  2.474207
   H ( 11)  3.371781  2.168310  2.808164  1.092137  2.512423  3.068038
             H (  7)   H (  8)   H (  9)   H ( 10)
   H (  8)  1.856543
   H (  9)  2.615719  3.859596
   H ( 10)  3.817179  4.385381  1.768516
   H ( 11)  2.992318  3.713836  1.768933  1.775241
 
 Applying Cartesian multipole field
    Component          Value
    ---------          -----
     (2,0,0)        1.00000E-11
     (0,2,0)        2.00000E-11
     (0,0,2)       -3.00000E-10
 Nucleus-field energy     =    -0.0000000018 hartrees
 Requested basis set is 6-31G(d,p)
 There are 38 shells and 99 basis functions
 A cutoff of  1.0D-14 yielded    692 shell pairs
 There are      4769 function pairs
 Smallest overlap matrix eigenvalue = 6.23E-03
 Guess from superposition of atomic densities
 Warning:  Energy on first SCF cycle will be non-variational
 SAD guess density has 42.000000 electrons

 -----------------------------------------------------------------------
  General SCF calculation program by
  Eric Jon Sundstrom, Paul Horn, Yuezhi Mao, Dmitri Zuev, Alec White,
  David Stuck, Shaama M.S., Shane Yost, Joonho Lee, David Small,
  Daniel Levine, Susi Lehtola, Hugh Burton, Evgeny Epifanovsky
 -----------------------------------------------------------------------
 Exchange:     0.2000 Hartree-Fock + 0.0800 Slater + 0.7200 B88
 Correlation:  0.1900 VWN1RPA + 0.8100 LYP
 Using SG-1 standard quadrature grid
 using 12 threads for integral computing
 -------------------------------------------------------
 OpenMP Integral computing Module                
 Release: version 1.0, May 2013, Q-Chem Inc. Pittsburgh 
 -------------------------------------------------------
 -------------------------------------------------------
 OpenMP BLAS3 based DFT computing Module                
 Release: version 1.0, May 2013, Q-Chem Inc. Pittsburgh 
 -------------------------------------------------------
 A unrestricted SCF calculation will be
 performed using DIIS
 SCF converges when DIIS error is below 1.0e-06
 Alpha HF Exchange    Energy =  -4.53900228872183
 Beta HF Exchange     Energy =  -4.53900228872183
 DFT Correlation      Energy =  -1.88441456951536
 DFT Exchange         Energy = -35.69579924165390
 One-Electron (alpha) Energy = -522.85159996793186
 One-Electron (beta)  Energy = -522.85159996793186
 Total Coulomb        Energy = 384.59134414300320
 ---------------------------------------
  Cycle       Energy         DIIS error
 ---------------------------------------
    1    -578.8183597055      2.82e-02  
 Alpha HF Exchange    Energy =  -4.67594532312945
 Beta HF Exchange     Energy =  -4.47898300798725
 DFT Correlation      Energy =  -1.90235716602169
 DFT Exchange         Energy = -36.29458743392581
 One-Electron (alpha) Energy = -537.90195743345043
 One-Electron (beta)  Energy = -513.93088233269543
 Total Coulomb        Energy = 391.69950570075940
    2    -578.5334925205      3.86e-03  
 Alpha HF Exchange    Energy =  -4.62403706801638
 Beta HF Exchange     Energy =  -4.43131816268775
 DFT Correlation      Energy =  -1.87499562434438
 DFT Exchange         Energy = -35.88806157463279
 One-Electron (alpha) Energy = -534.89901070203553
 One-Electron (beta)  Energy = -512.68844977427364
 Total Coulomb        Energy = 387.35644938674926
    3    -578.0977090433      7.32e-03  
 Alpha HF Exchange    Energy =  -4.64060682182332
 Beta HF Exchange     Energy =  -4.44761657538717
 DFT Correlation      Energy =  -1.88673237420048
 DFT Exchange         Energy = -36.01476654943331
 One-Electron (alpha) Energy = -535.89335210038985
 One-Electron (beta)  Energy = -511.90102091282063
 Total Coulomb        Energy = 387.23703056693427
    4    -578.5953502911      1.89e-03  
 Alpha HF Exchange    Energy =  -4.65162976401747
 Beta HF Exchange     Energy =  -4.45494674708251
 DFT Correlation      Energy =  -1.88941164614921
 DFT Exchange         Energy = -36.08706486934818
 One-Electron (alpha) Energy = -536.56040752111221
 One-Electron (beta)  Energy = -512.38104150489835
 Total Coulomb        Energy = 388.45993925204550
    5    -578.6128483246      8.50e-04  
 Alpha HF Exchange    Energy =  -4.65187017101052
 Beta HF Exchange     Energy =  -4.45464910801996
 DFT Correlation      Energy =  -1.88865864849225
 DFT Exchange         Energy = -36.08546649690761
 One-Electron (alpha) Energy = -536.61365208919426
 One-Electron (beta)  Energy = -512.35854870919002
 Total Coulomb        Energy = 388.48423872691848
    6    -578.6168920199      3.50e-04  
 Alpha HF Exchange    Energy =  -4.65174415035176
 Beta HF Exchange     Energy =  -4.45402238240015
 DFT Correlation      Energy =  -1.88831423365041
 DFT Exchange         Energy = -36.08205241422974
 One-Electron (alpha) Energy = -536.60374483943747
 One-Electron (beta)  Energy = -512.32394594856999
 Total Coulomb        Energy = 388.43455760649312
    7    -578.6175518862      1.07e-04  
 Alpha HF Exchange    Energy =  -4.65202867327102
 Beta HF Exchange     Energy =  -4.45424761432910
 DFT Correlation      Energy =  -1.88830666279856
 DFT Exchange         Energy = -36.08394707987692
 One-Electron (alpha) Energy = -536.63095341802784
 One-Electron (beta)  Energy = -512.34060407964978
 Total Coulomb        Energy = 388.48074647746552
    8    -578.6176265745      1.86e-05  
 Alpha HF Exchange    Energy =  -4.65198831110290
 Beta HF Exchange     Energy =  -4.45423147419013
 DFT Correlation      Energy =  -1.88828296575581
 DFT Exchange         Energy = -36.08370671992360
 One-Electron (alpha) Energy = -536.62812071995859
 One-Electron (beta)  Energy = -512.33859058462224
 Total Coulomb        Energy = 388.47557770647717
    9    -578.6176285931      5.13e-06  
 Alpha HF Exchange    Energy =  -4.65199324985287
 Beta HF Exchange     Energy =  -4.45423271384417
 DFT Correlation      Energy =  -1.88828360723362
 DFT Exchange         Energy = -36.08373230755391
 One-Electron (alpha) Energy = -536.62847089761442
 One-Electron (beta)  Energy = -512.33908208868274
 Total Coulomb        Energy = 388.47645162514027
   10    -578.6176287637      1.87e-06  
 Alpha HF Exchange    Energy =  -4.65199213455611
 Beta HF Exchange     Energy =  -4.45423703518806
 DFT Correlation      Energy =  -1.88828384600430
 DFT Exchange         Energy = -36.08374509285088
 One-Electron (alpha) Energy = -536.62852391612171
 One-Electron (beta)  Energy = -512.33944123936396
 Total Coulomb        Energy = 388.47687996866654
   11    -578.6176288194      6.72e-07  Convergence criterion met
 ---------------------------------------
 SCF time:   CPU 24.72s  wall 2.00s 
<S^2> =          2.005548240
 Alpha HF Exchange    Energy =  -4.65199213455611
 Beta HF Exchange     Energy =  -4.45423703518806
 DFT Correlation      Energy =  -1.88828384600430
 DFT Exchange         Energy = -36.08374509285088
 One-Electron (alpha) Energy = -536.62852391612171
 One-Electron (beta)  Energy = -512.33944123936396
 Total Coulomb        Energy = 388.47687996866654
 Nuclear repulsion Energy = 128.95171447597099
 SCF   energy in the final basis set =     -578.6176288194
 Total energy in the final basis set =     -578.6176288194
 
 --------------------------------------------------------------
 
                    Orbital Energies (a.u.)
 --------------------------------------------------------------
 
 Alpha MOs
 -- Occupied --
******* -10.184 -10.183 -10.172  -9.508  -7.283  -7.260  -7.260
 -0.843  -0.778  -0.669  -0.577  -0.450  -0.436  -0.405  -0.401
 -0.355  -0.351  -0.349  -0.346  -0.338  -0.194
 -- Virtual --
  0.105   0.141   0.148   0.155   0.174   0.187   0.203   0.245
  0.280   0.333   0.397   0.411   0.441   0.511   0.523   0.568
  0.578   0.594   0.646   0.672   0.709   0.783   0.796   0.797
  0.801   0.828   0.840   0.844   0.856   0.878   0.912   0.922
  0.945   0.953   0.990   1.193   1.306   1.414   1.452   1.541
  1.676   1.725   1.831   1.853   1.905   1.974   2.026   2.055
  2.074   2.111   2.122   2.251   2.264   2.304   2.356   2.425
  2.467   2.525   2.592   2.671   2.704   2.749   2.812   2.870
  2.890   2.932   3.191   3.276   3.296   3.416   3.443   3.512
  3.551   4.159   4.241   4.407   4.625
 
 Beta MOs
 -- Occupied --
******* -10.185 -10.171 -10.169  -9.502  -7.261  -7.256  -7.256
 -0.789  -0.769  -0.652  -0.562  -0.444  -0.429  -0.395  -0.348
 -0.342  -0.335  -0.333  -0.332
 -- Virtual --
 -0.243  -0.035   0.107   0.149   0.154   0.159   0.175   0.189
  0.208   0.250   0.286   0.349   0.425   0.438   0.448   0.514
  0.526   0.570   0.582   0.632   0.670   0.680   0.719   0.811
  0.836   0.848   0.853   0.857   0.858   0.861   0.867   0.882
  0.916   0.927   0.947   0.971   0.993   1.203   1.318   1.431
  1.466   1.556   1.681   1.733   1.834   1.882   1.911   2.018
  2.032   2.056   2.075   2.116   2.125   2.256   2.273   2.306
  2.362   2.435   2.476   2.545   2.606   2.679   2.710   2.752
  2.815   2.874   2.892   2.935   3.192   3.282   3.300   3.420
  3.446   3.517   3.555   4.181   4.264   4.416   4.628
 --------------------------------------------------------------
 
          Ground-State Mulliken Net Atomic Charges

     Atom                 Charge (a.u.)    Spin (a.u.)
  --------------------------------------------------------
      1 Cl                    0.001121       1.003716
      2 C                    -0.183254      -0.075771
      3 C                    -0.215486       1.077095
      4 C                    -0.318982       0.011625
      5 H                     0.101429       0.016377
      6 H                     0.105545       0.060421
      7 H                     0.096645      -0.047678
      8 H                     0.096352      -0.047902
      9 H                     0.102537      -0.000853
     10 H                     0.098256       0.001571
     11 H                     0.115837       0.001400
  --------------------------------------------------------
  Sum of atomic charges =    -0.000000
  Sum of spin   charges =     2.000000

 -----------------------------------------------------------------
                    Cartesian Multipole Moments
 -----------------------------------------------------------------
    Charge (ESU x 10^10)
                -0.0000
    Dipole Moment (Debye)
         X      -0.1844      Y       0.0509      Z      -0.0755
       Tot       0.2057
    Quadrupole Moments (Debye-Ang)
        XX     -33.5513     XY       0.0619     YY     -33.8540
        XZ       0.2081     YZ      -0.8416     ZZ     -31.1782
    Octopole Moments (Debye-Ang^2)
       XXX     -49.8757    XXY      18.3367    XYY     -14.9085
       YYY      51.8026    XXZ       4.8411    XYZ      -1.6637
       YYZ       5.5256    XZZ     -11.3804    YZZ      14.1027
       ZZZ      11.5896
    Hexadecapole Moments (Debye-Ang^3)
      XXXX    -670.6032   XXXY     174.4233   XXYY    -186.4654
      XYYY     173.1314   YYYY    -461.8472   XXXZ      52.8157
      XXYZ     -18.2700   XYYZ      21.5943   YYYZ     -51.6686
      XXZZ    -115.1211   XYZZ      50.1802   YYZZ     -87.3791
      XZZZ      41.6278   YZZZ     -37.8374   ZZZZ     -82.5048
 -----------------------------------------------------------------
 Calculating analytic gradient of the SCF energy
 Gradient of SCF Energy
            1           2           3           4           5           6
    1  -0.0001947   0.0002073   0.0003208   0.0004528   0.0000507  -0.0001678
    2   0.0002127  -0.0008728  -0.0006653  -0.0006984   0.0001428  -0.0002606
    3   0.0001783  -0.0005347   0.0002277   0.0002186  -0.0000626  -0.0001165
            7           8           9          10          11
    1   0.0000443   0.0000316  -0.0002082  -0.0002536  -0.0002833
    2   0.0000051  -0.0001005  -0.0000671   0.0001877   0.0021164
    3   0.0000465  -0.0000558   0.0000549   0.0002862  -0.0002427
 Max gradient component =       2.116E-03
 RMS gradient           =       4.783E-04
 Gradient time:  CPU 7.60 s  wall 0.80 s
 Geometry Optimization Parameters
   NAtoms,    NIC,     NZ,  NCons,   NDum,   NFix, NCnnct, MaxDiis
       11      66       0       1       0       0       0       0

 Cartesian Hessian Update
 Hessian Updated using BFGS Update


** CONSTRAINED OPTIMIZATION IN DELOCALIZED INTERNAL COORDINATES **
   Searching for a Minimum

   Optimization Cycle:   2

                       Coordinates (Angstroms)
     ATOM                X               Y               Z
      1  Cl        2.4592192168   -2.0092780083   -0.5485681514
      2  C        -0.9449486682    0.7521462851   -0.2767700485
      3  C         0.3352731048    1.1257245976    0.3916870496
      4  C        -1.5115247594   -0.5905733273    0.2020850526
      5  H        -0.8043639286    0.7325699997   -1.3664051340
      6  H        -1.7055641618    1.5367673918   -0.1046972036
      7  H         0.5198255576    0.8442424528    1.4243366412
      8  H         1.0247967124    1.8257095808   -0.0684724339
      9  H        -1.6648017737   -0.5877410646    1.2871822846
     10  H        -2.4751949764   -0.8089405278   -0.2690893834
     11  H        -0.8171163235   -1.3990253798   -0.0365896733
   Point Group: c1    Number of degrees of freedom:    27


   Energy is   -578.617628819

              Constraints and their Current Values
                                        Value     Constraint
   Distance(Angs):        1   3             3.901726     3.900000
 Hessian Updated using BFGS Update

   Using Lagrange Multiplier Algorithm


 27 Hessian modes will be used to form the next step
  Hessian Eigenvalues:
    -0.998541    0.035974    0.141745    0.141771    0.143802    0.146998
     0.225685    0.246915    0.257996    0.266178    0.353470    0.395994
     0.434426    0.452273    0.504053    0.538313    0.686871    0.916382
     1.001413    1.039771    1.048664    1.065078    1.075503    1.079546
     1.083025    1.110918    1.115252

 Minimum Search - Taking P-RFO Step
 Searching for Lamda that Maximizes Along the Constraint modes Only
 Value Taken    Lamda =   0.00000023
 Searching for Lamda that Minimizes Along All other modes
 Value Taken    Lamda =  -0.00003762
 Step Taken.  Stepsize is  0.008112

                             Maximum     Tolerance    Cnvgd?
         Gradient            0.003923       0.000300      NO
         Displacement        0.003975       0.001200      NO
         Energy change      0.000074       0.000001      NO


 New Cartesian Coordinates Obtained by Inverse Iteration

 Displacement from previous Coordinates is:  0.009691
 ----------------------------------------------------------------
             Standard Nuclear Orientation (Angstroms)
    I     Atom           X                Y                Z
 ----------------------------------------------------------------
    1      Cl      2.4564246551    -2.0091394026    -0.5469367713
    2      C      -0.9448273229     0.7524663008    -0.2763813447
    3      C       0.3356351674     1.1264630498     0.3912795010
    4      C      -1.5110405045    -0.5913057276     0.2015700679
    5      H      -0.8046562323     0.7333218333    -1.3660502851
    6      H      -1.7052342884     1.5371877751    -0.1035819523
    7      H       0.5208983016     0.8446411586     1.4236880027
    8      H       1.0244920445     1.8270971235    -0.0689174006
    9      H      -1.6641780115    -0.5884858389     1.2866476249
   10      H      -2.4746047698    -0.8094029397    -0.2698978857
   11      H      -0.8173090392    -1.4012413323    -0.0367205569
 ----------------------------------------------------------------
 Nuclear Repulsion Energy =   128.9707209609 hartrees
 There are       22 alpha and       20 beta electrons

                       Distance Matrix (Angstroms)
             Cl(  1)   C (  2)   C (  3)   C (  4)   H (  5)   H (  6)
   C (  2)  4.389554
   C (  3)  3.900000  1.491720
   C (  4)  4.279170  1.534522  2.529215
   H (  5)  4.338973  1.098814  2.131439  2.170495
   H (  6)  5.485654  1.106285  2.139797  2.159008  1.746731
   H (  7)  3.971610  2.246572  1.086100  2.772055  3.090651  2.787085
   H (  8)  4.122577  2.253018  1.084985  3.514365  2.494931  2.745297
   H (  9)  4.728600  2.181439  2.782443  1.095834  3.085897  2.540258
   H ( 10)  5.082437  2.186252  3.475943  1.094671  2.523941  2.475092
   H ( 11)  3.368559  2.170750  2.811006  1.092722  2.514684  3.070382
             H (  7)   H (  8)   H (  9)   H ( 10)
   H (  8)  1.856528
   H (  9)  2.616714  3.860252
   H ( 10)  3.818001  4.385796  1.768737
   H ( 11)  2.994592  3.716912  1.768915  1.775183
 
 Applying Cartesian multipole field
    Component          Value
    ---------          -----
     (2,0,0)        1.00000E-11
     (0,2,0)        2.00000E-11
     (0,0,2)       -3.00000E-10
 Nucleus-field energy     =    -0.0000000018 hartrees
 Requested basis set is 6-31G(d,p)
 There are 38 shells and 99 basis functions
 A cutoff of  1.0D-14 yielded    692 shell pairs
 There are      4769 function pairs
 Smallest overlap matrix eigenvalue = 6.23E-03
 Guess from superposition of atomic densities
 Warning:  Energy on first SCF cycle will be non-variational
 SAD guess density has 42.000000 electrons

 -----------------------------------------------------------------------
  General SCF calculation program by
  Eric Jon Sundstrom, Paul Horn, Yuezhi Mao, Dmitri Zuev, Alec White,
  David Stuck, Shaama M.S., Shane Yost, Joonho Lee, David Small,
  Daniel Levine, Susi Lehtola, Hugh Burton, Evgeny Epifanovsky
 -----------------------------------------------------------------------
 Exchange:     0.2000 Hartree-Fock + 0.0800 Slater + 0.7200 B88
 Correlation:  0.1900 VWN1RPA + 0.8100 LYP
 Using SG-1 standard quadrature grid
 using 12 threads for integral computing
 -------------------------------------------------------
 OpenMP Integral computing Module                
 Release: version 1.0, May 2013, Q-Chem Inc. Pittsburgh 
 -------------------------------------------------------
 -------------------------------------------------------
 OpenMP BLAS3 based DFT computing Module                
 Release: version 1.0, May 2013, Q-Chem Inc. Pittsburgh 
 -------------------------------------------------------
 A unrestricted SCF calculation will be
 performed using DIIS
 SCF converges when DIIS error is below 1.0e-06
 Alpha HF Exchange    Energy =  -4.53890992128731
 Beta HF Exchange     Energy =  -4.53890992128731
 DFT Correlation      Energy =  -1.88439779286337
 DFT Exchange         Energy = -35.69561771979274
 One-Electron (alpha) Energy = -522.87105538063145
 One-Electron (beta)  Energy = -522.87105538063145
 Total Coulomb        Energy = 384.61160428622031
 ---------------------------------------
  Cycle       Energy         DIIS error
 ---------------------------------------
    1    -578.8176208712      2.82e-02  
 Alpha HF Exchange    Energy =  -4.67589609166950
 Beta HF Exchange     Energy =  -4.47892818189763
 DFT Correlation      Energy =  -1.90233416276403
 DFT Exchange         Energy = -36.29421000169663
 One-Electron (alpha) Energy = -537.92186257829189
 One-Electron (beta)  Energy = -513.94829882159650
 Total Coulomb        Energy = 391.71724785633796
    2    -578.5335610225      3.86e-03  
 Alpha HF Exchange    Energy =  -4.62401155500870
 Beta HF Exchange     Energy =  -4.43128155714107
 DFT Correlation      Energy =  -1.87499925135331
 DFT Exchange         Energy = -35.88789394200154
 One-Electron (alpha) Energy = -534.92050344265590
 One-Electron (beta)  Energy = -512.71117653856436
 Total Coulomb        Energy = 387.38101524788129
    3    -578.0981300798      7.32e-03  
 Alpha HF Exchange    Energy =  -4.64056224740072
 Beta HF Exchange     Energy =  -4.44756934609804
 DFT Correlation      Energy =  -1.88671191458122
 DFT Exchange         Energy = -36.01443435654281
 One-Electron (alpha) Energy = -535.91348332160135
 One-Electron (beta)  Energy = -511.91879187959336
 Total Coulomb        Energy = 387.25547467779336
    4    -578.5953574289      1.89e-03  
 Alpha HF Exchange    Energy =  -4.65158751438067
 Beta HF Exchange     Energy =  -4.45490107001180
 DFT Correlation      Energy =  -1.88939172897253
 DFT Exchange         Energy = -36.08674766783058
 One-Electron (alpha) Energy = -536.58068647700702
 One-Electron (beta)  Energy = -512.39894267956572
 Total Coulomb        Energy = 388.47867840196255
    5    -578.6128577767      8.50e-04  
 Alpha HF Exchange    Energy =  -4.65183064035439
 Beta HF Exchange     Energy =  -4.45460626970448
 DFT Correlation      Energy =  -1.88863987651885
 DFT Exchange         Energy = -36.08517110959652
 One-Electron (alpha) Energy = -536.63413993142001
 One-Electron (beta)  Energy = -512.37662997006987
 Total Coulomb        Energy = 388.50339670844181
    6    -578.6169001301      3.50e-04  
 Alpha HF Exchange    Energy =  -4.65170526437023
 Beta HF Exchange     Energy =  -4.45397995768741
 DFT Correlation      Energy =  -1.88829559119965
 DFT Exchange         Energy = -36.08176076668371
 One-Electron (alpha) Energy = -536.62429353503796
 One-Electron (beta)  Energy = -512.34205470574034
 Total Coulomb        Energy = 388.45380866513352
    7    -578.6175601965      1.07e-04  
 Alpha HF Exchange    Energy =  -4.65199030557860
 Beta HF Exchange     Energy =  -4.45420547707459
 DFT Correlation      Energy =  -1.88828814439562
 DFT Exchange         Energy = -36.08365861745394
 One-Electron (alpha) Energy = -536.65154519223211
 One-Electron (beta)  Energy = -512.35873067940099
 Total Coulomb        Energy = 388.50006254076419
    8    -578.6176349163      1.86e-05  
 Alpha HF Exchange    Energy =  -4.65195001403318
 Beta HF Exchange     Energy =  -4.45418939829271
 DFT Correlation      Energy =  -1.88826446521117
 DFT Exchange         Energy = -36.08341878334622
 One-Electron (alpha) Energy = -536.64872084296098
 One-Electron (beta)  Energy = -512.35671820690879
 Total Coulomb        Energy = 388.49490381480189
    9    -578.6176369369      5.15e-06  
 Alpha HF Exchange    Energy =  -4.65195493506077
 Beta HF Exchange     Energy =  -4.45419057986618
 DFT Correlation      Energy =  -1.88826509023629
 DFT Exchange         Energy = -36.08344406267904
 One-Electron (alpha) Energy = -536.64906954372759
 One-Electron (beta)  Energy = -512.35720517168909
 Total Coulomb        Energy = 388.49577131500007
   10    -578.6176371092      1.87e-06  
 Alpha HF Exchange    Energy =  -4.65195384909986
 Beta HF Exchange     Energy =  -4.45419490786989
 DFT Correlation      Energy =  -1.88826533469032
 DFT Exchange         Energy = -36.08345699861814
 One-Electron (alpha) Energy = -536.64912517009623
 One-Electron (beta)  Energy = -512.35756527937781
 Total Coulomb        Energy = 388.49620341477782
   11    -578.6176371659      6.78e-07  Convergence criterion met
 ---------------------------------------
 SCF time:   CPU 24.40s  wall 2.00s 
<S^2> =          2.005547931
 Alpha HF Exchange    Energy =  -4.65195384909986
 Beta HF Exchange     Energy =  -4.45419490786989
 DFT Correlation      Energy =  -1.88826533469032
 DFT Exchange         Energy = -36.08345699861814
 One-Electron (alpha) Energy = -536.64912517009623
 One-Electron (beta)  Energy = -512.35756527937781
 Total Coulomb        Energy = 388.49620341477782
 Nuclear repulsion Energy = 128.97072095907939
 SCF   energy in the final basis set =     -578.6176371659
 Total energy in the final basis set =     -578.6176371659
 
 --------------------------------------------------------------
 
                    Orbital Energies (a.u.)
 --------------------------------------------------------------
 
 Alpha MOs
 -- Occupied --
******* -10.184 -10.183 -10.172  -9.508  -7.283  -7.260  -7.260
 -0.843  -0.777  -0.669  -0.577  -0.450  -0.435  -0.405  -0.401
 -0.355  -0.351  -0.349  -0.346  -0.338  -0.194
 -- Virtual --
  0.105   0.141   0.148   0.155   0.174   0.187   0.203   0.245
  0.280   0.333   0.397   0.411   0.441   0.511   0.523   0.568
  0.578   0.594   0.646   0.672   0.709   0.783   0.796   0.797
  0.801   0.828   0.840   0.844   0.856   0.879   0.912   0.922
  0.945   0.953   0.990   1.193   1.306   1.414   1.452   1.540
  1.675   1.725   1.831   1.853   1.905   1.974   2.026   2.056
  2.074   2.110   2.122   2.251   2.263   2.304   2.357   2.425
  2.467   2.525   2.591   2.671   2.704   2.749   2.812   2.870
  2.889   2.932   3.191   3.276   3.296   3.416   3.442   3.512
  3.550   4.159   4.241   4.407   4.624
 
 Beta MOs
 -- Occupied --
******* -10.185 -10.171 -10.169  -9.502  -7.261  -7.256  -7.256
 -0.789  -0.768  -0.652  -0.562  -0.444  -0.429  -0.395  -0.348
 -0.342  -0.335  -0.333  -0.332
 -- Virtual --
 -0.243  -0.035   0.107   0.150   0.154   0.159   0.176   0.189
  0.208   0.250   0.286   0.349   0.425   0.438   0.448   0.514
  0.526   0.570   0.582   0.632   0.670   0.680   0.719   0.811
  0.836   0.848   0.853   0.857   0.858   0.861   0.867   0.882
  0.916   0.927   0.947   0.971   0.993   1.203   1.318   1.432
  1.466   1.556   1.681   1.733   1.833   1.882   1.911   2.018
  2.032   2.056   2.075   2.116   2.125   2.256   2.272   2.305
  2.362   2.435   2.476   2.545   2.605   2.679   2.710   2.752
  2.815   2.874   2.892   2.935   3.192   3.282   3.300   3.419
  3.445   3.517   3.554   4.181   4.264   4.416   4.628
 --------------------------------------------------------------
 
          Ground-State Mulliken Net Atomic Charges

     Atom                 Charge (a.u.)    Spin (a.u.)
  --------------------------------------------------------
      1 Cl                    0.001126       1.003726
      2 C                    -0.183257      -0.075760
      3 C                    -0.215471       1.077121
      4 C                    -0.319033       0.011644
      5 H                     0.101447       0.016378
      6 H                     0.105582       0.060388
      7 H                     0.096614      -0.047678
      8 H                     0.096372      -0.047908
      9 H                     0.102550      -0.000852
     10 H                     0.098311       0.001565
     11 H                     0.115758       0.001377
  --------------------------------------------------------
  Sum of atomic charges =    -0.000000
  Sum of spin   charges =     2.000000

 -----------------------------------------------------------------
                    Cartesian Multipole Moments
 -----------------------------------------------------------------
    Charge (ESU x 10^10)
                -0.0000
    Dipole Moment (Debye)
         X      -0.1848      Y       0.0511      Z      -0.0754
       Tot       0.2060
    Quadrupole Moments (Debye-Ang)
        XX     -33.5540     XY       0.0627     YY     -33.8492
        XZ       0.2081     YZ      -0.8392     ZZ     -31.1793
    Octopole Moments (Debye-Ang^2)
       XXX     -49.7794    XXY      18.3372    XYY     -14.8904
       YYY      51.8059    XXZ       4.8136    XYZ      -1.6553
       YYZ       5.4973    XZZ     -11.3481    YZZ      14.0919
       ZZZ      11.5426
    Hexadecapole Moments (Debye-Ang^3)
      XXXX    -669.5095   XXXY     174.1718   XXYY    -186.3135
      XYYY     172.9056   YYYY    -461.9784   XXXZ      52.5690
      XXYZ     -18.1856   XYYZ      21.4822   YYYZ     -51.5156
      XXZZ    -114.9146   XYZZ      50.0800   YYZZ     -87.3484
      XZZZ      41.4273   YZZZ     -37.7205   ZZZZ     -82.3512
 -----------------------------------------------------------------
 Calculating analytic gradient of the SCF energy
 Gradient of SCF Energy
            1           2           3           4           5           6
    1  -0.0002011   0.0001505   0.0003094   0.0002482   0.0000629  -0.0001148
    2   0.0002174  -0.0006048  -0.0006015  -0.0006761   0.0001035  -0.0001456
    3   0.0001809  -0.0004132   0.0001583   0.0002038  -0.0000320  -0.0001204
            7           8           9          10          11
    1   0.0000259   0.0000490  -0.0001379  -0.0002143  -0.0001779
    2   0.0000040  -0.0000934  -0.0000318   0.0001558   0.0016723
    3   0.0000274  -0.0000483   0.0000264   0.0002492  -0.0002320
 Max gradient component =       1.672E-03
 RMS gradient           =       3.828E-04
 Gradient time:  CPU 7.61 s  wall 0.80 s
 Geometry Optimization Parameters
   NAtoms,    NIC,     NZ,  NCons,   NDum,   NFix, NCnnct, MaxDiis
       11      66       0       1       0       0       0       0

 Cartesian Hessian Update
 Hessian Updated using BFGS Update


** CONSTRAINED OPTIMIZATION IN DELOCALIZED INTERNAL COORDINATES **
   Searching for a Minimum

   Optimization Cycle:   3

                       Coordinates (Angstroms)
     ATOM                X               Y               Z
      1  Cl        2.4564246551   -2.0091394026   -0.5469367713
      2  C        -0.9448273229    0.7524663008   -0.2763813447
      3  C         0.3356351674    1.1264630498    0.3912795010
      4  C        -1.5110405045   -0.5913057276    0.2015700679
      5  H        -0.8046562323    0.7333218333   -1.3660502851
      6  H        -1.7052342884    1.5371877751   -0.1035819523
      7  H         0.5208983016    0.8446411586    1.4236880027
      8  H         1.0244920445    1.8270971235   -0.0689174006
      9  H        -1.6641780115   -0.5884858389    1.2866476249
     10  H        -2.4746047698   -0.8094029397   -0.2698978857
     11  H        -0.8173090392   -1.4012413323   -0.0367205569
   Point Group: c1    Number of degrees of freedom:    27


   Energy is   -578.617637166

              Constraints and their Current Values
                                        Value     Constraint
   Distance(Angs):        1   3             3.900000     3.900000
 Hessian Updated using BFGS Update

 26 Hessian modes will be used to form the next step
  Hessian Eigenvalues:
     0.023599    0.117572    0.141772    0.143440    0.144126    0.214194
     0.242269    0.257901    0.266147    0.272543    0.356790    0.396569
     0.437777    0.453114    0.504053    0.504364    0.667111    0.889087
     1.017617    1.040230    1.049362    1.065217    1.075728    1.079847
     1.110975    1.115279

 Minimum Search - Taking Simple RFO Step
 Searching for Lamda that Minimizes Along All modes
 Value Taken    Lamda =  -0.00003276
 Step Taken.  Stepsize is  0.027853

                             Maximum     Tolerance    Cnvgd?
         Gradient           0.001116      0.000300      NO
         Displacement       0.012488      0.001200      NO
         Energy change     -0.000008      0.000001      NO


 New Cartesian Coordinates Obtained by Inverse Iteration

 Displacement from previous Coordinates is:  0.041610
 ----------------------------------------------------------------
             Standard Nuclear Orientation (Angstroms)
    I     Atom           X                Y                Z
 ----------------------------------------------------------------
    1      Cl      2.4454487010    -2.0143971044    -0.5417498615
    2      C      -0.9442457087     0.7537973942    -0.2748410400
    3      C       0.3364373204     1.1310092791     0.3901783791
    4      C      -1.5081597665    -0.5939974765     0.1994501298
    5      H      -0.8056395135     0.7367463571    -1.3646874107
    6      H      -1.7050860526     1.5375366444    -0.0990064929
    7      H       0.5247137672     0.8480199276     1.4216748994
    8      H       1.0217089521     1.8352445133    -0.0699303260
    9      H      -1.6613321861    -0.5914811783     1.2844311865
   10      H      -2.4710571428    -0.8112706381    -0.2735970747
   11      H      -0.8171883707    -1.4096057182    -0.0372233890
 ----------------------------------------------------------------
 Nuclear Repulsion Energy =   129.0009095662 hartrees
 There are       22 alpha and       20 beta electrons

                       Distance Matrix (Angstroms)
             Cl(  1)   C (  2)   C (  3)   C (  4)   H (  5)   H (  6)
   C (  2)  4.384538
   C (  3)  3.900000  1.491539
   C (  4)  4.265903  1.536067  2.532699
   H (  5)  4.337694  1.098757  2.130572  2.170470
   H (  6)  5.480802  1.106365  2.138313  2.161318  1.747060
   H (  7)  3.967076  2.246082  1.086055  2.775936  3.089666  2.785662
   H (  8)  4.131512  2.253108  1.085009  3.517672  2.494453  2.743153
   H (  9)  4.714369  2.180669  2.785273  1.095743  3.084514  2.539396
   H ( 10)  5.068673  2.186457  3.477797  1.094602  2.521993  2.476709
   H ( 11)  3.356355  2.180119  2.822809  1.094839  2.523712  3.078608
             H (  7)   H (  8)   H (  9)   H ( 10)
   H (  8)  1.856476
   H (  9)  2.621030  3.862901
   H ( 10)  3.821235  4.386905  1.769580
   H ( 11)  3.004323  3.729835  1.768807  1.774587
 
 Applying Cartesian multipole field
    Component          Value
    ---------          -----
     (2,0,0)        1.00000E-11
     (0,2,0)        2.00000E-11
     (0,0,2)       -3.00000E-10
 Nucleus-field energy     =    -0.0000000017 hartrees
 Requested basis set is 6-31G(d,p)
 There are 38 shells and 99 basis functions
 A cutoff of  1.0D-14 yielded    692 shell pairs
 There are      4769 function pairs
 Smallest overlap matrix eigenvalue = 6.25E-03
 Guess from superposition of atomic densities
 Warning:  Energy on first SCF cycle will be non-variational
 SAD guess density has 42.000000 electrons

 -----------------------------------------------------------------------
  General SCF calculation program by
  Eric Jon Sundstrom, Paul Horn, Yuezhi Mao, Dmitri Zuev, Alec White,
  David Stuck, Shaama M.S., Shane Yost, Joonho Lee, David Small,
  Daniel Levine, Susi Lehtola, Hugh Burton, Evgeny Epifanovsky
 -----------------------------------------------------------------------
 Exchange:     0.2000 Hartree-Fock + 0.0800 Slater + 0.7200 B88
 Correlation:  0.1900 VWN1RPA + 0.8100 LYP
 Using SG-1 standard quadrature grid
 using 12 threads for integral computing
 -------------------------------------------------------
 OpenMP Integral computing Module                
 Release: version 1.0, May 2013, Q-Chem Inc. Pittsburgh 
 -------------------------------------------------------
 -------------------------------------------------------
 OpenMP BLAS3 based DFT computing Module                
 Release: version 1.0, May 2013, Q-Chem Inc. Pittsburgh 
 -------------------------------------------------------
 A unrestricted SCF calculation will be
 performed using DIIS
 SCF converges when DIIS error is below 1.0e-06
 Alpha HF Exchange    Energy =  -4.53860625072455
 Beta HF Exchange     Energy =  -4.53860625072455
 DFT Correlation      Energy =  -1.88433570600522
 DFT Exchange         Energy = -35.69502687497509
 One-Electron (alpha) Energy = -522.90275937833201
 One-Electron (beta)  Energy = -522.90275937833201
 Total Coulomb        Energy = 384.64594715023514
 ---------------------------------------
  Cycle       Energy         DIIS error
 ---------------------------------------
    1    -578.8152371243      2.82e-02  
 Alpha HF Exchange    Energy =  -4.67572866284674
 Beta HF Exchange     Energy =  -4.47875020166182
 DFT Correlation      Energy =  -1.90225139975649
 DFT Exchange         Energy = -36.29295559002659
 One-Electron (alpha) Energy = -537.95198343293498
 One-Electron (beta)  Energy = -513.97607550557950
 Total Coulomb        Energy = 391.74305188017058
    2    -578.5337833480      3.86e-03  
 Alpha HF Exchange    Energy =  -4.62392209314112
 Beta HF Exchange     Energy =  -4.43113812376310
 DFT Correlation      Energy =  -1.87501399396285
 DFT Exchange         Energy = -35.88729201178641
 One-Electron (alpha) Energy = -534.95559039749901
 One-Electron (beta)  Energy = -512.75732613703826
 Total Coulomb        Energy = 387.42977879875900
    3    -578.0995943938      7.30e-03  
 Alpha HF Exchange    Energy =  -4.64040621578794
 Beta HF Exchange     Energy =  -4.44741609593227
 DFT Correlation      Energy =  -1.88663501846909
 DFT Exchange         Energy = -36.01331296580122
 One-Electron (alpha) Energy = -535.94399774185592
 One-Electron (beta)  Energy = -511.94786278772938
 Total Coulomb        Energy = 387.28334083821670
    4    -578.5953804228      1.89e-03  
 Alpha HF Exchange    Energy =  -4.65144119185225
 Beta HF Exchange     Energy =  -4.45475130803381
 DFT Correlation      Energy =  -1.88931815373890
 DFT Exchange         Energy = -36.08568200538203
 One-Electron (alpha) Energy = -536.61181869458164
 One-Electron (beta)  Energy = -512.42839748217682
 Total Coulomb        Energy = 388.50761835815297
    5    -578.6128809130      8.49e-04  
 Alpha HF Exchange    Energy =  -4.65169367769929
 Beta HF Exchange     Energy =  -4.45446438083926
 DFT Correlation      Energy =  -1.88857028116153
 DFT Exchange         Energy = -36.08417456203890
 One-Electron (alpha) Energy = -536.66599232715816
 One-Electron (beta)  Energy = -512.40661317059710
 Total Coulomb        Energy = 388.53368137239278
    6    -578.6169174625      3.50e-04  
 Alpha HF Exchange    Energy =  -4.65157200104804
 Beta HF Exchange     Energy =  -4.45383983620671
 DFT Correlation      Energy =  -1.88822695000788
 DFT Exchange         Energy = -36.08078492889179
 One-Electron (alpha) Energy = -536.65644403949511
 One-Electron (beta)  Energy = -512.37215853524162
 Total Coulomb        Energy = 388.48453911263698
    7    -578.6175776137      1.07e-04  
 Alpha HF Exchange    Energy =  -4.65185870553372
 Beta HF Exchange     Energy =  -4.45406609510508
 DFT Correlation      Energy =  -1.88821989770636
 DFT Exchange         Energy = -36.08269229371093
 One-Electron (alpha) Energy = -536.68383892532984
 One-Electron (beta)  Energy = -512.38886841903786
 Total Coulomb        Energy = 388.53098242328286
    8    -578.6176523486      1.86e-05  
 Alpha HF Exchange    Energy =  -4.65181876644655
 Beta HF Exchange     Energy =  -4.45405018128741
 DFT Correlation      Energy =  -1.88819630799891
 DFT Exchange         Energy = -36.08245453463086
 One-Electron (alpha) Energy = -536.68104797345745
 One-Electron (beta)  Energy = -512.38685554074618
 Total Coulomb        Energy = 388.52585937247341
    9    -578.6176543675      5.20e-06  
 Alpha HF Exchange    Energy =  -4.65182364792304
 Beta HF Exchange     Energy =  -4.45405120171347
 DFT Correlation      Energy =  -1.88819688858216
 DFT Exchange         Energy = -36.08247898645523
 One-Electron (alpha) Energy = -536.68139415572330
 One-Electron (beta)  Energy = -512.38732773024867
 Total Coulomb        Energy = 388.52670850257749
   10    -578.6176545435      1.87e-06  
 Alpha HF Exchange    Energy =  -4.65182265480909
 Beta HF Exchange     Energy =  -4.45405553073824
 DFT Correlation      Energy =  -1.88819714650305
 DFT Exchange         Energy = -36.08249231332911
 One-Electron (alpha) Energy = -536.68145800615923
 One-Electron (beta)  Energy = -512.38768875397136
 Total Coulomb        Energy = 388.52715023903340
   11    -578.6176546019      6.90e-07  Convergence criterion met
 ---------------------------------------
 SCF time:   CPU 23.35s  wall 2.00s 
<S^2> =          2.005546809
 Alpha HF Exchange    Energy =  -4.65182265480909
 Beta HF Exchange     Energy =  -4.45405553073824
 DFT Correlation      Energy =  -1.88819714650305
 DFT Exchange         Energy = -36.08249231332911
 One-Electron (alpha) Energy = -536.68145800615923
 One-Electron (beta)  Energy = -512.38768875397136
 Total Coulomb        Energy = 388.52715023903340
 Nuclear repulsion Energy = 129.00090956458968
 SCF   energy in the final basis set =     -578.6176546019
 Total energy in the final basis set =     -578.6176546019
 
 --------------------------------------------------------------
 
                    Orbital Energies (a.u.)
 --------------------------------------------------------------
 
 Alpha MOs
 -- Occupied --
******* -10.184 -10.183 -10.172  -9.508  -7.283  -7.260  -7.260
 -0.843  -0.777  -0.670  -0.577  -0.450  -0.435  -0.405  -0.401
 -0.356  -0.351  -0.349  -0.346  -0.337  -0.194
 -- Virtual --
  0.105   0.141   0.148   0.155   0.174   0.187   0.203   0.245
  0.280   0.333   0.397   0.411   0.441   0.511   0.523   0.568
  0.578   0.595   0.646   0.671   0.708   0.783   0.796   0.797
  0.801   0.828   0.840   0.844   0.856   0.879   0.912   0.922
  0.945   0.953   0.989   1.193   1.306   1.415   1.452   1.540
  1.675   1.724   1.829   1.854   1.904   1.974   2.026   2.056
  2.073   2.110   2.122   2.250   2.262   2.303   2.357   2.425
  2.465   2.525   2.590   2.671   2.704   2.750   2.811   2.868
  2.888   2.930   3.189   3.277   3.296   3.416   3.442   3.512
  3.549   4.159   4.240   4.406   4.624
 
 Beta MOs
 -- Occupied --
******* -10.185 -10.172 -10.169  -9.502  -7.261  -7.256  -7.256
 -0.789  -0.768  -0.652  -0.562  -0.444  -0.428  -0.396  -0.349
 -0.342  -0.335  -0.333  -0.332
 -- Virtual --
 -0.243  -0.035   0.107   0.150   0.153   0.159   0.176   0.189
  0.208   0.250   0.286   0.349   0.425   0.438   0.448   0.514
  0.526   0.571   0.583   0.632   0.670   0.681   0.719   0.811
  0.836   0.848   0.853   0.857   0.858   0.861   0.867   0.882
  0.916   0.927   0.947   0.971   0.992   1.202   1.317   1.433
  1.466   1.555   1.680   1.732   1.832   1.882   1.911   2.018
  2.032   2.056   2.074   2.116   2.125   2.256   2.271   2.304
  2.362   2.435   2.474   2.546   2.604   2.679   2.711   2.752
  2.815   2.872   2.891   2.934   3.190   3.283   3.299   3.419
  3.445   3.517   3.553   4.181   4.263   4.416   4.627
 --------------------------------------------------------------
 
          Ground-State Mulliken Net Atomic Charges

     Atom                 Charge (a.u.)    Spin (a.u.)
  --------------------------------------------------------
      1 Cl                    0.001156       1.003721
      2 C                    -0.183246      -0.075729
      3 C                    -0.215437       1.077257
      4 C                    -0.319202       0.011706
      5 H                     0.101502       0.016383
      6 H                     0.105748       0.060297
      7 H                     0.096517      -0.047680
      8 H                     0.096438      -0.047932
      9 H                     0.102578      -0.000848
     10 H                     0.098495       0.001528
     11 H                     0.115452       0.001297
  --------------------------------------------------------
  Sum of atomic charges =    -0.000000
  Sum of spin   charges =     2.000000

 -----------------------------------------------------------------
                    Cartesian Multipole Moments
 -----------------------------------------------------------------
    Charge (ESU x 10^10)
                 0.0000
    Dipole Moment (Debye)
         X      -0.1869      Y       0.0514      Z      -0.0750
       Tot       0.2078
    Quadrupole Moments (Debye-Ang)
        XX     -33.5640     XY       0.0645     YY     -33.8290
        XZ       0.2101     YZ      -0.8317     ZZ     -31.1836
    Octopole Moments (Debye-Ang^2)
       XXX     -49.4079    XXY      18.3958    XYY     -14.8086
       YYY      51.9924    XXZ       4.7270    XYZ      -1.6294
       YYZ       5.4133    XZZ     -11.2297    YZZ      14.1070
       ZZZ      11.3924
    Hexadecapole Moments (Debye-Ang^3)
      XXXX    -665.0711   XXXY     173.7207   XXYY    -185.9992
      XYYY     172.5714   YYYY    -464.4064   XXXZ      51.7352
      XXYZ     -17.9654   XYYZ      21.1227   YYYZ     -51.2265
      XXZZ    -114.1159   XYZZ      49.8700   YYZZ     -87.5549
      XZZZ      40.7435   YZZZ     -37.4850   ZZZZ     -81.8566
 -----------------------------------------------------------------
 Calculating analytic gradient of the SCF energy
 Gradient of SCF Energy
            1           2           3           4           5           6
    1  -0.0002232  -0.0000890   0.0002550  -0.0003795   0.0000993   0.0000748
    2   0.0002194   0.0003014  -0.0003393  -0.0004144  -0.0000433   0.0001875
    3   0.0001879   0.0000516  -0.0000969   0.0000967   0.0000487  -0.0001062
            7           8           9          10          11
    1  -0.0000290   0.0000989   0.0001149  -0.0000465   0.0001244
    2  -0.0000012  -0.0000737   0.0000895   0.0000445   0.0000296
    3  -0.0000224  -0.0000183  -0.0000465   0.0000864  -0.0001809
 Max gradient component =       4.144E-04
 RMS gradient           =       1.667E-04
 Gradient time:  CPU 7.63 s  wall 0.80 s
 Geometry Optimization Parameters
   NAtoms,    NIC,     NZ,  NCons,   NDum,   NFix, NCnnct, MaxDiis
       11      66       0       1       0       0       0       0

 Cartesian Hessian Update
 Hessian Updated using BFGS Update


** CONSTRAINED OPTIMIZATION IN DELOCALIZED INTERNAL COORDINATES **
   Searching for a Minimum

   Optimization Cycle:   4

                       Coordinates (Angstroms)
     ATOM                X               Y               Z
      1  Cl        2.4454487010   -2.0143971044   -0.5417498615
      2  C        -0.9442457087    0.7537973942   -0.2748410400
      3  C         0.3364373204    1.1310092791    0.3901783791
      4  C        -1.5081597665   -0.5939974765    0.1994501298
      5  H        -0.8056395135    0.7367463571   -1.3646874107
      6  H        -1.7050860526    1.5375366444   -0.0990064929
      7  H         0.5247137672    0.8480199276    1.4216748994
      8  H         1.0217089521    1.8352445133   -0.0699303260
      9  H        -1.6613321861   -0.5914811783    1.2844311865
     10  H        -2.4710571428   -0.8112706381   -0.2735970747
     11  H        -0.8171883707   -1.4096057182   -0.0372233890
   Point Group: c1    Number of degrees of freedom:    27


   Energy is   -578.617654602

              Constraints and their Current Values
                                        Value     Constraint
   Distance(Angs):        1   3             3.900000     3.900000
 Hessian Updated using BFGS Update

 26 Hessian modes will be used to form the next step
  Hessian Eigenvalues:
     0.021761    0.113118    0.141772    0.143587    0.144455    0.223056
     0.245137    0.257840    0.265307    0.271158    0.356269    0.396967
     0.438132    0.453220    0.504053    0.504626    0.666272    0.909512
     1.021788    1.040489    1.049574    1.065338    1.075968    1.079865
     1.111046    1.115305

 Minimum Search - Taking Simple RFO Step
 Searching for Lamda that Minimizes Along All modes
 Value Taken    Lamda =   0.00000000
 Step Taken.  Stepsize is  0.003679

                             Maximum     Tolerance    Cnvgd?
         Gradient           0.000417      0.000300      NO
         Displacement       0.001714      0.001200      NO
         Energy change     -0.000017      0.000001      NO


 New Cartesian Coordinates Obtained by Inverse Iteration

 Displacement from previous Coordinates is:  0.005177
 ----------------------------------------------------------------
             Standard Nuclear Orientation (Angstroms)
    I     Atom           X                Y                Z
 ----------------------------------------------------------------
    1      Cl      2.4438905355    -2.0150706828    -0.5415338408
    2      C      -0.9439607042     0.7536909333    -0.2747793997
    3      C       0.3365587422     1.1315290767     0.3901652698
    4      C      -1.5076805928    -0.5941313086     0.1993017488
    5      H      -0.8055516703     0.7369301239    -1.3646747304
    6      H      -1.7052022170     1.5369142071    -0.0985817032
    7      H       0.5251847675     0.8484656889     1.4215912203
    8      H       1.0211943569     1.8364347210    -0.0698453937
    9      H      -1.6612382944    -0.5916307172     1.2842533736
   10      H      -2.4704365151    -0.8112526747    -0.2741136282
   11      H      -0.8171584083    -1.4102773675    -0.0370839165
 ----------------------------------------------------------------
 Nuclear Repulsion Energy =   129.0115731238 hartrees
 There are       22 alpha and       20 beta electrons

                       Distance Matrix (Angstroms)
             Cl(  1)   C (  2)   C (  3)   C (  4)   H (  5)   H (  6)
   C (  2)  4.383462
   C (  3)  3.900000  1.491524
   C (  4)  4.264132  1.535955  2.532894
   H (  5)  4.337043  1.098777  2.130631  2.170422
   H (  6)  5.479760  1.106333  2.138223  2.160811  1.747094
   H (  7)  3.966753  2.246118  1.086068  2.776260  3.089754  2.785590
   H (  8)  4.132874  2.253035  1.085001  3.517854  2.494493  2.742950
   H (  9)  4.712936  2.180587  2.785654  1.095767  3.084492  2.538675
   H ( 10)  5.066685  2.186133  3.477771  1.094606  2.521514  2.475941
   H ( 11)  3.354800  2.180673  2.823895  1.094894  2.524506  3.078692
             H (  7)   H (  8)   H (  9)   H ( 10)
   H (  8)  1.856473
   H (  9)  2.621676  3.863228
   H ( 10)  3.821495  4.386737  1.769617
   H ( 11)  3.005252  3.731187  1.768781  1.774357
 
 Applying Cartesian multipole field
    Component          Value
    ---------          -----
     (2,0,0)        1.00000E-11
     (0,2,0)        2.00000E-11
     (0,0,2)       -3.00000E-10
 Nucleus-field energy     =    -0.0000000017 hartrees
 Requested basis set is 6-31G(d,p)
 There are 38 shells and 99 basis functions
 A cutoff of  1.0D-14 yielded    692 shell pairs
 There are      4769 function pairs
 Smallest overlap matrix eigenvalue = 6.25E-03
 Guess from superposition of atomic densities
 Warning:  Energy on first SCF cycle will be non-variational
 SAD guess density has 42.000000 electrons

 -----------------------------------------------------------------------
  General SCF calculation program by
  Eric Jon Sundstrom, Paul Horn, Yuezhi Mao, Dmitri Zuev, Alec White,
  David Stuck, Shaama M.S., Shane Yost, Joonho Lee, David Small,
  Daniel Levine, Susi Lehtola, Hugh Burton, Evgeny Epifanovsky
 -----------------------------------------------------------------------
 Exchange:     0.2000 Hartree-Fock + 0.0800 Slater + 0.7200 B88
 Correlation:  0.1900 VWN1RPA + 0.8100 LYP
 Using SG-1 standard quadrature grid
 using 12 threads for integral computing
 -------------------------------------------------------
 OpenMP Integral computing Module                
 Release: version 1.0, May 2013, Q-Chem Inc. Pittsburgh 
 -------------------------------------------------------
 -------------------------------------------------------
 OpenMP BLAS3 based DFT computing Module                
 Release: version 1.0, May 2013, Q-Chem Inc. Pittsburgh 
 -------------------------------------------------------
 A unrestricted SCF calculation will be
 performed using DIIS
 SCF converges when DIIS error is below 1.0e-06
 Alpha HF Exchange    Energy =  -4.53861425553962
 Beta HF Exchange     Energy =  -4.53861425553962
 DFT Correlation      Energy =  -1.88433874566386
 DFT Exchange         Energy = -35.69504208845151
 One-Electron (alpha) Energy = -522.91341219758169
 One-Electron (beta)  Energy = -522.91341219758169
 Total Coulomb        Energy = 384.65653288415172
 ---------------------------------------
  Cycle       Energy         DIIS error
 ---------------------------------------
    1    -578.8153277340      2.82e-02  
 Alpha HF Exchange    Energy =  -4.67573106320577
 Beta HF Exchange     Energy =  -4.47875176287094
 DFT Correlation      Energy =  -1.90225466016590
 DFT Exchange         Energy = -36.29297146774667
 One-Electron (alpha) Energy = -537.96300238018387
 One-Electron (beta)  Energy = -513.98659686369479
 Total Coulomb        Energy = 391.75395827380510
    2    -578.5337768019      3.86e-03  
 Alpha HF Exchange    Energy =  -4.62392342761618
 Beta HF Exchange     Energy =  -4.43112575549120
 DFT Correlation      Energy =  -1.87501927691668
 DFT Exchange         Energy = -35.88727181839050
 One-Electron (alpha) Energy = -534.96631141622356
 One-Electron (beta)  Energy = -512.76810364046003
 Total Coulomb        Energy = 387.44056525008779
    3    -578.0996169628      7.30e-03  
 Alpha HF Exchange    Energy =  -4.64040849538337
 Beta HF Exchange     Energy =  -4.44741664780435
 DFT Correlation      Energy =  -1.88663778727875
 DFT Exchange         Energy = -36.01332428106301
 One-Electron (alpha) Energy = -535.95483395050451
 One-Electron (beta)  Energy = -511.95825271320217
 Total Coulomb        Energy = 387.29391766507416
    4    -578.5953830880      1.89e-03  
 Alpha HF Exchange    Energy =  -4.65144359717356
 Beta HF Exchange     Energy =  -4.45475281849271
 DFT Correlation      Energy =  -1.88932100752562
 DFT Exchange         Energy = -36.08569744619147
 One-Electron (alpha) Energy = -536.62272411029255
 One-Electron (beta)  Energy = -512.43885719479681
 Total Coulomb        Energy = 388.51834079211716
    5    -578.6128822602      8.49e-04  
 Alpha HF Exchange    Energy =  -4.65169538682559
 Beta HF Exchange     Energy =  -4.45446528877428
 DFT Correlation      Energy =  -1.88857290281131
 DFT Exchange         Energy = -36.08418452567911
 One-Electron (alpha) Energy = -536.67686150286329
 One-Electron (beta)  Energy = -512.41703508702210
 Total Coulomb        Energy = 388.54432273886476
    6    -578.6169188329      3.49e-04  
 Alpha HF Exchange    Energy =  -4.65157418105470
 Beta HF Exchange     Energy =  -4.45384136106493
 DFT Correlation      Energy =  -1.88822981465702
 DFT Exchange         Energy = -36.08079931924218
 One-Electron (alpha) Energy = -536.66735013738833
 One-Electron (beta)  Energy = -512.38261444839554
 Total Coulomb        Energy = 388.49525757506660
    7    -578.6175785646      1.07e-04  
 Alpha HF Exchange    Energy =  -4.65186070298305
 Beta HF Exchange     Energy =  -4.45406759342497
 DFT Correlation      Energy =  -1.88822274713645
 DFT Exchange         Energy = -36.08270588149460
 One-Electron (alpha) Energy = -536.69473878018107
 One-Electron (beta)  Energy = -512.39931891333549
 Total Coulomb        Energy = 388.54168822742963
    8    -578.6176532690      1.86e-05  
 Alpha HF Exchange    Energy =  -4.65182078399799
 Beta HF Exchange     Energy =  -4.45405166313124
 DFT Correlation      Energy =  -1.88819916560234
 DFT Exchange         Energy = -36.08246815307526
[...]
     0.425699    0.451689    0.501082    0.504082    0.663035    0.788611
     1.016379    1.042422    1.049601    1.065629    1.075143    1.080548
     1.111105    1.115376

 Minimum Search - Taking Simple RFO Step
 Searching for Lamda that Minimizes Along All modes
 Value Taken    Lamda =   0.00000000
 Step Taken.  Stepsize is  0.002869

                             Maximum     Tolerance    Cnvgd?
         Gradient           0.000104      0.000300     YES
         Displacement       0.001317      0.001200      NO
         Energy change     -0.000002      0.000001      NO


 New Cartesian Coordinates Obtained by Inverse Iteration

 Displacement from previous Coordinates is:  0.003420
 ----------------------------------------------------------------
             Standard Nuclear Orientation (Angstroms)
    I     Atom           X                Y                Z
 ----------------------------------------------------------------
    1      Cl      2.4373638601    -2.0174969529    -0.5424328017
    2      C      -0.9422687143     0.7526276877    -0.2749079033
    3      C       0.3370452818     1.1334191822     0.3905141130
    4      C      -1.5056657582    -0.5943287272     0.1991644913
    5      H      -0.8044060286     0.7368578144    -1.3649741526
    6      H      -1.7055793524     1.5334526327    -0.0977738837
    7      H       0.5266552853     0.8503354689     1.4218161161
    8      H       1.0189051736     1.8414164054    -0.0687937561
    9      H      -1.6619077839    -0.5915385944     1.2838645148
   10      H      -2.4676782889    -0.8110283139    -0.2761277433
   11      H      -0.8168636746    -1.4121146030    -0.0356499946
 ----------------------------------------------------------------
 Nuclear Repulsion Energy =   129.0655575883 hartrees
 There are       22 alpha and       20 beta electrons

                       Distance Matrix (Angstroms)
             Cl(  1)   C (  2)   C (  3)   C (  4)   H (  5)   H (  6)
   C (  2)  4.378022
   C (  3)  3.900000  1.491453
   C (  4)  4.257095  1.535074  2.533241
   H (  5)  4.332680  1.098863  2.131176  2.170335
   H (  6)  5.474572  1.106213  2.137935  2.157682  1.747133
   H (  7)  3.966553  2.246365  1.086127  2.777096  3.090437  2.785440
   H (  8)  4.138547  2.252587  1.084969  3.518254  2.494914  2.741988
   H (  9)  4.708795  2.180467  2.787359  1.095898  3.084849  2.535038
   H ( 10)  5.058253  2.184467  3.477321  1.094682  2.519526  2.471679
   H ( 11)  3.348629  2.181532  2.827165  1.094696  2.526923  3.077343
             H (  7)   H (  8)   H (  9)   H ( 10)
   H (  8)  1.856467
   H (  9)  2.624469  3.864675
   H ( 10)  3.822195  4.385740  1.769468
   H ( 11)  3.007978  3.735855  1.768774  1.773224
 
 Applying Cartesian multipole field
    Component          Value
    ---------          -----
     (2,0,0)        1.00000E-11
     (0,2,0)        2.00000E-11
     (0,0,2)       -3.00000E-10
 Nucleus-field energy     =    -0.0000000017 hartrees
 Requested basis set is 6-31G(d,p)
 There are 38 shells and 99 basis functions
 A cutoff of  1.0D-14 yielded    692 shell pairs
 There are      4769 function pairs
 Smallest overlap matrix eigenvalue = 6.23E-03
 Guess from superposition of atomic densities
 Warning:  Energy on first SCF cycle will be non-variational
 SAD guess density has 42.000000 electrons

 -----------------------------------------------------------------------
  General SCF calculation program by
  Eric Jon Sundstrom, Paul Horn, Yuezhi Mao, Dmitri Zuev, Alec White,
  David Stuck, Shaama M.S., Shane Yost, Joonho Lee, David Small,
  Daniel Levine, Susi Lehtola, Hugh Burton, Evgeny Epifanovsky
 -----------------------------------------------------------------------
 Exchange:     0.2000 Hartree-Fock + 0.0800 Slater + 0.7200 B88
 Correlation:  0.1900 VWN1RPA + 0.8100 LYP
 Using SG-1 standard quadrature grid
 using 12 threads for integral computing
 -------------------------------------------------------
 OpenMP Integral computing Module                
 Release: version 1.0, May 2013, Q-Chem Inc. Pittsburgh 
 -------------------------------------------------------
 -------------------------------------------------------
 OpenMP BLAS3 based DFT computing Module                
 Release: version 1.0, May 2013, Q-Chem Inc. Pittsburgh 
 -------------------------------------------------------
 A unrestricted SCF calculation will be
 performed using DIIS
 SCF converges when DIIS error is below 1.0e-06
 Alpha HF Exchange    Energy =  -4.53871867805165
 Beta HF Exchange     Energy =  -4.53871867805165
 DFT Correlation      Energy =  -1.88436791968947
 DFT Exchange         Energy = -35.69524405727643
 One-Electron (alpha) Energy = -522.96702369843968
 One-Electron (beta)  Energy = -522.96702369843968
 Total Coulomb        Energy = 384.70924408933712
 ---------------------------------------
  Cycle       Energy         DIIS error
 ---------------------------------------
    1    -578.8162950540      2.82e-02  
 Alpha HF Exchange    Energy =  -4.67577819872478
 Beta HF Exchange     Energy =  -4.47879517911403
 DFT Correlation      Energy =  -1.90228984925494
 DFT Exchange         Energy = -36.29331087528573
 One-Electron (alpha) Energy = -538.01900906352796
 One-Electron (beta)  Energy = -514.04028242364109
 Total Coulomb        Energy = 391.81021221220720
    2    -578.5336957908      3.86e-03  
 Alpha HF Exchange    Energy =  -4.62394838343746
 Beta HF Exchange     Energy =  -4.43108787068042
 DFT Correlation      Energy =  -1.87504231510903
 DFT Exchange         Energy = -35.88727784950592
 One-Electron (alpha) Energy = -535.01959827072835
 One-Electron (beta)  Energy = -512.81896405821033
 Total Coulomb        Energy = 387.49093548230303
    3    -578.0994256788      7.31e-03  
 Alpha HF Exchange    Energy =  -4.64045383671457
 Beta HF Exchange     Energy =  -4.44745071985822
 DFT Correlation      Energy =  -1.88666931598933
 DFT Exchange         Energy = -36.01362051457493
 One-Electron (alpha) Energy = -536.00981643677903
 One-Electron (beta)  Energy = -512.01098180759834
 Total Coulomb        Energy = 387.34804094868480
    4    -578.5953940962      1.89e-03  
 Alpha HF Exchange    Energy =  -4.65148649712697
 Beta HF Exchange     Energy =  -4.45479091405901
 DFT Correlation      Energy =  -1.88935199732468
 DFT Exchange         Energy = -36.08599792581268
 One-Electron (alpha) Energy = -536.67789297657077
 One-Electron (beta)  Energy = -512.49185040478835
 Total Coulomb        Energy = 388.57292754688081
    5    -578.6128855822      8.49e-04  
 Alpha HF Exchange    Energy =  -4.65173258922592
 Beta HF Exchange     Energy =  -4.45449867584367
 DFT Correlation      Energy =  -1.88860182965743
 DFT Exchange         Energy = -36.08444157447748
 One-Electron (alpha) Energy = -536.73168080945391
 One-Electron (beta)  Energy = -512.46972026323169
 Total Coulomb        Energy = 388.59819452706017
    6    -578.6169236282      3.49e-04  
 Alpha HF Exchange    Energy =  -4.65161288542010
 Beta HF Exchange     Energy =  -4.45387768388818
 DFT Correlation      Energy =  -1.88825974661404
 DFT Exchange         Energy = -36.08107461692276
 One-Electron (alpha) Energy = -536.72228882601655
 One-Electron (beta)  Energy = -512.43544906100442
 Total Coulomb        Energy = 388.54942399978444
    7    -578.6175812335      1.07e-04  
 Alpha HF Exchange    Energy =  -4.65189807899807
 Beta HF Exchange     Energy =  -4.45410360232062
 DFT Correlation      Energy =  -1.88825249715087
 DFT Exchange         Energy = -36.08297479074727
 One-Electron (alpha) Energy = -536.74961550954310
 One-Electron (beta)  Energy = -512.45211934145698
 Total Coulomb        Energy = 388.59575042679052
    8    -578.6176558068      1.85e-05  
 Alpha HF Exchange    Energy =  -4.65185817558206
 Beta HF Exchange     Energy =  -4.45408756048435
 DFT Correlation      Energy =  -1.88822893757309
 DFT Exchange         Energy = -36.08273676520254
 One-Electron (alpha) Energy = -536.74682587485665
 One-Electron (beta)  Energy = -512.45010261270556
 Total Coulomb        Energy = 388.59062451982703
    9    -578.6176578200      5.13e-06  
 Alpha HF Exchange    Energy =  -4.65186312114786
 Beta HF Exchange     Energy =  -4.45408869577359
 DFT Correlation      Energy =  -1.88822956898668
 DFT Exchange         Energy = -36.08276197199728
 One-Electron (alpha) Energy = -536.74717943019630
 One-Electron (beta)  Energy = -512.45058197878006
 Total Coulomb        Energy = 388.59148918725509
   10    -578.6176579930      1.88e-06  
 Alpha HF Exchange    Energy =  -4.65186208089187
 Beta HF Exchange     Energy =  -4.45409297124537
 DFT Correlation      Energy =  -1.88822981456261
 DFT Exchange         Energy = -36.08277490713498
 One-Electron (alpha) Energy = -536.74723994751037
 One-Electron (beta)  Energy = -512.45093738823743
 Total Coulomb        Energy = 388.59192147092801
   11    -578.6176580521      6.96e-07  Convergence criterion met
 ---------------------------------------
 SCF time:   CPU 23.39s  wall 2.00s 
<S^2> =          2.005547234
 Alpha HF Exchange    Energy =  -4.65186208089187
 Beta HF Exchange     Energy =  -4.45409297124537
 DFT Correlation      Energy =  -1.88822981456261
 DFT Exchange         Energy = -36.08277490713498
 One-Electron (alpha) Energy = -536.74723994751037
 One-Electron (beta)  Energy = -512.45093738823743
 Total Coulomb        Energy = 388.59192147092801
 Nuclear repulsion Energy = 129.06555758658487
 SCF   energy in the final basis set =     -578.6176580521
 Total energy in the final basis set =     -578.6176580521
 
 --------------------------------------------------------------
 
                    Orbital Energies (a.u.)
 --------------------------------------------------------------
 
 Alpha MOs
 -- Occupied --
******* -10.184 -10.183 -10.172  -9.508  -7.283  -7.260  -7.260
 -0.843  -0.777  -0.670  -0.577  -0.450  -0.435  -0.405  -0.401
 -0.356  -0.351  -0.349  -0.345  -0.337  -0.194
 -- Virtual --
  0.105   0.141   0.148   0.155   0.174   0.187   0.203   0.245
  0.280   0.333   0.397   0.411   0.442   0.511   0.523   0.569
  0.578   0.595   0.646   0.672   0.708   0.783   0.796   0.797
  0.801   0.828   0.840   0.844   0.856   0.879   0.912   0.922
  0.945   0.953   0.989   1.193   1.306   1.415   1.451   1.540
  1.675   1.724   1.829   1.854   1.904   1.974   2.026   2.056
  2.073   2.111   2.122   2.250   2.262   2.303   2.357   2.425
  2.466   2.526   2.591   2.671   2.705   2.751   2.811   2.869
  2.888   2.931   3.189   3.277   3.296   3.416   3.442   3.511
  3.549   4.159   4.240   4.406   4.624
 
 Beta MOs
 -- Occupied --
******* -10.185 -10.172 -10.169  -9.502  -7.261  -7.256  -7.256
 -0.789  -0.768  -0.652  -0.562  -0.444  -0.428  -0.396  -0.349
 -0.342  -0.335  -0.333  -0.332
 -- Virtual --
 -0.243  -0.035   0.107   0.150   0.153   0.159   0.176   0.189
  0.208   0.250   0.286   0.349   0.425   0.438   0.448   0.514
  0.526   0.571   0.583   0.632   0.670   0.681   0.719   0.811
  0.836   0.847   0.853   0.857   0.858   0.861   0.867   0.882
  0.916   0.928   0.948   0.971   0.992   1.202   1.317   1.433
  1.466   1.555   1.680   1.732   1.832   1.883   1.911   2.018
  2.032   2.056   2.074   2.116   2.125   2.256   2.271   2.304
  2.362   2.435   2.475   2.546   2.604   2.679   2.711   2.753
  2.814   2.872   2.891   2.934   3.190   3.283   3.300   3.419
  3.445   3.516   3.553   4.181   4.263   4.416   4.627
 --------------------------------------------------------------
 
          Ground-State Mulliken Net Atomic Charges

     Atom                 Charge (a.u.)    Spin (a.u.)
  --------------------------------------------------------
      1 Cl                    0.001180       1.003717
      2 C                    -0.183134      -0.075763
      3 C                    -0.215356       1.077187
      4 C                    -0.319186       0.011662
      5 H                     0.101467       0.016431
      6 H                     0.105807       0.060453
      7 H                     0.096501      -0.047677
      8 H                     0.096389      -0.047921
      9 H                     0.102507      -0.000845
     10 H                     0.098421       0.001459
     11 H                     0.115403       0.001295
  --------------------------------------------------------
  Sum of atomic charges =     0.000000
  Sum of spin   charges =     2.000000

 -----------------------------------------------------------------
                    Cartesian Multipole Moments
 -----------------------------------------------------------------
    Charge (ESU x 10^10)
                 0.0000
    Dipole Moment (Debye)
         X      -0.1890      Y       0.0515      Z      -0.0746
       Tot       0.2096
    Quadrupole Moments (Debye-Ang)
        XX     -33.5680     XY       0.0654     YY     -33.8225
        XZ       0.2075     YZ      -0.8340     ZZ     -31.1825
    Octopole Moments (Debye-Ang^2)
       XXX     -49.1812    XXY      18.4340    XYY     -14.7234
       YYY      52.0821    XXZ       4.7147    XYZ      -1.6220
       YYZ       5.4375    XZZ     -11.1704    YZZ      14.1427
       ZZZ      11.4111
    Hexadecapole Moments (Debye-Ang^3)
      XXXX    -661.6722   XXXY     173.2958   XXYY    -185.6487
      XYYY     172.2072   YYYY    -465.5067   XXXZ      51.4989
      XXYZ     -17.9648   XYYZ      21.0812   YYYZ     -51.4486
      XXZZ    -113.5941   XYZZ      49.7556   YYZZ     -87.7615
      XZZZ      40.6348   YZZZ     -37.6387   ZZZZ     -81.9156
 -----------------------------------------------------------------
 Calculating analytic gradient of the SCF energy
 Gradient of SCF Energy
            1           2           3           4           5           6
    1  -0.0002388  -0.0000859   0.0002254   0.0000299   0.0000550   0.0000342
    2   0.0002188   0.0000309  -0.0002860   0.0001719  -0.0000176  -0.0000832
    3   0.0001892   0.0000233  -0.0000985   0.0000165  -0.0000396   0.0000034
            7           8           9          10          11
    1   0.0000078   0.0000528   0.0000528   0.0000024  -0.0001355
    2   0.0000031  -0.0000814   0.0000461   0.0000427  -0.0000450
    3   0.0000328  -0.0000152   0.0000439  -0.0000000  -0.0001559
 Max gradient component =       2.860E-04
 RMS gradient           =       1.101E-04
 Gradient time:  CPU 7.61 s  wall 0.79 s
 Geometry Optimization Parameters
   NAtoms,    NIC,     NZ,  NCons,   NDum,   NFix, NCnnct, MaxDiis
       11      66       0       1       0       0       0       0

 Cartesian Hessian Update
 Hessian Updated using BFGS Update


** CONSTRAINED OPTIMIZATION IN DELOCALIZED INTERNAL COORDINATES **
   Searching for a Minimum

   Optimization Cycle:   7

                       Coordinates (Angstroms)
     ATOM                X               Y               Z
      1  Cl        2.4373638601   -2.0174969529   -0.5424328017
      2  C        -0.9422687143    0.7526276877   -0.2749079033
      3  C         0.3370452818    1.1334191822    0.3905141130
      4  C        -1.5056657582   -0.5943287272    0.1991644913
      5  H        -0.8044060286    0.7368578144   -1.3649741526
      6  H        -1.7055793524    1.5334526327   -0.0977738837
      7  H         0.5266552853    0.8503354689    1.4218161161
      8  H         1.0189051736    1.8414164054   -0.0687937561
      9  H        -1.6619077839   -0.5915385944    1.2838645148
     10  H        -2.4676782889   -0.8110283139   -0.2761277433
     11  H        -0.8168636746   -1.4121146030   -0.0356499946
   Point Group: c1    Number of degrees of freedom:    27


   Energy is   -578.617658052

              Constraints and their Current Values
                                        Value     Constraint
   Distance(Angs):        1   3             3.900000     3.900000
 Hessian Updated using BFGS Update

 26 Hessian modes will be used to form the next step
  Hessian Eigenvalues:
     0.008122    0.034220    0.126533    0.141788    0.143851    0.207310
     0.232424    0.242394    0.258388    0.261332    0.338056    0.395669
     0.420233    0.450579    0.501795    0.504005    0.663578    0.814608
     1.018161    1.031089    1.048041    1.063397    1.074137    1.078578
     1.110062    1.114960

 Minimum Search - Taking Simple RFO Step
 Searching for Lamda that Minimizes Along All modes
 Value Taken    Lamda =  -0.00000119
 Step Taken.  Stepsize is  0.009146

                             Maximum     Tolerance    Cnvgd?
         Gradient           0.000124      0.000300     YES
         Displacement       0.004636      0.001200      NO
         Energy change     -0.000000      0.000001     YES


                       Distance Matrix (Angstroms)
             Cl(  1)   C (  2)   C (  3)   C (  4)   H (  5)   H (  6)
   C (  2)  4.378022
   C (  3)  3.900000  1.491453
   C (  4)  4.257095  1.535074  2.533241
   H (  5)  4.332680  1.098863  2.131176  2.170335
   H (  6)  5.474572  1.106213  2.137935  2.157682  1.747133
   H (  7)  3.966553  2.246365  1.086127  2.777096  3.090437  2.785440
   H (  8)  4.138547  2.252587  1.084969  3.518254  2.494914  2.741988
   H (  9)  4.708795  2.180467  2.787359  1.095898  3.084849  2.535038
   H ( 10)  5.058253  2.184467  3.477321  1.094682  2.519526  2.471679
   H ( 11)  3.348629  2.181532  2.827165  1.094696  2.526923  3.077343
             H (  7)   H (  8)   H (  9)   H ( 10)
   H (  8)  1.856467
   H (  9)  2.624469  3.864675
   H ( 10)  3.822195  4.385740  1.769468
   H ( 11)  3.007978  3.735855  1.768774  1.773224
 
 Final energy is   -578.617658052070     


 ******************************
 **  OPTIMIZATION CONVERGED  **
 ******************************

                       Coordinates (Angstroms)
     ATOM                X               Y               Z
      1  Cl        2.4373638601   -2.0174969529   -0.5424328017
      2  C        -0.9422687143    0.7526276877   -0.2749079033
      3  C         0.3370452818    1.1334191822    0.3905141130
      4  C        -1.5056657582   -0.5943287272    0.1991644913
      5  H        -0.8044060286    0.7368578144   -1.3649741526
      6  H        -1.7055793524    1.5334526327   -0.0977738837
      7  H         0.5266552853    0.8503354689    1.4218161161
      8  H         1.0189051736    1.8414164054   -0.0687937561
      9  H        -1.6619077839   -0.5915385944    1.2838645148
     10  H        -2.4676782889   -0.8110283139   -0.2761277433
     11  H        -0.8168636746   -1.4121146030   -0.0356499946

Z-matrix Print:
$molecule
0 3
Cl
H  1 3.348629
C  2 1.094696 1 141.168788
H  3 1.094682 2 108.176446 1 148.791777 0
H  3 1.095898 2 107.693166 1 -94.998898 0
C  3 1.535074 2 110.997006 1 26.496034 0
H  6 1.098863 3 109.865183 2 61.110209 0
H  6 1.106213 3 108.460683 2 175.131072 0
C  6 1.491453 3 113.644179 2 -62.341862 0
H  9 1.084969 6 121.117982 3 157.917696 0
H  9 1.086127 6 120.453236 3 -33.152643 0
$end

PES scan, value:    3.9000 energy: -578.6176580521
------- Summary of potential scan: ------ 
    3.9000      -578.6176580521
----------------------------------------- 
Archival summary:
1\1\hpc0332\JobtypUnspecified\ProcedureUnspecified\6-31G**\l137(3)\knomura\MonMar1120:35:212019MonMar1120:35:212019\0\\#,JobtypUnspecified,ProcedureUnspecified,6-31G**,\\0,3\Cl\H,1,3.34863\C,2,1.0947,1,141.169\H,3,1.09468,2,108.176,1,148.792,0\H,3,1.0959,2,107.693,1,-94.9989,0\C,3,1.53507,2,110.997,1,26.496,0\H,6,1.09886,3,109.865,2,61.1102,0\H,6,1.10621,3,108.461,2,175.131,0\C,6,1.49145,3,113.644,2,-62.3419,0\H,9,1.08497,6,121.118,3,157.918,0\H,9,1.08613,6,120.453,3,-33.1526,0\\\@

 Total job time:  23.54s(wall), 254.63s(cpu) 
 Mon Mar 11 20:35:21 2019

        *************************************************************
        *                                                           *
        *  Thank you very much for using Q-Chem.  Have a nice day.  *
        *                                                           *
        *************************************************************


