
Running Job 1 of 1 ruruma/CH3CH2CH2Cl_afterGeo_singlet.xyz.data/inputs/bond_triplet_2.0.in
qchem ruruma/CH3CH2CH2Cl_afterGeo_singlet.xyz.data/inputs/bond_triplet_2.0.in_15486.0 /staging/scratch/2858534/qchem15486/ 1
/usr/usc/qchem/5.1.1/exe/qcprog.exe_s ruruma/CH3CH2CH2Cl_afterGeo_singlet.xyz.data/inputs/bond_triplet_2.0.in_15486.0 /staging/scratch/2858534/qchem15486/
Check license passed

                  Welcome to Q-Chem
     A Quantum Leap Into The Future Of Chemistry


 Q-Chem 5.1, Q-Chem, Inc., Pleasanton, CA (2018)

 Yihan Shao,  Zhengting Gan,  E. Epifanovsky,  A. T. B. Gilbert,  M. Wormit,  
 J. Kussmann,  A. W. Lange,  A. Behn,  Jia Deng,  Xintian Feng,  D. Ghosh,  
 M. Goldey,  P. R. Horn,  L. D. Jacobson,  I. Kaliman,  T. Kus,  A. Landau,  
 Jie Liu,  E. I. Proynov,  R. M. Richard,  R. P. Steele,  E. J. Sundstrom,  
 H. L. Woodcock III,  P. M. Zimmerman,  D. Zuev,  B. Albrecht,  E. Alguire,  
 S. A. Baeppler,  D. Barton,  Z. Benda,  Y. A. Bernard,  E. J. Berquist,  
 K. B. Bravaya,  H. Burton,  D. Casanova,  Chun-Min Chang,  Yunqing Chen,  
 A. Chien,  K. D. Closser,  M. P. Coons,  S. Coriani,  S. Dasgupta,  
 A. L. Dempwolff,  M. Diedenhofen,  Hainam Do,  R. G. Edgar,  Po-Tung Fang,  
 S. Faraji,  S. Fatehi,  Qingguo Feng,  K. D. Fenk,  J. Fosso-Tande,  
 Qinghui Ge,  A. Ghysels,  G. Gidofalvi,  J. Gomes,  J. Gonthier,  A. Gunina,  
 D. Hait,  M. W. D. Hanson-Heine,  P. H. P. Harbach,  A. W. Hauser,  
 J. E. Herr,  E. G. Hohenstein,  Z. C. Holden,  Kerwin Hui,  B. C. Huynh,  
 T.-C. Jagau,  Hyunjun Ji,  B. Kaduk,  K. Khistyaev,  Jaehoon Kim,  
 P. Klunzinger,  K. Koh,  D. Kosenkov,  L. Koulias,  T. Kowalczyk,  
 C. M. Krauter,  A. Kunitsa,  Ka Un Lao,  A. Laurent,  K. V. Lawler,  
 Joonho Lee,  D. Lefrancois,  S. Lehtola,  D. S. Levine,  Yi-Pei Li,  
 You-Sheng Lin,  Fenglai Liu,  E. Livshits,  A. Luenser,  P. Manohar,  
 E. Mansoor,  S. F. Manzer,  Shan-Ping Mao,  Yuezhi Mao,  N. Mardirossian,  
 A. V. Marenich,  T. Markovich,  L. A. Martinez-Martinez,  S. A. Maurer,  
 N. J. Mayhall,  S. C. McKenzie,  J.-M. Mewes,  A. F. Morrison,  
 J. W. Mullinax,  K. Nanda,  T. S. Nguyen-Beck,  R. Olivares-Amaya,  
 J. A. Parkhill,  T. M. Perrine,  F. Plasser,  P. Pokhilko,  S. Prager,  
 A. Prociuk,  E. Ramos,  D. R. Rehn,  F. Rob,  M. Schneider,  N. Sergueev,  
 S. M. Sharada,  S. Sharma,  D. W. Small,  T. Stauch,  T. Stein,  
 Yu-Chuan Su,  A. J. W. Thom,  A. Tkatchenko,  T. Tsuchimochi,  N. M. Tubman,  
 L. Vogt,  M. L. Vidal,  O. Vydrov,  M. A. Watson,  J. Wenzel,  
 M. de Wergifosse,  T. A. Wesolowski,  A. White,  J. Witte,  A. Yamada,  
 Jun Yang,  K. Yao,  S. Yeganeh,  S. R. Yost,  Zhi-Qiang You,  A. Zech,  
 Igor Ying Zhang,  Xing Zhang,  Yan Zhao,  Ying Zhu,  B. R. Brooks,  
 G. K. L. Chan,  C. J. Cramer,  M. S. Gordon,  W. J. Hehre,  A. Klamt,  
 M. W. Schmidt,  C. D. Sherrill,  D. G. Truhlar,  A. Aspuru-Guzik,  R. Baer,  
 A. T. Bell,  N. A. Besley,  Jeng-Da Chai,  A. E. DePrince, III,  
 R. A. DiStasio Jr.,  A. Dreuw,  B. D. Dunietz,  T. R. Furlani,  
 Chao-Ping Hsu,  Yousung Jung,  Jing Kong,  D. S. Lambrecht,  WanZhen Liang,  
 C. Ochsenfeld,  V. A. Rassolov,  L. V. Slipchenko,  J. E. Subotnik,  
 T. Van Voorhis,  J. M. Herbert,  A. I. Krylov,  P. M. W. Gill,  M. Head-Gordon

 Contributors to earlier versions of Q-Chem not listed above: 
 R. D. Adamson,  B. Austin,  J. Baker,  G. J. O. Beran,  K. Brandhorst,  
 S. T. Brown,  E. F. C. Byrd,  A. K. Chakraborty,  C.-L. Cheng,  
 Siu Hung Chien,  D. M. Chipman,  D. L. Crittenden,  H. Dachsel,  
 R. J. Doerksen,  A. D. Dutoi,  L. Fusti-Molnar,  W. A. Goddard III,  
 A. Golubeva-Zadorozhnaya,  S. R. Gwaltney,  G. Hawkins,  A. Heyden,  
 S. Hirata,  G. Kedziora,  F. J. Keil,  C. Kelley,  Jihan Kim,  R. A. King,  
 R. Z. Khaliullin,  P. P. Korambath,  W. Kurlancheek,  A. M. Lee,  M. S. Lee,  
 S. V. Levchenko,  Ching Yeh Lin,  D. Liotard,  R. C. Lochan,  I. Lotan,  
 P. E. Maslen,  N. Nair,  D. P. O'Neill,  D. Neuhauser,  E. Neuscamman,  
 C. M. Oana,  R. Olson,  B. Peters,  R. Peverati,  P. A. Pieniazek,  
 Y. M. Rhee,  J. Ritchie,  M. A. Rohrdanz,  E. Rosta,  N. J. Russ,  
 H. F. Schaefer III,  N. E. Schultz,  N. Shenvi,  A. C. Simmonett,  A. Sodt,  
 D. Stuck,  K. S. Thanthiriwatte,  V. Vanovschi,  Tao Wang,  A. Warshel,  
 C. F. Williams,  Q. Wu,  X. Xu,  W. Zhang

 Please cite Q-Chem as follows:
 Y. Shao et al., Mol. Phys. 113, 184-215 (2015)
 DOI: 10.1080/00268976.2014.952696

 Q-Chem 5.1.1 for Intel X86 EM64T Linux

 Parts of Q-Chem use Armadillo 8.300.2 (Tropical Shenanigans).
 http://arma.sourceforge.net/

 Q-Chem begins on Mon Mar 11 20:55:24 2019  

Host: 
0

     Scratch files written to /staging/scratch/2858534/qchem15486//
 Aug318 |scratch|qcdevops|jenkins|workspace|build_RNUM 6013   
Processing $rem in /usr/usc/qchem/5.1.1/config/preferences.
 MEM_TOTAL  2000 
Input Ideriv = 2
Curr. Ideriv = -1
Max.  Ideriv = 2

Checking the input file for inconsistencies... 	...done.

--------------------------------------------------------------
User input:
--------------------------------------------------------------

$comment
potential surface scanner
$end

$rem
JOBTYPE  PES_SCAN
UNRESTRICTED TRUE
SYM_IGNORE  TRUE
GEOM_OPT_MAX_CYCLES 400
SCF_MAX_CYCLES 400
METHOD   B3LYP
BASIS   6-31G**
PDB_PRINT 2
SCF_CONVERGENCE 6
THRESH 14
SCF_PRINT 1
$end
$molecule
0 3
Cl 2.219599 -0.144846 -0.750740
C -0.752830 0.485290 -0.329514
C 0.561048 0.472740 0.379657
C -1.725897 -0.545682 0.272101
H -0.597873 0.274739 -1.395599
H -1.223990 1.483389 -0.281459
H 0.535380 0.581746 1.472000
H 1.317893 1.231632 -0.000819
H -1.917628 -0.339328 1.330230
H -2.684036 -0.521239 -0.255601
H -1.316064 -1.556843 0.194437
$end
$scan
stre 1 3 2.000000 2.001000 0.100000
$end
--------------------------------------------------------------
 ----------------------------------------------------------------
             Standard Nuclear Orientation (Angstroms)
    I     Atom           X                Y                Z
 ----------------------------------------------------------------
    1      Cl      2.2195990000    -0.1448460000    -0.7507400000
    2      C      -0.7528300000     0.4852900000    -0.3295140000
    3      C       0.5610480000     0.4727400000     0.3796570000
    4      C      -1.7258970000    -0.5456820000     0.2721010000
    5      H      -0.5978730000     0.2747390000    -1.3955990000
    6      H      -1.2239900000     1.4833890000    -0.2814590000
    7      H       0.5353800000     0.5817460000     1.4720000000
    8      H       1.3178930000     1.2316320000    -0.0008190000
    9      H      -1.9176280000    -0.3393280000     1.3302300000
   10      H      -2.6840360000    -0.5212390000    -0.2556010000
   11      H      -1.3160640000    -1.5568430000     0.1944370000
 ----------------------------------------------------------------
 Nuclear Repulsion Energy =   151.6650850759 hartrees
 There are       22 alpha and       20 beta electrons
 Requested basis set is 6-31G(d,p)
 There are 38 shells and 99 basis functions

 Total QAlloc Memory Limit   2000 MB
 Mega-Array Size       188 MB
 MEM_STATIC part       192 MB
A total of 1 constraints
  
            1
    1   1.0100000
    2   1.0100000
    3   3.0100000
    4   2.0000000
    5   2.0010000
    6   0.1000000
    7   0.0000000
    8   0.0000000
    9   0.0000000
   10   0.0000000

                       Distance Matrix (Angstroms)
             Cl(  1)   C (  2)   C (  3)   C (  4)   H (  5)   H (  6)
   C (  2)  3.067546
   C (  3)  2.100000  1.493103
   C (  4)  4.095584  1.540034  2.505767
   H (  5)  2.920624  1.097671  2.129281  2.174109
   H (  6)  3.837926  1.104764  2.155191  2.162283  1.759024
   H (  7)  2.881858  2.216809  1.098068  2.797182  3.098651  2.642529
   H (  8)  1.808355  2.225525  1.137319  3.535249  2.555624  2.569691
   H (  9)  4.635181  2.188949  2.776126  1.094979  3.090142  2.530014
   H ( 10)  4.942921  2.179018  3.452842  1.094119  2.507041  2.480108
   H ( 11)  3.922755  2.182215  2.770751  1.093820  2.529566  3.078630
             H (  7)   H (  8)   H (  9)   H ( 10)
   H (  8)  1.789937
   H (  9)  2.624066  3.835127
   H ( 10)  3.816519  4.376403  1.770687
   H ( 11)  3.103800  3.840761  1.770381  1.773797
 
 A cutoff of  1.0D-14 yielded    714 shell pairs
 There are      4915 function pairs
 
 -------------------------------------------------------
 OpenMP Integral Computing Module                       
 Release: version 1.0, May 2013, Q-Chem Inc. Pittsburgh 
 -------------------------------------------------------
 Integral Job Info:
 Integral job number is                      11
 Integral operator is                         1
 short-range coefficients                     0
 long-range coefficients              100000000
 Omega coefficients                           0
 if combine SR and LR in K                    0
 Integral screening is                        0
 Integral computing path is                   2
 max size of driver memory is            800000
 size of driver memory is                593474
 size of scratch memory is             15267112
 max col of scratch BK array               1296
 max len of scratch array in speh3          155
 max len of scratch index in speh4           18
 max int batch size is                      520
 min int batch size is                       52
 fixed nKL is                                52
 max L of basis functions is                  2
 order of int derivative is                   0
 number of shells is                         38
 number of basis is                          99
 number of cartesian basis is                99
 number of contracted shell pairs           714
 number of primitive shell pairs           2672
 maxK2 (contraction) of shell pair           36
 max number of K2 of shell pair               1
 max number of CS2 of shell pair             57
 max number of PS2 of shell pair            210
 mem total for path MDJ                  513890
 -------------------------------------------------------
 Smallest overlap matrix eigenvalue = 5.74E-03

 Scale SEOQF with 1.000000e-01/1.000000e-01/1.000000e+00

 Standard Electronic Orientation quadrupole field applied
 Nucleus-field energy     =    -0.0000000136 hartrees
 Guess from superposition of atomic densities
 Warning:  Energy on first SCF cycle will be non-variational
 SAD guess density has 42.000000 electrons

 -----------------------------------------------------------------------
  General SCF calculation program by
  Eric Jon Sundstrom, Paul Horn, Yuezhi Mao, Dmitri Zuev, Alec White,
  David Stuck, Shaama M.S., Shane Yost, Joonho Lee, David Small,
  Daniel Levine, Susi Lehtola, Hugh Burton, Evgeny Epifanovsky
 -----------------------------------------------------------------------
 Exchange:     0.2000 Hartree-Fock + 0.0800 Slater + 0.7200 B88
 Correlation:  0.1900 VWN1RPA + 0.8100 LYP
 Using SG-1 standard quadrature grid
 using 12 threads for integral computing
 -------------------------------------------------------
 OpenMP Integral computing Module                
 Release: version 1.0, May 2013, Q-Chem Inc. Pittsburgh 
 -------------------------------------------------------
 -------------------------------------------------------
 OpenMP BLAS3 based DFT computing Module                
 Release: version 1.0, May 2013, Q-Chem Inc. Pittsburgh 
 -------------------------------------------------------
 A unrestricted SCF calculation will be
 performed using DIIS
 SCF converges when DIIS error is below 1.0e-06
 Alpha HF Exchange    Energy =  -4.56247029982520
 Beta HF Exchange     Energy =  -4.56247029982520
 DFT Correlation      Energy =  -1.89960992543693
 DFT Exchange         Energy = -35.73818533956246
 One-Electron (alpha) Energy = -545.57128217084346
 One-Electron (beta)  Energy = -545.57128217084346
 Total Coulomb        Energy = 407.22153881582108
 ---------------------------------------
  Cycle       Energy         DIIS error
 ---------------------------------------
    1    -579.0186763283      2.96e-02  
 Alpha HF Exchange    Energy =  -4.68597507045951
 Beta HF Exchange     Energy =  -4.46349957547558
 DFT Correlation      Energy =  -1.91895346805845
 DFT Exchange         Energy = -36.31174103602508
 One-Electron (alpha) Energy = -562.28728938611835
 One-Electron (beta)  Energy = -535.17286386671890
 Total Coulomb        Energy = 414.68895493217997
    2    -578.4862824084      3.83e-03  
 Alpha HF Exchange    Energy =  -4.63571536393974
 Beta HF Exchange     Energy =  -4.41853533873908
 DFT Correlation      Energy =  -1.89324194704438
 DFT Exchange         Energy = -35.90588537323046
 One-Electron (alpha) Energy = -559.09444488091003
 One-Electron (beta)  Energy = -532.42485503562102
 Total Coulomb        Energy = 408.25960451722074
    3    -578.4479883600      4.66e-03  
 Alpha HF Exchange    Energy =  -4.65981084897786
 Beta HF Exchange     Energy =  -4.43851372751200
 DFT Correlation      Energy =  -1.90484730143700
 DFT Exchange         Energy = -36.08487349710339
 One-Electron (alpha) Energy = -560.71453027301050
 One-Electron (beta)  Energy = -533.36259430298060
 Total Coulomb        Energy = 410.93316308129101
    4    -578.5669218075      6.06e-04  
 Alpha HF Exchange    Energy =  -4.66418854413163
 Beta HF Exchange     Energy =  -4.44218073082921
 DFT Correlation      Energy =  -1.90543950071734
 DFT Exchange         Energy = -36.11552968906734
 One-Electron (alpha) Energy = -560.99007086735799
 One-Electron (beta)  Energy = -533.64276229123266
 Total Coulomb        Energy = 411.52602843035493
    5    -578.5690581307      2.36e-04  
 Alpha HF Exchange    Energy =  -4.66345257147858
 Beta HF Exchange     Energy =  -4.44120399126473
 DFT Correlation      Energy =  -1.90489675668596
 DFT Exchange         Energy = -36.10739592226173
 One-Electron (alpha) Energy = -560.93040414593406
 One-Electron (beta)  Energy = -533.51022200494231
 Total Coulomb        Energy = 411.32305844068429
    6    -578.5694318896      9.15e-05  
 Alpha HF Exchange    Energy =  -4.66336668446762
 Beta HF Exchange     Energy =  -4.44144181723704
 DFT Correlation      Energy =  -1.90476721571513
 DFT Exchange         Energy = -36.10734891841302
 One-Electron (alpha) Energy = -560.92857636543363
 One-Electron (beta)  Energy = -533.50626217816796
 Total Coulomb        Energy = 411.31718818115030
    7    -578.5694899360      3.48e-05  
 Alpha HF Exchange    Energy =  -4.66353049309536
 Beta HF Exchange     Energy =  -4.44154682816352
 DFT Correlation      Energy =  -1.90475802579083
 DFT Exchange         Energy = -36.10820920071428
 One-Electron (alpha) Energy = -560.94166250301623
 One-Electron (beta)  Energy = -533.50952867118087
 Total Coulomb        Energy = 411.33464932140663
    8    -578.5695013383      1.01e-05  
 Alpha HF Exchange    Energy =  -4.66350980029129
 Beta HF Exchange     Energy =  -4.44159627915476
 DFT Correlation      Energy =  -1.90472921701125
 DFT Exchange         Energy = -36.10819400517983
 One-Electron (alpha) Energy = -560.94006009037571
 One-Electron (beta)  Energy = -533.50682629742232
 Total Coulomb        Energy = 411.33032711680642
    9    -578.5695035104      3.57e-06  
 Alpha HF Exchange    Energy =  -4.66350409780350
 Beta HF Exchange     Energy =  -4.44160623657235
 DFT Correlation      Energy =  -1.90472498058344
 DFT Exchange         Energy = -36.10818926349737
 One-Electron (alpha) Energy = -560.93976879849970
 One-Electron (beta)  Energy = -533.50683542717422
 Total Coulomb        Energy = 411.33003991871993
   10    -578.5695038232      1.87e-06  
 Alpha HF Exchange    Energy =  -4.66350421603394
 Beta HF Exchange     Energy =  -4.44161422236853
 DFT Correlation      Energy =  -1.90472559074722
 DFT Exchange         Energy = -36.10821815497784
 One-Electron (alpha) Energy = -560.93993280087170
 One-Electron (beta)  Energy = -533.50745989259997
 Total Coulomb        Energy = 411.33086592033504
   11    -578.5695038950      9.68e-07  Convergence criterion met
 ---------------------------------------
 SCF time:   CPU 27.25s  wall 3.00s 
<S^2> =          2.005190205
 Alpha HF Exchange    Energy =  -4.66350421603394
 Beta HF Exchange     Energy =  -4.44161422236853
 DFT Correlation      Energy =  -1.90472559074722
 DFT Exchange         Energy = -36.10821815497784
 One-Electron (alpha) Energy = -560.93993280087170
 One-Electron (beta)  Energy = -533.50745989259997
 Total Coulomb        Energy = 411.33086592033504
 Nuclear repulsion Energy = 151.66508506225006
 SCF   energy in the final basis set =     -578.5695038950
 Total energy in the final basis set =     -578.5695038950
 
 --------------------------------------------------------------
 
                    Orbital Energies (a.u.)
 --------------------------------------------------------------
 
 Alpha MOs
 -- Occupied --
******* -10.216 -10.199 -10.187  -9.462  -7.231  -7.216  -7.214
 -0.849  -0.786  -0.691  -0.600  -0.493  -0.464  -0.422  -0.388
 -0.376  -0.358  -0.343  -0.317  -0.300  -0.163
 -- Virtual --
  0.085   0.125   0.129   0.151   0.163   0.173   0.189   0.217
  0.246   0.382   0.441   0.445   0.470   0.505   0.517   0.532
  0.555   0.611   0.646   0.667   0.727   0.766   0.789   0.843
  0.848   0.849   0.858   0.872   0.878   0.887   0.916   0.928
  0.970   0.988   1.080   1.230   1.305   1.452   1.539   1.606
  1.678   1.740   1.786   1.825   1.899   1.951   2.042   2.057
  2.068   2.094   2.122   2.194   2.249   2.255   2.345   2.375
  2.431   2.487   2.592   2.631   2.693   2.748   2.789   2.835
  2.872   2.896   3.134   3.194   3.281   3.347   3.420   3.481
  3.526   4.221   4.247   4.406   4.626
 
 Beta MOs
 -- Occupied --
******* -10.200 -10.198 -10.186  -9.455  -7.213  -7.210  -7.209
 -0.809  -0.769  -0.666  -0.581  -0.464  -0.452  -0.412  -0.368
 -0.365  -0.351  -0.316  -0.302
 -- Virtual --
 -0.179  -0.016   0.093   0.135   0.137   0.156   0.167   0.178
  0.194   0.224   0.258   0.406   0.447   0.460   0.499   0.514
  0.526   0.548   0.564   0.628   0.654   0.694   0.743   0.782
  0.818   0.854   0.866   0.878   0.883   0.891   0.894   0.906
  0.931   0.936   0.985   1.010   1.097   1.250   1.319   1.458
  1.553   1.626   1.689   1.778   1.806   1.836   1.915   1.991
  2.043   2.059   2.081   2.098   2.132   2.205   2.257   2.262
  2.361   2.384   2.439   2.506   2.606   2.646   2.698   2.755
  2.799   2.846   2.875   2.900   3.151   3.202   3.286   3.356
  3.427   3.491   3.529   4.239   4.270   4.421   4.633
 --------------------------------------------------------------
 
          Ground-State Mulliken Net Atomic Charges

     Atom                 Charge (a.u.)    Spin (a.u.)
  --------------------------------------------------------
      1 Cl                   -0.077718       0.845161
      2 C                    -0.171900      -0.042040
      3 C                    -0.287539       1.035514
      4 C                    -0.315938       0.025032
      5 H                     0.117888       0.015251
      6 H                     0.110962       0.051224
      7 H                     0.118129       0.000745
      8 H                     0.163583       0.064877
      9 H                     0.109566      -0.001186
     10 H                     0.110621       0.004701
     11 H                     0.122346       0.000722
  --------------------------------------------------------
  Sum of atomic charges =    -0.000000
  Sum of spin   charges =     2.000000

 -----------------------------------------------------------------
                    Cartesian Multipole Moments
 -----------------------------------------------------------------
    Charge (ESU x 10^10)
                 0.0000
    Dipole Moment (Debye)
         X      -1.7422      Y       0.8587      Z       0.6883
       Tot       2.0607
    Quadrupole Moments (Debye-Ang)
        XX     -36.8132     XY       0.8235     YY     -31.9321
        XZ       1.5889     YZ       0.3814     ZZ     -33.5440
    Octopole Moments (Debye-Ang^2)
       XXX     -54.6952    XXY      -0.8417    XYY     -11.7563
       YYY      -3.1228    XXZ       9.5414    XYZ       1.0114
       YYZ       6.2775    XZZ     -16.0003    YZZ      -1.2423
       ZZZ      23.3430
    Hexadecapole Moments (Debye-Ang^3)
      XXXX    -633.1749   XXXY     -13.8687   XXYY    -111.9154
      XYYY     -10.4625   YYYY     -87.6583   XXXZ      72.7287
      XXYZ       3.1752   XYYZ      20.3560   YYYZ      -0.7239
      XXZZ    -123.6379   XYZZ      -4.5433   YYZZ     -35.1674
      XZZZ      66.6261   YZZZ       0.6763   ZZZZ    -114.7054
 -----------------------------------------------------------------
 Calculating analytic gradient of the SCF energy
 Gradient of SCF Energy
            1           2           3           4           5           6
    1  -0.0609163  -0.0000008   0.0609500  -0.0000058   0.0000107   0.0000117
    2   0.0226827  -0.0001017  -0.0225741   0.0000400  -0.0000193   0.0000141
    3   0.0414682  -0.0000169  -0.0415304   0.0000028   0.0000070  -0.0000273
            7           8           9          10          11
    1  -0.0000060  -0.0000628   0.0000093   0.0000059   0.0000042
    2  -0.0000013  -0.0000073  -0.0000130  -0.0000100  -0.0000100
    3   0.0000047   0.0000943   0.0000006  -0.0000001  -0.0000029
 Max gradient component =       6.095E-02
 RMS gradient           =       1.898E-02
 Gradient time:  CPU 8.18 s  wall 0.83 s
 Geometry Optimization Parameters
   NAtoms,    NIC,     NZ,  NCons,   NDum,   NFix, NCnnct, MaxDiis
       11      68       0       1       0       0       0       0


** CONSTRAINED OPTIMIZATION IN DELOCALIZED INTERNAL COORDINATES **
   Searching for a Minimum

   Optimization Cycle:   1

                       Coordinates (Angstroms)
     ATOM                X               Y               Z
      1  Cl        2.2195990000   -0.1448460000   -0.7507400000
      2  C        -0.7528300000    0.4852900000   -0.3295140000
      3  C         0.5610480000    0.4727400000    0.3796570000
      4  C        -1.7258970000   -0.5456820000    0.2721010000
      5  H        -0.5978730000    0.2747390000   -1.3955990000
      6  H        -1.2239900000    1.4833890000   -0.2814590000
      7  H         0.5353800000    0.5817460000    1.4720000000
      8  H         1.3178930000    1.2316320000   -0.0008190000
      9  H        -1.9176280000   -0.3393280000    1.3302300000
     10  H        -2.6840360000   -0.5212390000   -0.2556010000
     11  H        -1.3160640000   -1.5568430000    0.1944370000
   Point Group: c1    Number of degrees of freedom:    27


   Energy is   -578.569503895

              Constraints and their Current Values
                                        Value     Constraint
   Distance(Angs):        1   3             2.100000     2.000000

 Attempting to Generate Delocalized Internal Coordinates

   Using Lagrange Multiplier Algorithm


 28 Hessian modes will be used to form the next step
  Hessian Eigenvalues:
    -0.942538    0.045000    0.045000    0.059651    0.068926    0.078327
     0.082968    0.083385    0.086647    0.102334    0.131097    0.160000
     0.160000    0.160000    0.160000    0.160000    0.216180    0.218831
     0.285160    0.298707    0.331118    0.331608    0.338966    0.339410
     0.342435    0.343409    0.343749    1.060965

 Minimum Search - Taking P-RFO Step
 Searching for Lamda that Maximizes Along the Constraint modes Only
 Value Taken    Lamda =   0.03700819
 Searching for Lamda that Minimizes Along All other modes
 Value Taken    Lamda =  -0.00506925
 Step Taken.  Stepsize is  0.183505

                             Maximum     Tolerance    Cnvgd?
         Gradient            0.188973       0.000300      NO
         Displacement        0.183499       0.001200      NO
         Energy change     *********       0.000001      NO


 New Cartesian Coordinates Obtained by Inverse Iteration

 Displacement from previous Coordinates is:  0.171319
 ----------------------------------------------------------------
             Standard Nuclear Orientation (Angstroms)
    I     Atom           X                Y                Z
 ----------------------------------------------------------------
    1      Cl      2.1475133817    -0.1239183034    -0.7106076652
    2      C      -0.7464017656     0.4836131154    -0.3332968169
    3      C       0.5695989654     0.4676735139     0.3718900927
    4      C      -1.7196404139    -0.5460076731     0.2704453692
    5      H      -0.5951584873     0.2735789048    -1.4000220422
    6      H      -1.2154793079     1.4825680317    -0.2830059739
    7      H       0.5473357808     0.5761860621     1.4643534423
    8      H       1.3269092934     1.2252131380    -0.0107680573
    9      H      -1.9078130722    -0.3401106200     1.3293026088
   10      H      -2.6793211688    -0.5193309966    -0.2543475725
   11      H      -1.3119412056    -1.5578671728     0.1907496148
 ----------------------------------------------------------------
 Nuclear Repulsion Energy =   154.2678714579 hartrees
 There are       22 alpha and       20 beta electrons

                       Distance Matrix (Angstroms)
             Cl(  1)   C (  2)   C (  3)   C (  4)   H (  5)   H (  6)
   C (  2)  2.980973
   C (  3)  2.002897  1.493118
   C (  4)  4.011920  1.540070  2.505685
   H (  5)  2.855792  1.097676  2.129320  2.174084
   H (  6)  3.751448  1.104751  2.155320  2.162315  1.759027
   H (  7)  2.789475  2.216726  1.098065  2.797126  3.098631  2.642406
   H (  8)  1.727230  2.225447  1.137459  3.535218  2.555382  2.569841
   H (  9)  4.544628  2.188980  2.776099  1.094980  3.090128  2.530024
   H ( 10)  4.864448  2.179061  3.452801  1.094124  2.506992  2.480172
   H ( 11)  3.851815  2.182224  2.770527  1.093814  2.529531  3.078635
             H (  7)   H (  8)   H (  9)   H ( 10)
   H (  8)  1.790239
   H (  9)  2.624042  3.835291
   H ( 10)  3.816465  4.376374  1.770676
   H ( 11)  3.103733  3.840531  1.770395  1.773809
 
 Applying Cartesian multipole field
    Component          Value
    ---------          -----
     (2,0,0)        1.00000E-11
     (0,2,0)        2.00000E-11
     (0,0,2)       -3.00000E-10
 Nucleus-field energy     =    -0.0000000127 hartrees
 Requested basis set is 6-31G(d,p)
 There are 38 shells and 99 basis functions
 A cutoff of  1.0D-14 yielded    714 shell pairs
 There are      4915 function pairs
 Smallest overlap matrix eigenvalue = 5.66E-03
 Guess from superposition of atomic densities
 Warning:  Energy on first SCF cycle will be non-variational
 SAD guess density has 42.000000 electrons

 -----------------------------------------------------------------------
  General SCF calculation program by
  Eric Jon Sundstrom, Paul Horn, Yuezhi Mao, Dmitri Zuev, Alec White,
  David Stuck, Shaama M.S., Shane Yost, Joonho Lee, David Small,
  Daniel Levine, Susi Lehtola, Hugh Burton, Evgeny Epifanovsky
 -----------------------------------------------------------------------
 Exchange:     0.2000 Hartree-Fock + 0.0800 Slater + 0.7200 B88
 Correlation:  0.1900 VWN1RPA + 0.8100 LYP
 Using SG-1 standard quadrature grid
 using 12 threads for integral computing
 -------------------------------------------------------
 OpenMP Integral computing Module                
 Release: version 1.0, May 2013, Q-Chem Inc. Pittsburgh 
 -------------------------------------------------------
 -------------------------------------------------------
 OpenMP BLAS3 based DFT computing Module                
 Release: version 1.0, May 2013, Q-Chem Inc. Pittsburgh 
 -------------------------------------------------------
 A unrestricted SCF calculation will be
 performed using DIIS
 SCF converges when DIIS error is below 1.0e-06
 Alpha HF Exchange    Energy =  -4.56951602984844
 Beta HF Exchange     Energy =  -4.56951602984844
 DFT Correlation      Energy =  -1.90184568501374
 DFT Exchange         Energy = -35.75191557665389
 One-Electron (alpha) Energy = -548.15983625935291
 One-Electron (beta)  Energy = -548.15983625935291
 Total Coulomb        Energy = 409.76109350674454
 ---------------------------------------
  Cycle       Energy         DIIS error
 ---------------------------------------
    1    -579.0835008881      3.03e-02  
 Alpha HF Exchange    Energy =  -4.68778369446829
 Beta HF Exchange     Energy =  -4.46553069042703
 DFT Correlation      Energy =  -1.92140970473919
 DFT Exchange         Energy = -36.32723926965654
 One-Electron (alpha) Energy = -564.98848105829370
 One-Electron (beta)  Energy = -537.62802867844073
 Total Coulomb        Energy = 417.28222634455966
    2    -578.4683753062      3.87e-03  
 Alpha HF Exchange    Energy =  -4.63694004388930
 Beta HF Exchange     Energy =  -4.42054934787502
 DFT Correlation      Energy =  -1.89559720612455
 DFT Exchange         Energy = -35.91824486205660
 One-Electron (alpha) Energy = -561.73299620292426
 One-Electron (beta)  Energy = -534.83399084067344
 Total Coulomb        Energy = 410.74009087865829
    3    -578.4303561797      4.70e-03  
 Alpha HF Exchange    Energy =  -4.66154161105491
 Beta HF Exchange     Energy =  -4.44020691795140
 DFT Correlation      Energy =  -1.90749290646228
 DFT Exchange         Energy = -36.10000926007011
 One-Electron (alpha) Energy = -563.40631651976003
 One-Electron (beta)  Energy = -535.84535821661882
 Total Coulomb        Energy = 413.54255261216298
    4    -578.5505013745      5.74e-04  
 Alpha HF Exchange    Energy =  -4.66570000949298
 Beta HF Exchange     Energy =  -4.44367742677763
 DFT Correlation      Energy =  -1.90803532084420
 DFT Exchange         Energy = -36.12885008303760
 One-Electron (alpha) Energy = -563.66526254162886
 One-Electron (beta)  Energy = -536.10015118725255
 Total Coulomb        Energy = 414.09147023711949
    5    -578.5523348867      2.37e-04  
 Alpha HF Exchange    Energy =  -4.66497203968243
 Beta HF Exchange     Energy =  -4.44260009724928
 DFT Correlation      Energy =  -1.90754233126468
 DFT Exchange         Energy = -36.12070671119560
 One-Electron (alpha) Energy = -563.60593703237384
 One-Electron (beta)  Energy = -535.97312207157631
 Total Coulomb        Energy = 413.89431862295197
    6    -578.5526902152      8.55e-05  
 Alpha HF Exchange    Energy =  -4.66490007524450
 Beta HF Exchange     Energy =  -4.44279402539058
 DFT Correlation      Energy =  -1.90742724753087
 DFT Exchange         Energy = -36.12062154822663
 One-Electron (alpha) Energy = -563.60422057040148
 One-Electron (beta)  Energy = -535.96852505730328
 Total Coulomb        Energy = 413.88787890553226
    7    -578.5527381733      3.27e-05  
 Alpha HF Exchange    Energy =  -4.66507221420281
 Beta HF Exchange     Energy =  -4.44287519709178
 DFT Correlation      Energy =  -1.90742716542019
 DFT Exchange         Energy = -36.12148083981300
 One-Electron (alpha) Energy = -563.61787417041535
 One-Electron (beta)  Energy = -535.97238893042152
 Total Coulomb        Energy = 413.90650031017481
    8    -578.5527467620      9.50e-06  
 Alpha HF Exchange    Energy =  -4.66505182207041
 Beta HF Exchange     Energy =  -4.44290519861832
 DFT Correlation      Energy =  -1.90740039636592
 DFT Exchange         Energy = -36.12141698403159
 One-Electron (alpha) Energy = -563.61615637264185
 One-Electron (beta)  Energy = -535.96931664833392
 Total Coulomb        Energy = 413.90162784535670
    9    -578.5527481315      2.90e-06  
 Alpha HF Exchange    Energy =  -4.66504875422930
 Beta HF Exchange     Energy =  -4.44291124788570
 DFT Correlation      Energy =  -1.90739714935448
 DFT Exchange         Energy = -36.12141553570363
 One-Electron (alpha) Energy = -563.61600163075502
 One-Electron (beta)  Energy = -535.96922881301953
 Total Coulomb        Energy = 413.90138342962479
   10    -578.5527482561      1.34e-06  
 Alpha HF Exchange    Energy =  -4.66504899416377
 Beta HF Exchange     Energy =  -4.44291650006079
 DFT Correlation      Energy =  -1.90739758294757
 DFT Exchange         Energy = -36.12143633928744
 One-Electron (alpha) Energy = -563.61614711766993
 One-Electron (beta)  Energy = -535.96967397074388
 Total Coulomb        Energy = 413.90200078126480
   11    -578.5527482784      6.51e-07  Convergence criterion met
 ---------------------------------------
 SCF time:   CPU 24.49s  wall 2.00s 
<S^2> =          2.005124878
 Alpha HF Exchange    Energy =  -4.66504899416377
 Beta HF Exchange     Energy =  -4.44291650006079
 DFT Correlation      Energy =  -1.90739758294757
 DFT Exchange         Energy = -36.12143633928744
 One-Electron (alpha) Energy = -563.61614711766993
 One-Electron (beta)  Energy = -535.96967397074388
 Total Coulomb        Energy = 413.90200078126480
 Nuclear repulsion Energy = 154.26787144522541
 SCF   energy in the final basis set =     -578.5527482784
 Total energy in the final basis set =     -578.5527482784
 
 --------------------------------------------------------------
 
                    Orbital Energies (a.u.)
 --------------------------------------------------------------
 
 Alpha MOs
 -- Occupied --
******* -10.213 -10.198 -10.186  -9.462  -7.231  -7.218  -7.214
 -0.864  -0.784  -0.689  -0.601  -0.498  -0.465  -0.423  -0.389
 -0.381  -0.360  -0.346  -0.317  -0.292  -0.141
 -- Virtual --
  0.083   0.123   0.129   0.151   0.164   0.172   0.189   0.217
  0.245   0.386   0.440   0.444   0.458   0.503   0.516   0.532
  0.554   0.608   0.646   0.672   0.725   0.751   0.794   0.842
  0.847   0.853   0.862   0.872   0.884   0.909   0.918   0.932
  0.974   0.996   1.069   1.235   1.308   1.456   1.544   1.614
  1.681   1.781   1.799   1.825   1.899   1.954   2.042   2.057
  2.068   2.094   2.127   2.197   2.250   2.256   2.351   2.377
  2.435   2.490   2.592   2.634   2.695   2.750   2.790   2.835
  2.873   2.896   3.130   3.193   3.283   3.348   3.420   3.481
  3.527   4.207   4.269   4.408   4.627
 
 Beta MOs
 -- Occupied --
******* -10.198 -10.195 -10.186  -9.455  -7.214  -7.210  -7.210
 -0.823  -0.770  -0.664  -0.581  -0.467  -0.453  -0.413  -0.370
 -0.366  -0.351  -0.322  -0.301
 -- Virtual --
 -0.170  -0.000   0.092   0.134   0.137   0.157   0.168   0.177
  0.196   0.224   0.256   0.411   0.451   0.456   0.486   0.512
  0.527   0.549   0.560   0.626   0.653   0.698   0.741   0.769
  0.821   0.852   0.861   0.878   0.880   0.895   0.898   0.927
  0.939   0.948   0.986   1.019   1.085   1.254   1.322   1.461
  1.557   1.631   1.693   1.798   1.832   1.843   1.916   1.992
  2.043   2.060   2.082   2.098   2.136   2.208   2.258   2.263
  2.367   2.385   2.443   2.509   2.606   2.647   2.700   2.758
  2.800   2.846   2.875   2.900   3.148   3.201   3.287   3.357
  3.427   3.491   3.530   4.226   4.290   4.423   4.633
 --------------------------------------------------------------
 
          Ground-State Mulliken Net Atomic Charges

     Atom                 Charge (a.u.)    Spin (a.u.)
  --------------------------------------------------------
      1 Cl                   -0.057683       0.853037
      2 C                    -0.169188      -0.039145
      3 C                    -0.306595       1.012272
      4 C                    -0.315137       0.025495
      5 H                     0.114793       0.015616
      6 H                     0.109281       0.048366
      7 H                     0.117435       0.007051
      8 H                     0.165536       0.073144
      9 H                     0.109800      -0.001139
     10 H                     0.110547       0.004843
     11 H                     0.121212       0.000460
  --------------------------------------------------------
  Sum of atomic charges =    -0.000000
  Sum of spin   charges =     2.000000

 -----------------------------------------------------------------
                    Cartesian Multipole Moments
 -----------------------------------------------------------------
    Charge (ESU x 10^10)
                -0.0000
    Dipole Moment (Debye)
         X      -1.6592      Y       0.8586      Z       0.6712
       Tot       1.9851
    Quadrupole Moments (Debye-Ang)
        XX     -36.7803     XY       1.0104     YY     -31.9041
        XZ       1.6427     YZ       0.2679     ZZ     -33.6297
    Octopole Moments (Debye-Ang^2)
       XXX     -52.3334    XXY      -0.5015    XYY     -10.8377
       YYY      -3.7775    XXZ       9.4322    XYZ       0.7222
       YYZ       5.8358    XZZ     -15.2920    YZZ      -1.4055
       ZZZ      22.0353
    Hexadecapole Moments (Debye-Ang^3)
      XXXX    -609.0056   XXXY     -13.8702   XXYY    -107.8807
      XYYY     -12.2188   YYYY     -87.0448   XXXZ      68.4263
      XXYZ       2.5762   XYYZ      18.6955   YYYZ      -0.0013
      XXZZ    -119.2156   XYZZ      -4.8106   YYZZ     -34.4475
      XZZZ      61.4014   YZZZ       1.2219   ZZZZ    -110.5459
 -----------------------------------------------------------------
 Calculating analytic gradient of the SCF energy
 Gradient of SCF Energy
            1           2           3           4           5           6
    1  -0.0832842   0.0013476   0.0782548  -0.0002361  -0.0002086   0.0005900
    2   0.0353614  -0.0025035  -0.0232557  -0.0000053   0.0001563   0.0001701
    3   0.0570483  -0.0011893  -0.0524955  -0.0001020   0.0001994   0.0003086
            7           8           9          10          11
    1   0.0007015   0.0028945  -0.0000091  -0.0000625   0.0000123
    2  -0.0018162  -0.0081557  -0.0000155  -0.0000097   0.0000739
    3  -0.0009471  -0.0028761   0.0000416   0.0000341  -0.0000219
 Max gradient component =       8.328E-02
 RMS gradient           =       2.520E-02
 Gradient time:  CPU 8.22 s  wall 0.83 s
 Geometry Optimization Parameters
   NAtoms,    NIC,     NZ,  NCons,   NDum,   NFix, NCnnct, MaxDiis
       11      68       0       1       0       0       0       0

 Cartesian Hessian Update
 Hessian Updated using BFGS Update


** CONSTRAINED OPTIMIZATION IN DELOCALIZED INTERNAL COORDINATES **
   Searching for a Minimum

   Optimization Cycle:   2

                       Coordinates (Angstroms)
     ATOM                X               Y               Z
      1  Cl        2.1475133817   -0.1239183034   -0.7106076652
      2  C        -0.7464017656    0.4836131154   -0.3332968169
      3  C         0.5695989654    0.4676735139    0.3718900927
      4  C        -1.7196404139   -0.5460076731    0.2704453692
      5  H        -0.5951584873    0.2735789048   -1.4000220422
      6  H        -1.2154793079    1.4825680317   -0.2830059739
      7  H         0.5473357808    0.5761860621    1.4643534423
      8  H         1.3269092934    1.2252131380   -0.0107680573
      9  H        -1.9078130722   -0.3401106200    1.3293026088
     10  H        -2.6793211688   -0.5193309966   -0.2543475725
     11  H        -1.3119412056   -1.5578671728    0.1907496148
   Point Group: c1    Number of degrees of freedom:    27


   Energy is   -578.552748278

              Constraints and their Current Values
                                        Value     Constraint
   Distance(Angs):        1   3             2.002897     2.000000
 Hessian Updated using BFGS Update

   Using Lagrange Multiplier Algorithm


 25 Hessian modes will be used to form the next step
  Hessian Eigenvalues:
    -0.923767    0.044999    0.045000    0.059651    0.068942    0.078327
     0.082968    0.083385    0.101961    0.103476    0.131230    0.160000
     0.164510    0.216296    0.218954    0.285164    0.299862    0.331279
     0.331610    0.339206    0.339436    0.342435    0.343409    0.343750
     1.086659

 Minimum Search - Taking P-RFO Step
 Searching for Lamda that Maximizes Along the Constraint modes Only
 Value Taken    Lamda =   0.00016143
 Searching for Lamda that Minimizes Along All other modes
 Value Taken    Lamda =  -0.00111693
 Step Taken.  Stepsize is  0.097634

                             Maximum     Tolerance    Cnvgd?
         Gradient            0.012748       0.000300      NO
         Displacement        0.047959       0.001200      NO
         Energy change      0.016756       0.000001      NO


 New Cartesian Coordinates Obtained by Inverse Iteration

 Displacement from previous Coordinates is:  0.110308
 ----------------------------------------------------------------
             Standard Nuclear Orientation (Angstroms)
    I     Atom           X                Y                Z
 ----------------------------------------------------------------
    1      Cl      2.1437246026    -0.1629394472    -0.7023276015
    2      C      -0.7450809596     0.4868611745    -0.3339747515
    3      C       0.5745709386     0.4652370222     0.3668584843
    4      C      -1.7142885600    -0.5463725004     0.2695614270
    5      H      -0.5967537948     0.2807623261    -1.4022049879
    6      H      -1.2173579764     1.4841933995    -0.2791185871
    7      H       0.5441204137     0.5782509807     1.4601417014
    8      H       1.3069526380     1.2565703339    -0.0070381795
    9      H      -1.8987829094    -0.3445029341     1.3297943078
   10      H      -2.6757912863    -0.5189190218    -0.2517401144
   11      H      -1.3057111064    -1.5575433335     0.1847413011
 ----------------------------------------------------------------
 Nuclear Repulsion Energy =   154.1701724680 hartrees
 There are       22 alpha and       20 beta electrons

                       Distance Matrix (Angstroms)
             Cl(  1)   C (  2)   C (  3)   C (  4)   H (  5)   H (  6)
   C (  2)  2.983810
   C (  3)  2.000002  1.494361
   C (  4)  3.996981  1.539867  2.504336
   H (  5)  2.863027  1.097995  2.129699  2.174359
   H (  6)  3.766833  1.104865  2.160224  2.161293  1.759181
   H (  7)  2.790048  2.211164  1.099531  2.789744  3.095662  2.636013
   H (  8)  1.788469  2.215893  1.141223  3.529165  2.553975  2.549114
   H (  9)  4.528173  2.188680  2.774960  1.094935  3.090317  2.529243
   H ( 10)  4.853605  2.178531  3.451968  1.094073  2.507081  2.477950
   H ( 11)  3.824973  2.182421  2.767719  1.093891  2.529899  3.078171
             H (  7)   H (  8)   H (  9)   H ( 10)
   H (  8)  1.787358
   H (  9)  2.614621  3.824565
   H ( 10)  3.808169  4.367435  1.770710
   H ( 11)  3.100023  3.844740  1.770409  1.773803
 
 Applying Cartesian multipole field
    Component          Value
    ---------          -----
     (2,0,0)        1.00000E-11
     (0,2,0)        2.00000E-11
     (0,0,2)       -3.00000E-10
 Nucleus-field energy     =    -0.0000000125 hartrees
 Requested basis set is 6-31G(d,p)
 There are 38 shells and 99 basis functions
 A cutoff of  1.0D-14 yielded    716 shell pairs
 There are      4934 function pairs
 Smallest overlap matrix eigenvalue = 5.64E-03
 Guess from superposition of atomic densities
 Warning:  Energy on first SCF cycle will be non-variational
 SAD guess density has 42.000000 electrons

 -----------------------------------------------------------------------
  General SCF calculation program by
  Eric Jon Sundstrom, Paul Horn, Yuezhi Mao, Dmitri Zuev, Alec White,
  David Stuck, Shaama M.S., Shane Yost, Joonho Lee, David Small,
  Daniel Levine, Susi Lehtola, Hugh Burton, Evgeny Epifanovsky
 -----------------------------------------------------------------------
 Exchange:     0.2000 Hartree-Fock + 0.0800 Slater + 0.7200 B88
 Correlation:  0.1900 VWN1RPA + 0.8100 LYP
 Using SG-1 standard quadrature grid
 using 12 threads for integral computing
 -------------------------------------------------------
 OpenMP Integral computing Module                
 Release: version 1.0, May 2013, Q-Chem Inc. Pittsburgh 
 -------------------------------------------------------
 -------------------------------------------------------
 OpenMP BLAS3 based DFT computing Module                
 Release: version 1.0, May 2013, Q-Chem Inc. Pittsburgh 
 -------------------------------------------------------
 A unrestricted SCF calculation will be
 performed using DIIS
 SCF converges when DIIS error is below 1.0e-06
 Alpha HF Exchange    Energy =  -4.56785375391677
 Beta HF Exchange     Energy =  -4.56785375391677
 DFT Correlation      Energy =  -1.90145492447319
 DFT Exchange         Energy = -35.74840551814206
 One-Electron (alpha) Energy = -548.06896120836802
 One-Electron (beta)  Energy = -548.06896120836802
 Total Coulomb        Energy = 409.68462945015295
 ---------------------------------------
  Cycle       Energy         DIIS error
 ---------------------------------------
    1    -579.0686884615      3.01e-02  
 Alpha HF Exchange    Energy =  -4.68732070848168
 Beta HF Exchange     Energy =  -4.46456504105118
 DFT Correlation      Energy =  -1.92114537043452
 DFT Exchange         Energy = -36.32257587141947
 One-Electron (alpha) Energy = -564.91178546983383
 One-Electron (beta)  Energy = -537.51260061313485
 Total Coulomb        Energy = 417.18274390405645
    2    -578.4670767147      3.91e-03  
 Alpha HF Exchange    Energy =  -4.63645244924812
 Beta HF Exchange     Energy =  -4.41904229039673
 DFT Correlation      Energy =  -1.89529747690469
 DFT Exchange         Energy = -35.91309618809026
 One-Electron (alpha) Energy = -561.63721822955665
 One-Electron (beta)  Energy = -534.78115677641711
 Total Coulomb        Energy = 410.69041437483469
    3    -578.4216765802      4.85e-03  
 Alpha HF Exchange    Energy =  -4.66079981708121
 Beta HF Exchange     Energy =  -4.43886015704420
 DFT Correlation      Energy =  -1.90715062385483
 DFT Exchange         Energy = -36.09284767579106
 One-Electron (alpha) Energy = -563.30179873601890
 One-Electron (beta)  Energy = -535.70738515146661
 Total Coulomb        Energy = 413.38844294659685
    4    -578.5502267591      6.30e-04  
 Alpha HF Exchange    Energy =  -4.66536289928470
 Beta HF Exchange     Energy =  -4.44254214255592
 DFT Correlation      Energy =  -1.90784613706575
 DFT Exchange         Energy = -36.12449360981920
 One-Electron (alpha) Energy = -563.59127686891372
 One-Electron (beta)  Energy = -536.00194887546456
 Total Coulomb        Energy = 414.01080087656442
    5    -578.5524972010      2.45e-04  
 Alpha HF Exchange    Energy =  -4.66458897546535
 Beta HF Exchange     Energy =  -4.44145775051437
 DFT Correlation      Energy =  -1.90730574556080
 DFT Exchange         Energy = -36.11593203594293
 One-Electron (alpha) Energy = -563.52764232272921
 One-Electron (beta)  Energy = -535.86560949666182
 Total Coulomb        Energy = 413.79948155890651
    6    -578.5528823124      9.08e-05  
 Alpha HF Exchange    Energy =  -4.66450769032040
 Beta HF Exchange     Energy =  -4.44166102984661
 DFT Correlation      Energy =  -1.90718475459509
 DFT Exchange         Energy = -36.11580421216583
 One-Electron (alpha) Energy = -563.52523106905176
 One-Electron (beta)  Energy = -535.86071269542401
 Total Coulomb        Energy = 413.79199168141662
    7    -578.5529373144      3.56e-05  
 Alpha HF Exchange    Energy =  -4.66468535074878
 Beta HF Exchange     Energy =  -4.44174816288130
 DFT Correlation      Energy =  -1.90718294797883
 DFT Exchange         Energy = -36.11668510759221
 One-Electron (alpha) Energy = -563.53954198863948
 One-Electron (beta)  Energy = -535.86444815339723
 Total Coulomb        Energy = 413.81117144905676
    8    -578.5529478066      1.01e-05  
 Alpha HF Exchange    Energy =  -4.66466842428742
 Beta HF Exchange     Energy =  -4.44178765620400
 DFT Correlation      Energy =  -1.90715433334930
 DFT Exchange         Energy = -36.11665339245200
 One-Electron (alpha) Energy = -563.53805787397516
 One-Electron (beta)  Energy = -535.86133900565380
 Total Coulomb        Energy = 413.80653861914629
    9    -578.5529496112      3.27e-06  
 Alpha HF Exchange    Energy =  -4.66466414722587
 Beta HF Exchange     Energy =  -4.44179462384140
 DFT Correlation      Energy =  -1.90715018523278
 DFT Exchange         Energy = -36.11664660421371
 One-Electron (alpha) Energy = -563.53782505603090
 One-Electron (beta)  Energy = -535.86119466250614
 Total Coulomb        Energy = 413.80615303003373
   10    -578.5529497934      1.57e-06  
 Alpha HF Exchange    Energy =  -4.66466462309840
 Beta HF Exchange     Energy =  -4.44180068142659
 DFT Correlation      Energy =  -1.90715073830509
 DFT Exchange         Energy = -36.11667144956228
 One-Electron (alpha) Energy = -563.53800050176380
 One-Electron (beta)  Energy = -535.86172845267970
 Total Coulomb        Energy = 413.80689416433052
   11    -578.5529498269      7.80e-07  Convergence criterion met
 ---------------------------------------
 SCF time:   CPU 24.43s  wall 2.00s 
<S^2> =          2.004987044
 Alpha HF Exchange    Energy =  -4.66466462309840
 Beta HF Exchange     Energy =  -4.44180068142659
 DFT Correlation      Energy =  -1.90715073830509
 DFT Exchange         Energy = -36.11667144956228
 One-Electron (alpha) Energy = -563.53800050176380
 One-Electron (beta)  Energy = -535.86172845267970
 Total Coulomb        Energy = 413.80689416433052
 Nuclear repulsion Energy = 154.17017245557761
 SCF   energy in the final basis set =     -578.5529498269
 Total energy in the final basis set =     -578.5529498269
 
 --------------------------------------------------------------
 
                    Orbital Energies (a.u.)
 --------------------------------------------------------------
 
 Alpha MOs
 -- Occupied --
******* -10.212 -10.197 -10.186  -9.464  -7.233  -7.220  -7.216
 -0.861  -0.784  -0.688  -0.599  -0.494  -0.464  -0.421  -0.390
 -0.380  -0.360  -0.346  -0.318  -0.298  -0.139
 -- Virtual --
  0.081   0.122   0.129   0.152   0.164   0.173   0.190   0.218
  0.245   0.384   0.439   0.444   0.461   0.504   0.516   0.533
  0.555   0.611   0.648   0.673   0.725   0.755   0.793   0.844
  0.849   0.850   0.856   0.872   0.884   0.908   0.916   0.932
  0.976   0.996   1.072   1.241   1.310   1.457   1.547   1.615
  1.682   1.774   1.802   1.826   1.901   1.948   2.043   2.058
  2.072   2.095   2.124   2.194   2.252   2.260   2.340   2.374
  2.439   2.490   2.588   2.638   2.693   2.747   2.791   2.833
  2.873   2.897   3.128   3.194   3.283   3.345   3.421   3.480
  3.528   4.205   4.273   4.411   4.628
 
 Beta MOs
 -- Occupied --
******* -10.198 -10.195 -10.185  -9.457  -7.215  -7.212  -7.212
 -0.820  -0.769  -0.664  -0.580  -0.465  -0.452  -0.411  -0.368
 -0.365  -0.350  -0.323  -0.302
 -- Virtual --
 -0.177   0.001   0.090   0.133   0.136   0.157   0.168   0.178
  0.196   0.225   0.256   0.409   0.452   0.455   0.490   0.512
  0.527   0.549   0.561   0.628   0.654   0.699   0.741   0.773
  0.823   0.855   0.866   0.876   0.882   0.890   0.896   0.928
  0.939   0.943   0.988   1.019   1.087   1.260   1.324   1.462
  1.561   1.631   1.695   1.796   1.833   1.839   1.918   1.985
  2.044   2.060   2.086   2.099   2.134   2.206   2.260   2.268
  2.356   2.382   2.447   2.509   2.601   2.652   2.699   2.754
  2.801   2.843   2.876   2.900   3.146   3.202   3.288   3.354
  3.428   3.490   3.531   4.225   4.293   4.426   4.634
 --------------------------------------------------------------
 
          Ground-State Mulliken Net Atomic Charges

     Atom                 Charge (a.u.)    Spin (a.u.)
  --------------------------------------------------------
      1 Cl                   -0.046406       0.873368
      2 C                    -0.167643      -0.035518
      3 C                    -0.315005       0.980355
      4 C                    -0.314572       0.025506
      5 H                     0.113386       0.015254
      6 H                     0.108281       0.047512
      7 H                     0.116563       0.008616
      8 H                     0.164921       0.080902
      9 H                     0.109641      -0.001130
     10 H                     0.110194       0.004723
     11 H                     0.120638       0.000413
  --------------------------------------------------------
  Sum of atomic charges =    -0.000000
  Sum of spin   charges =     2.000000

 -----------------------------------------------------------------
                    Cartesian Multipole Moments
 -----------------------------------------------------------------
    Charge (ESU x 10^10)
                -0.0000
    Dipole Moment (Debye)
         X      -1.6022      Y       0.8681      Z       0.6334
       Tot       1.9292
    Quadrupole Moments (Debye-Ang)
        XX     -36.7195     XY       1.0619     YY     -31.8341
        XZ       1.5706     YZ       0.2190     ZZ     -33.6710
    Octopole Moments (Debye-Ang^2)
       XXX     -52.1437    XXY       0.1520    XYY     -10.6382
       YYY      -2.4655    XXZ       9.3026    XYZ       0.5835
       YYZ       5.7089    XZZ     -15.3134    YZZ      -0.8912
       ZZZ      21.7826
    Hexadecapole Moments (Debye-Ang^3)
      XXXX    -606.8944   XXXY     -10.0701   XXYY    -107.3601
      XYYY      -9.1688   YYYY     -88.1681   XXXZ      67.6356
      XXYZ       1.9039   XYYZ      18.2694   YYYZ      -0.8702
      XXZZ    -118.8589   XYZZ      -3.5716   YYZZ     -34.4704
      XZZZ      60.5370   YZZZ       0.1177   ZZZZ    -109.6884
 -----------------------------------------------------------------
 Calculating analytic gradient of the SCF energy
 Gradient of SCF Energy
            1           2           3           4           5           6
    1  -0.0793727   0.0012998   0.0758894  -0.0000152  -0.0000111   0.0002669
    2   0.0334120  -0.0017379  -0.0276539   0.0001104   0.0001590   0.0001578
    3   0.0537903  -0.0008394  -0.0508593   0.0000890   0.0001439   0.0001896
            7           8           9          10          11
    1   0.0002446   0.0016736  -0.0000045   0.0000572  -0.0000280
    2  -0.0013257  -0.0031676  -0.0000247   0.0000375   0.0000329
    3  -0.0004893  -0.0020039  -0.0000012   0.0000120  -0.0000316
 Max gradient component =       7.937E-02
 RMS gradient           =       2.427E-02
 Gradient time:  CPU 8.23 s  wall 0.85 s
 Geometry Optimization Parameters
   NAtoms,    NIC,     NZ,  NCons,   NDum,   NFix, NCnnct, MaxDiis
       11      68       0       1       0       0       0       0

 Cartesian Hessian Update
 Hessian Updated using BFGS Update


** CONSTRAINED OPTIMIZATION IN DELOCALIZED INTERNAL COORDINATES **
   Searching for a Minimum

   Optimization Cycle:   3

                       Coordinates (Angstroms)
     ATOM                X               Y               Z
      1  Cl        2.1437246026   -0.1629394472   -0.7023276015
      2  C        -0.7450809596    0.4868611745   -0.3339747515
      3  C         0.5745709386    0.4652370222    0.3668584843
      4  C        -1.7142885600   -0.5463725004    0.2695614270
      5  H        -0.5967537948    0.2807623261   -1.4022049879
      6  H        -1.2173579764    1.4841933995   -0.2791185871
      7  H         0.5441204137    0.5782509807    1.4601417014
      8  H         1.3069526380    1.2565703339   -0.0070381795
      9  H        -1.8987829094   -0.3445029341    1.3297943078
     10  H        -2.6757912863   -0.5189190218   -0.2517401144
     11  H        -1.3057111064   -1.5575433335    0.1847413011
   Point Group: c1    Number of degrees of freedom:    27


   Energy is   -578.552949827

              Constraints and their Current Values
                                        Value     Constraint
   Distance(Angs):        1   3             2.000002     2.000000
 Hessian Updated using BFGS Update

   Using Lagrange Multiplier Algorithm


 26 Hessian modes will be used to form the next step
  Hessian Eigenvalues:
    -0.911471    0.044983    0.045002    0.054359    0.064567    0.069595
     0.078328    0.082985    0.083393    0.102333    0.131049    0.159703
     0.160000    0.161549    0.218065    0.218882    0.285228    0.301020
     0.331131    0.331698    0.338567    0.339399    0.342438    0.343428
     0.343748    1.102729

 Minimum Search - Taking P-RFO Step
 Searching for Lamda that Maximizes Along the Constraint modes Only
 Value Taken    Lamda =   0.00000029
 Searching for Lamda that Minimizes Along All other modes
 Value Taken    Lamda =  -0.00041866
 Step Taken.  Stepsize is  0.084015

                             Maximum     Tolerance    Cnvgd?
         Gradient            0.002549       0.000300      NO
         Displacement        0.046121       0.001200      NO
         Energy change     -0.000202       0.000001      NO


 New Cartesian Coordinates Obtained by Inverse Iteration

 Displacement from previous Coordinates is:  0.084329
 ----------------------------------------------------------------
             Standard Nuclear Orientation (Angstroms)
    I     Atom           X                Y                Z
 ----------------------------------------------------------------
    1      Cl      2.1495723945    -0.1909714327    -0.6945215328
    2      C      -0.7453306328     0.4896671120    -0.3349489974
    3      C       0.5805357379     0.4605818557     0.3607541267
    4      C      -1.7116649145    -0.5466905786     0.2687251345
    5      H      -0.6021634074     0.2861682081    -1.4048331238
    6      H      -1.2194341388     1.4857295046    -0.2757444690
    7      H       0.5417856377     0.5837104029     1.4542231561
    8      H       1.2919663662     1.2777871488    -0.0005061915
    9      H      -1.8914111587    -0.3483474252     1.3304720710
   10      H      -2.6758378575    -0.5187651830    -0.2479175802
   11      H      -1.3024160266    -1.5572716126     0.1789904065
 ----------------------------------------------------------------
 Nuclear Repulsion Energy =   153.9093386663 hartrees
 There are       22 alpha and       20 beta electrons

                       Distance Matrix (Angstroms)
             Cl(  1)   C (  2)   C (  3)   C (  4)   H (  5)   H (  6)
   C (  2)  2.995501
   C (  3)  2.000001  1.497588
   C (  4)  3.995439  1.540215  2.505444
   H (  5)  2.881710  1.098436  2.132251  2.173809
   H (  6)  3.786411  1.104726  2.167014  2.160896  1.759208
   H (  7)  2.793244  2.206048  1.101062  2.785902  3.093760  2.628369
   H (  8)  1.836953  2.209879  1.142133  3.524628  2.557962  2.534981
   H (  9)  4.522711  2.188469  2.775832  1.094968  3.089768  2.528898
   H ( 10)  4.857107  2.179763  3.454500  1.094225  2.507289  2.477879
   H ( 11)  3.813925  2.182759  2.765914  1.093989  2.529253  3.077909
             H (  7)   H (  8)   H (  9)   H ( 10)
   H (  8)  1.777850
   H (  9)  2.608542  3.814408
   H ( 10)  3.803398  4.362600  1.770786
   H ( 11)  3.100178  3.847154  1.770402  1.773988
 
 Applying Cartesian multipole field
    Component          Value
    ---------          -----
     (2,0,0)        1.00000E-11
     (0,2,0)        2.00000E-11
     (0,0,2)       -3.00000E-10
 Nucleus-field energy     =    -0.0000000122 hartrees
 Requested basis set is 6-31G(d,p)
 There are 38 shells and 99 basis functions
 A cutoff of  1.0D-14 yielded    716 shell pairs
 There are      4934 function pairs
 Smallest overlap matrix eigenvalue = 5.65E-03
 Guess from superposition of atomic densities
 Warning:  Energy on first SCF cycle will be non-variational
 SAD guess density has 42.000000 electrons

 -----------------------------------------------------------------------
  General SCF calculation program by
  Eric Jon Sundstrom, Paul Horn, Yuezhi Mao, Dmitri Zuev, Alec White,
  David Stuck, Shaama M.S., Shane Yost, Joonho Lee, David Small,
  Daniel Levine, Susi Lehtola, Hugh Burton, Evgeny Epifanovsky
 -----------------------------------------------------------------------
 Exchange:     0.2000 Hartree-Fock + 0.0800 Slater + 0.7200 B88
 Correlation:  0.1900 VWN1RPA + 0.8100 LYP
 Using SG-1 standard quadrature grid
 using 12 threads for integral computing
 -------------------------------------------------------
 OpenMP Integral computing Module                
 Release: version 1.0, May 2013, Q-Chem Inc. Pittsburgh 
 -------------------------------------------------------
 -------------------------------------------------------
 OpenMP BLAS3 based DFT computing Module                
 Release: version 1.0, May 2013, Q-Chem Inc. Pittsburgh 
 -------------------------------------------------------
 A unrestricted SCF calculation will be
 performed using DIIS
 SCF converges when DIIS error is below 1.0e-06
 Alpha HF Exchange    Energy =  -4.56628447152277
 Beta HF Exchange     Energy =  -4.56628447152277
 DFT Correlation      Energy =  -1.90103520954942
 DFT Exchange         Energy = -35.74514895317272
 One-Electron (alpha) Energy = -547.81366383770762
 One-Electron (beta)  Energy = -547.81366383770762
 Total Coulomb        Energy = 409.44220935239326
 ---------------------------------------
  Cycle       Energy         DIIS error
 ---------------------------------------
    1    -579.0545327747      3.00e-02  
 Alpha HF Exchange    Energy =  -4.68684061930640
 Beta HF Exchange     Energy =  -4.46368941702592
 DFT Correlation      Energy =  -1.92078414468734
 DFT Exchange         Energy = -36.31799169923022
 One-Electron (alpha) Energy = -564.65487069820506
 One-Electron (beta)  Energy = -537.23731028129953
 Total Coulomb        Energy = 416.90586555670114
    2    -578.4662826490      3.93e-03  
 Alpha HF Exchange    Energy =  -4.63608803929166
 Beta HF Exchange     Energy =  -4.41783253278265
 DFT Correlation      Energy =  -1.89496449339716
 DFT Exchange         Energy = -35.90926385922222
 One-Electron (alpha) Energy = -561.37831068787170
 One-Electron (beta)  Energy = -534.58006956843292
 Total Coulomb        Energy = 410.49349809136561
    3    -578.4136924356      4.98e-03  
 Alpha HF Exchange    Energy =  -4.66007435161367
 Beta HF Exchange     Energy =  -4.43768898525112
 DFT Correlation      Energy =  -1.90672802189327
 DFT Exchange         Energy = -36.08621265568082
 One-Electron (alpha) Energy = -563.02238376301943
 One-Electron (beta)  Energy = -535.41583994638449
 Total Coulomb        Energy = 413.06961875040520
    4    -578.5499703194      6.84e-04  
 Alpha HF Exchange    Energy =  -4.66502422065640
 Beta HF Exchange     Energy =  -4.44155967252954
 DFT Correlation      Energy =  -1.90756867123365
 DFT Exchange         Energy = -36.12051054924545
 One-Electron (alpha) Energy = -563.34091412575322
 One-Electron (beta)  Energy = -535.74753929139138
 Total Coulomb        Energy = 413.76107319547788
    5    -578.5527046813      2.50e-04  
 Alpha HF Exchange    Energy =  -4.66421295495836
 Beta HF Exchange     Energy =  -4.44047353572779
 DFT Correlation      Energy =  -1.90698604571134
 DFT Exchange         Energy = -36.11160581293979
 One-Electron (alpha) Energy = -563.27371242141567
 One-Electron (beta)  Energy = -535.60363399716778
 Total Coulomb        Energy = 413.53817339934102
    6    -578.5531127145      9.62e-05  
 Alpha HF Exchange    Energy =  -4.66412386972166
 Beta HF Exchange     Energy =  -4.44068771934847
 DFT Correlation      Energy =  -1.90686017990526
 DFT Exchange         Energy = -36.11145453917557
 One-Electron (alpha) Energy = -563.27071350289998
 One-Electron (beta)  Energy = -535.59879249858955
 Total Coulomb        Energy = 413.53011856712743
    7    -578.5531750884      3.82e-05  
 Alpha HF Exchange    Energy =  -4.66430464189527
 Beta HF Exchange     Energy =  -4.44077929685997
 DFT Correlation      Energy =  -1.90685630960739
 DFT Exchange         Energy = -36.11234282877001
 One-Electron (alpha) Energy = -563.28548067100883
 One-Electron (beta)  Energy = -535.60229795868634
 Total Coulomb        Energy = 413.54953557915104
    8    -578.5531874736      1.07e-05  
 Alpha HF Exchange    Energy =  -4.66429121028534
 Beta HF Exchange     Energy =  -4.44082777631034
 DFT Correlation      Energy =  -1.90682614890396
 DFT Exchange         Energy = -36.11234313474871
 One-Electron (alpha) Energy = -563.28424231564964
 One-Electron (beta)  Energy = -535.59919301285163
 Total Coulomb        Energy = 413.54519522315985
    9    -578.5531897215      3.64e-06  
 Alpha HF Exchange    Energy =  -4.66428574215551
 Beta HF Exchange     Energy =  -4.44083539620917
 DFT Correlation      Energy =  -1.90682107686414
 DFT Exchange         Energy = -36.11233008554530
 One-Electron (alpha) Energy = -563.28392763257386
 One-Electron (beta)  Energy = -535.59897019196467
 Total Coulomb        Energy = 413.54464150394193
   10    -578.5531899673      1.79e-06  
 Alpha HF Exchange    Energy =  -4.66428658161942
 Beta HF Exchange     Energy =  -4.44084222722486
 DFT Correlation      Energy =  -1.90682175342137
 DFT Exchange         Energy = -36.11235938769155
 One-Electron (alpha) Energy = -563.28414342942938
 One-Electron (beta)  Energy = -535.59959057503931
 Total Coulomb        Energy = 413.54551528649870
   11    -578.5531900139      9.02e-07  Convergence criterion met
 ---------------------------------------
 SCF time:   CPU 24.44s  wall 2.00s 
<S^2> =          2.004877074
 Alpha HF Exchange    Energy =  -4.66428658161942
 Beta HF Exchange     Energy =  -4.44084222722486
 DFT Correlation      Energy =  -1.90682175342137
 DFT Exchange         Energy = -36.11235938769155
 One-Electron (alpha) Energy = -563.28414342942938
 One-Electron (beta)  Energy = -535.59959057503931
 Total Coulomb        Energy = 413.54551528649870
 Nuclear repulsion Energy = 153.90933865406762
 SCF   energy in the final basis set =     -578.5531900139
 Total energy in the final basis set =     -578.5531900139
 
 --------------------------------------------------------------
 
                    Orbital Energies (a.u.)
 --------------------------------------------------------------
 
 Alpha MOs
 -- Occupied --
******* -10.212 -10.197 -10.185  -9.466  -7.235  -7.222  -7.218
 -0.859  -0.784  -0.688  -0.598  -0.491  -0.464  -0.419  -0.390
 -0.379  -0.359  -0.346  -0.318  -0.302  -0.138
 -- Virtual --
  0.080   0.122   0.130   0.153   0.165   0.173   0.190   0.218
  0.244   0.383   0.437   0.444   0.462   0.505   0.517   0.533
  0.556   0.614   0.648   0.673   0.726   0.759   0.792   0.839
  0.848   0.850   0.859   0.871   0.884   0.906   0.916   0.932
  0.976   0.996   1.075   1.245   1.311   1.457   1.549   1.615
  1.683   1.762   1.805   1.826   1.902   1.942   2.044   2.059
  2.076   2.095   2.120   2.193   2.254   2.264   2.332   2.371
  2.442   2.495   2.582   2.642   2.693   2.744   2.791   2.831
  2.874   2.897   3.127   3.195   3.283   3.342   3.421   3.480
  3.529   4.204   4.274   4.413   4.629
 
 Beta MOs
 -- Occupied --
******* -10.197 -10.194 -10.185  -9.459  -7.217  -7.214  -7.213
 -0.817  -0.768  -0.664  -0.579  -0.462  -0.452  -0.409  -0.368
 -0.364  -0.348  -0.323  -0.302
 -- Virtual --
 -0.182   0.002   0.090   0.133   0.137   0.157   0.168   0.179
  0.196   0.225   0.255   0.408   0.451   0.454   0.492   0.513
  0.527   0.549   0.562   0.630   0.655   0.699   0.742   0.776
  0.824   0.856   0.867   0.876   0.884   0.887   0.896   0.929
  0.939   0.939   0.989   1.019   1.089   1.263   1.326   1.463
  1.563   1.631   1.695   1.788   1.833   1.837   1.918   1.978
  2.044   2.061   2.090   2.100   2.132   2.205   2.261   2.272
  2.349   2.379   2.450   2.513   2.594   2.657   2.699   2.751
  2.803   2.841   2.876   2.901   3.146   3.203   3.288   3.352
  3.428   3.489   3.533   4.223   4.294   4.429   4.635
 --------------------------------------------------------------
 
          Ground-State Mulliken Net Atomic Charges

     Atom                 Charge (a.u.)    Spin (a.u.)
  --------------------------------------------------------
      1 Cl                   -0.037456       0.887441
      2 C                    -0.167385      -0.032441
      3 C                    -0.320968       0.957515
      4 C                    -0.314051       0.025493
      5 H                     0.112374       0.014633
      6 H                     0.107627       0.046543
      7 H                     0.115644       0.010665
      8 H                     0.164719       0.086221
      9 H                     0.109467      -0.001130
     10 H                     0.109856       0.004666
     11 H                     0.120174       0.000394
  --------------------------------------------------------
  Sum of atomic charges =    -0.000000
  Sum of spin   charges =     2.000000

 -----------------------------------------------------------------
                    Cartesian Multipole Moments
 -----------------------------------------------------------------
    Charge (ESU x 10^10)
                -0.0000
    Dipole Moment (Debye)
         X      -1.5580      Y       0.8755      Z       0.6000
       Tot       1.8852
    Quadrupole Moments (Debye-Ang)
        XX     -36.6675     XY       1.0882     YY     -31.7798
        XZ       1.5098     YZ       0.1961     ZZ     -33.7054
    Octopole Moments (Debye-Ang^2)
       XXX     -52.3037    XXY       0.6175    XYY     -10.5986
       YYY      -1.4835    XXZ       9.1705    XYZ       0.4896
       YYZ       5.6302    XZZ     -15.4138    YZZ      -0.4967
       ZZZ      21.5314
    Hexadecapole Moments (Debye-Ang^3)
      XXXX    -608.4604   XXXY      -7.3207   XXYY    -107.5039
      XYYY      -6.9557   YYYY     -89.0149   XXXZ      67.0529
      XXYZ       1.4366   XYYZ      18.0067   YYYZ      -1.4125
      XXZZ    -119.0635   XYZZ      -2.6483   YYZZ     -34.4533
      XZZZ      59.9257   YZZZ      -0.6246   ZZZZ    -108.8274
 -----------------------------------------------------------------
 Calculating analytic gradient of the SCF energy
 Gradient of SCF Energy
            1           2           3           4           5           6
    1  -0.0762054   0.0005237   0.0756869  -0.0000141   0.0000451  -0.0001727
    2   0.0317509  -0.0004203  -0.0307363   0.0000870   0.0000695   0.0000559
    3   0.0509289  -0.0003013  -0.0497087   0.0000768  -0.0000090  -0.0000490
            7           8           9          10          11
    1  -0.0001152   0.0002772   0.0000195  -0.0000190  -0.0000261
    2  -0.0004279  -0.0003572   0.0000136  -0.0000163  -0.0000187
    3  -0.0002595  -0.0006439  -0.0000161   0.0000219  -0.0000403
 Max gradient component =       7.621E-02
 RMS gradient           =       2.371E-02
 Gradient time:  CPU 8.20 s  wall 0.84 s
 Geometry Optimization Parameters
   NAtoms,    NIC,     NZ,  NCons,   NDum,   NFix, NCnnct, MaxDiis
       11      68       0       1       0       0       0       0

 Cartesian Hessian Update
 Hessian Updated using BFGS Update


** CONSTRAINED OPTIMIZATION IN DELOCALIZED INTERNAL COORDINATES **
   Searching for a Minimum

   Optimization Cycle:   4

                       Coordinates (Angstroms)
     ATOM                X               Y               Z
      1  Cl        2.1495723945   -0.1909714327   -0.6945215328
      2  C        -0.7453306328    0.4896671120   -0.3349489974
      3  C         0.5805357379    0.4605818557    0.3607541267
      4  C        -1.7116649145   -0.5466905786    0.2687251345
      5  H        -0.6021634074    0.2861682081   -1.4048331238
      6  H        -1.2194341388    1.4857295046   -0.2757444690
      7  H         0.5417856377    0.5837104029    1.4542231561
      8  H         1.2919663662    1.2777871488   -0.0005061915
      9  H        -1.8914111587   -0.3483474252    1.3304720710
     10  H        -2.6758378575   -0.5187651830   -0.2479175802
     11  H        -1.3024160266   -1.5572716126    0.1789904065
   Point Group: c1    Number of degrees of freedom:    27


   Energy is   -578.553190014

              Constraints and their Current Values
                                        Value     Constraint
   Distance(Angs):        1   3             2.000001     2.000000
 Hessian Updated using BFGS Update

   Using Lagrange Multiplier Algorithm


 27 Hessian modes will be used to form the next step
  Hessian Eigenvalues:
    -0.911608    0.043781    0.045000    0.045756    0.064101    0.069332
     0.078350    0.082987    0.083394    0.102426    0.131411    0.159985
     0.160000    0.160178    0.163232    0.218064    0.219824    0.285228
     0.301646    0.330669    0.331688    0.338283    0.339426    0.342439
     0.343432    0.343751    1.102742

 Minimum Search - Taking P-RFO Step
 Searching for Lamda that Maximizes Along the Constraint modes Only
 Value Taken    Lamda =   0.00000010
 Searching for Lamda that Minimizes Along All other modes
 Value Taken    Lamda =  -0.00002304
 Step Taken.  Stepsize is  0.021418

                             Maximum     Tolerance    Cnvgd?
         Gradient            0.000670       0.000300      NO
         Displacement        0.012012       0.001200      NO
         Energy change     -0.000240       0.000001      NO


 New Cartesian Coordinates Obtained by Inverse Iteration

 Displacement from previous Coordinates is:  0.021736
 ----------------------------------------------------------------
             Standard Nuclear Orientation (Angstroms)
    I     Atom           X                Y                Z
 ----------------------------------------------------------------
    1      Cl      2.1536903780    -0.1957994292    -0.6909000598
    2      C      -0.7460227746     0.4900637889    -0.3355518077
    3      C       0.5816455809     0.4588370140     0.3579690037
    4      C      -1.7114774418    -0.5469090100     0.2686237063
    5      H      -0.6053556372     0.2870858190    -1.4059119430
    6      H      -1.2186803725     1.4864062129    -0.2743117193
    7      H       0.5410442114     0.5859897525     1.4516269318
    8      H       1.2889722526     1.2813738868     0.0013282896
    9      H      -1.8893969799    -0.3498605698     1.3309652531
   10      H      -2.6765038161    -0.5182244865    -0.2463731021
   11      H      -1.3023134008    -1.5573649786     0.1772284473
 ----------------------------------------------------------------
 Nuclear Repulsion Energy =   153.8240435179 hartrees
 There are       22 alpha and       20 beta electrons

                       Distance Matrix (Angstroms)
             Cl(  1)   C (  2)   C (  3)   C (  4)   H (  5)   H (  6)
   C (  2)  3.000836
   C (  3)  2.000000  1.498215
   C (  4)  3.997935  1.540274  2.505578
   H (  5)  2.890805  1.098480  2.133013  2.173275
   H (  6)  3.791602  1.104470  2.167222  2.161481  1.759277
   H (  7)  2.793250  2.204484  1.101773  2.785105  3.093397  2.624166
   H (  8)  1.846337  2.209268  1.141959  3.523743  2.560744  2.531074
   H (  9)  4.523077  2.188620  2.776106  1.095013  3.089492  2.529555
   H ( 10)  4.861310  2.179760  3.454767  1.094221  2.506533  2.478825
   H ( 11)  3.814639  2.182743  2.765328  1.093979  2.528652  3.078218
             H (  7)   H (  8)   H (  9)   H ( 10)
   H (  8)  1.773787
   H (  9)  2.607186  3.811941
   H ( 10)  3.801987  4.361755  1.770842
   H ( 11)  3.100972  3.847615  1.770266  1.774162
 
 Applying Cartesian multipole field
    Component          Value
    ---------          -----
     (2,0,0)        1.00000E-11
     (0,2,0)        2.00000E-11
     (0,0,2)       -3.00000E-10
 Nucleus-field energy     =    -0.0000000121 hartrees
 Requested basis set is 6-31G(d,p)
 There are 38 shells and 99 basis functions
 A cutoff of  1.0D-14 yielded    716 shell pairs
 There are      4934 function pairs
 Smallest overlap matrix eigenvalue = 5.65E-03
 Guess from superposition of atomic densities
 Warning:  Energy on first SCF cycle will be non-variational
 SAD guess density has 42.000000 electrons

 -----------------------------------------------------------------------
  General SCF calculation program by
  Eric Jon Sundstrom, Paul Horn, Yuezhi Mao, Dmitri Zuev, Alec White,
  David Stuck, Shaama M.S., Shane Yost, Joonho Lee, David Small,
  Daniel Levine, Susi Lehtola, Hugh Burton, Evgeny Epifanovsky
 -----------------------------------------------------------------------
 Exchange:     0.2000 Hartree-Fock + 0.0800 Slater + 0.7200 B88
 Correlation:  0.1900 VWN1RPA + 0.8100 LYP
 Using SG-1 standard quadrature grid
 using 12 threads for integral computing
 -------------------------------------------------------
 OpenMP Integral computing Module                
 Release: version 1.0, May 2013, Q-Chem Inc. Pittsburgh 
 -------------------------------------------------------
 -------------------------------------------------------
 OpenMP BLAS3 based DFT computing Module                
 Release: version 1.0, May 2013, Q-Chem Inc. Pittsburgh 
 -------------------------------------------------------
 A unrestricted SCF calculation will be
 performed using DIIS
 SCF converges when DIIS error is below 1.0e-06
 Alpha HF Exchange    Energy =  -4.56600266670355
 Beta HF Exchange     Energy =  -4.56600266670355
 DFT Correlation      Energy =  -1.90094874979229
 DFT Exchange         Energy = -35.74456638776904
 One-Electron (alpha) Energy = -547.72927703313530
 One-Electron (beta)  Energy = -547.72927703313530
 Total Coulomb        Energy = 409.36004507980721
 ---------------------------------------
  Cycle       Energy         DIIS error
 ---------------------------------------
    1    -579.0519859516      3.00e-02  
 Alpha HF Exchange    Energy =  -4.68676596690818
 Beta HF Exchange     Energy =  -4.46351744268195
 DFT Correlation      Energy =  -1.92071063924414
 DFT Exchange         Energy = -36.31718262411302
 One-Electron (alpha) Energy = -564.56939428852900
 One-Electron (beta)  Energy = -537.14979867203920
 Total Coulomb        Energy = 416.81723255808504
    2    -578.4660935696      3.94e-03  
 Alpha HF Exchange    Energy =  -4.63603377808773
 Beta HF Exchange     Energy =  -4.41760197206821
 DFT Correlation      Energy =  -1.89489453680822
 DFT Exchange         Energy = -35.90861763600328
 One-Electron (alpha) Energy = -561.29247844259896
 One-Electron (beta)  Energy = -534.50799375292308
 Total Coulomb        Energy = 410.42160167319742
    3    -578.4119749394      5.00e-03  
 Alpha HF Exchange    Energy =  -4.65994365648463
 Beta HF Exchange     Energy =  -4.43745244607903
 DFT Correlation      Energy =  -1.90663972140489
 DFT Exchange         Energy = -36.08494563487568
 One-Electron (alpha) Energy = -562.93200581447718
 One-Electron (beta)  Energy = -535.32468929020001
 Total Coulomb        Energy = 412.97175934827266
    4    -578.5498737094      6.95e-04  
 Alpha HF Exchange    Energy =  -4.66497381786601
 Beta HF Exchange     Energy =  -4.44136297369511
 DFT Correlation      Energy =  -1.90751108524177
 DFT Exchange         Energy = -36.11980093785131
 One-Electron (alpha) Energy = -563.25658970134771
 One-Electron (beta)  Energy = -535.66417665666245
 Total Coulomb        Energy = 413.67766020047782
    5    -578.5527114663      2.52e-04  
 Alpha HF Exchange    Energy =  -4.66415590093332
 Beta HF Exchange     Energy =  -4.44027559755877
 DFT Correlation      Energy =  -1.90692019370133
 DFT Exchange         Energy = -36.11082871979023
 One-Electron (alpha) Energy = -563.18873833888847
 One-Electron (beta)  Energy = -535.51879346764304
 Total Coulomb        Energy = 413.45254431691882
    6    -578.5531243957      9.74e-05  
 Alpha HF Exchange    Energy =  -4.66406482758216
 Beta HF Exchange     Energy =  -4.44049170891092
 DFT Correlation      Energy =  -1.90679329044514
 DFT Exchange         Energy = -36.11067041144487
 One-Electron (alpha) Energy = -563.18558481303933
 One-Electron (beta)  Energy = -535.51393899000482
 Total Coulomb        Energy = 413.44431212462155
    7    -578.5531884109      3.88e-05  
 Alpha HF Exchange    Energy =  -4.66424620921392
 Beta HF Exchange     Energy =  -4.44058415758349
 DFT Correlation      Energy =  -1.90678901522310
 DFT Exchange         Energy = -36.11156007538026
 One-Electron (alpha) Energy = -563.20045080551449
 One-Electron (beta)  Energy = -535.51739790640670
 Total Coulomb        Energy = 413.46378346937945
    8    -578.5532011941      1.08e-05  
 Alpha HF Exchange    Energy =  -4.66423353254531
 Beta HF Exchange     Energy =  -4.44063439222835
 DFT Correlation      Energy =  -1.90675854268325
 DFT Exchange         Energy = -36.11156681880065
 One-Electron (alpha) Energy = -563.19926684442703
 One-Electron (beta)  Energy = -535.51428595041443
 Total Coulomb        Energy = 413.45949903915562
    9    -578.5532035361      3.71e-06  
 Alpha HF Exchange    Energy =  -4.66422785897465
 Beta HF Exchange     Energy =  -4.44064215476330
 DFT Correlation      Energy =  -1.90675327808051
 DFT Exchange         Energy = -36.11155264203828
 One-Electron (alpha) Energy = -563.19893965656206
[...]
     0.158342    0.160333    0.160968    0.163100    0.221348    0.262445
     0.286128    0.321881    0.334391    0.339717    0.342447    0.342474
     0.343748    0.347180

 Minimum Search - Taking Simple RFO Step
 Searching for Lamda that Minimizes Along All modes
 Value Taken    Lamda =   0.00000000
 Step Taken.  Stepsize is  0.004383

                             Maximum     Tolerance    Cnvgd?
         Gradient           0.000085      0.000300     YES
         Displacement       0.001861      0.001200      NO
         Energy change     -0.000001      0.000001      NO


 New Cartesian Coordinates Obtained by Inverse Iteration

 Displacement from previous Coordinates is:  0.004100
 ----------------------------------------------------------------
             Standard Nuclear Orientation (Angstroms)
    I     Atom           X                Y                Z
 ----------------------------------------------------------------
    1      Cl      2.6185171586     0.1025424520     0.4092033607
    2      C      -0.8704365297     0.5367640169    -0.3684524207
    3      C       0.6741031100     0.3527800373     0.0134316967
    4      C      -1.7389194943    -0.5278112275     0.2951360186
    5      H      -0.9321456213     0.4814538013    -1.4613730218
    6      H      -1.1995696784     1.5454989997    -0.0778019941
    7      H       0.6266173614     0.2563793038     1.0954636608
    8      H       1.1357061811     1.0700355117    -0.6638650756
    9      H      -1.6974460505    -0.4528052170     1.3873607307
   10      H      -2.7854725482    -0.4093527916    -0.0073885892
   11      H      -1.4153518887    -1.5338868866     0.0129786340
 ----------------------------------------------------------------
 Nuclear Repulsion Energy =   147.9475358158 hartrees
 There are       22 alpha and       20 beta electrons

                       Distance Matrix (Angstroms)
             Cl(  1)   C (  2)   C (  3)   C (  4)   H (  5)   H (  6)
   C (  2)  3.600846
   C (  3)  2.000000  1.601652
   C (  4)  4.404272  1.525756  2.584081
   H (  5)  4.031109  1.096058  2.184409  2.180556
   H (  6)  4.110606  1.100160  2.222960  2.174534  1.765779
   H (  7)  2.112412  2.112543  1.087355  2.617488  3.002968  2.524548
   H (  8)  2.070325  2.096725  1.089157  3.425824  2.293133  2.454190
   H (  9)  4.460128  2.178548  2.856728  1.095582  3.094157  2.527410
   H ( 10)  5.444143  2.166303  3.542590  1.095822  2.518418  2.518232
   H ( 11)  4.371155  2.174860  2.815197  1.093845  2.543383  3.088271
             H (  7)   H (  8)   H (  9)   H ( 10)
   H (  8)  2.004107
   H (  9)  2.447329  3.814882
   H ( 10)  3.647169  4.242074  1.769468
   H ( 11)  2.923434  3.707617  1.771226  1.772631
 
 Applying Cartesian multipole field
    Component          Value
    ---------          -----
     (2,0,0)        1.00000E-11
     (0,2,0)        2.00000E-11
     (0,0,2)       -3.00000E-10
 Nucleus-field energy     =    -0.0000000042 hartrees
 Requested basis set is 6-31G(d,p)
 There are 38 shells and 99 basis functions
 A cutoff of  1.0D-14 yielded    706 shell pairs
 There are      4884 function pairs
 Smallest overlap matrix eigenvalue = 5.05E-03
 Guess from superposition of atomic densities
 Warning:  Energy on first SCF cycle will be non-variational
 SAD guess density has 42.000000 electrons

 -----------------------------------------------------------------------
  General SCF calculation program by
  Eric Jon Sundstrom, Paul Horn, Yuezhi Mao, Dmitri Zuev, Alec White,
  David Stuck, Shaama M.S., Shane Yost, Joonho Lee, David Small,
  Daniel Levine, Susi Lehtola, Hugh Burton, Evgeny Epifanovsky
 -----------------------------------------------------------------------
 Exchange:     0.2000 Hartree-Fock + 0.0800 Slater + 0.7200 B88
 Correlation:  0.1900 VWN1RPA + 0.8100 LYP
 Using SG-1 standard quadrature grid
 using 12 threads for integral computing
 -------------------------------------------------------
 OpenMP Integral computing Module                
 Release: version 1.0, May 2013, Q-Chem Inc. Pittsburgh 
 -------------------------------------------------------
 -------------------------------------------------------
 OpenMP BLAS3 based DFT computing Module                
 Release: version 1.0, May 2013, Q-Chem Inc. Pittsburgh 
 -------------------------------------------------------
 A unrestricted SCF calculation will be
 performed using DIIS
 SCF converges when DIIS error is below 1.0e-06
 Alpha HF Exchange    Energy =  -4.56090057767331
 Beta HF Exchange     Energy =  -4.56090057767331
 DFT Correlation      Energy =  -1.89952801451501
 DFT Exchange         Energy = -35.73502362071919
 One-Electron (alpha) Energy = -541.85412054564017
 One-Electron (beta)  Energy = -541.85412054564017
 Total Coulomb        Energy = 403.52544801698690
 ---------------------------------------
  Cycle       Energy         DIIS error
 ---------------------------------------
    1    -578.9916100533      2.94e-02  
 Alpha HF Exchange    Energy =  -4.68425766974477
 Beta HF Exchange     Energy =  -4.46332518024428
 DFT Correlation      Energy =  -1.91832334330505
 DFT Exchange         Energy = -36.30972574869794
 One-Electron (alpha) Energy = -558.30036079116041
 One-Electron (beta)  Energy = -531.73377066028320
 Total Coulomb        Energy = 410.97540370626945
    2    -578.4868238755      3.53e-03  
 Alpha HF Exchange    Energy =  -4.63558705962878
 Beta HF Exchange     Energy =  -4.42055530756178
 DFT Correlation      Energy =  -1.89382914445646
 DFT Exchange         Energy = -35.91569170490799
 One-Electron (alpha) Energy = -555.34253554194800
 One-Electron (beta)  Energy = -529.01478200152792
 Total Coulomb        Energy = 404.81364081766435
    3    -578.4618041307      4.15e-03  
 Alpha HF Exchange    Energy =  -4.65780645535220
 Beta HF Exchange     Energy =  -4.43774951144130
 DFT Correlation      Energy =  -1.90515327800947
 DFT Exchange         Energy = -36.08238219439112
 One-Electron (alpha) Energy = -556.75314804011509
 One-Electron (beta)  Energy = -529.91814906531829
 Total Coulomb        Energy = 407.25457575649710
    4    -578.5522769765      7.89e-04  
 Alpha HF Exchange    Energy =  -4.66168684661047
 Beta HF Exchange     Energy =  -4.44130687884347
 DFT Correlation      Energy =  -1.90552746603813
 DFT Exchange         Energy = -36.11011358769689
 One-Electron (alpha) Energy = -557.00758603893598
 One-Electron (beta)  Energy = -530.19681054674629
 Total Coulomb        Energy = 407.81959278358329
    5    -578.5559027697      2.27e-04  
 Alpha HF Exchange    Energy =  -4.66147906894218
 Beta HF Exchange     Energy =  -4.44073884367863
 DFT Correlation      Energy =  -1.90523501256672
 DFT Exchange         Energy = -36.10613698709867
 One-Electron (alpha) Energy = -556.98601445113570
 One-Electron (beta)  Energy = -530.10985126234539
 Total Coulomb        Energy = 407.70569342976421
    6    -578.5562263844      8.02e-05  
 Alpha HF Exchange    Energy =  -4.66122969407519
 Beta HF Exchange     Energy =  -4.44069570394021
 DFT Correlation      Energy =  -1.90508268479713
 DFT Exchange         Energy = -36.10444313696922
 One-Electron (alpha) Energy = -556.97114571885515
 One-Electron (beta)  Energy = -530.08912921747196
 Total Coulomb        Energy = 407.66792452342503
    7    -578.5562658211      2.38e-05  
 Alpha HF Exchange    Energy =  -4.66137596918453
 Beta HF Exchange     Energy =  -4.44080077375455
 DFT Correlation      Energy =  -1.90508676096704
 DFT Exchange         Energy = -36.10527686664363
 One-Electron (alpha) Energy = -556.98320355699821
 One-Electron (beta)  Energy = -530.09345423814318
 Total Coulomb        Energy = 407.68539152558424
    8    -578.5562708285      8.89e-06  
 Alpha HF Exchange    Energy =  -4.66136179680881
 Beta HF Exchange     Energy =  -4.44083133308609
 DFT Correlation      Energy =  -1.90506702341596
 DFT Exchange         Energy = -36.10524808338647
 One-Electron (alpha) Energy = -556.98219231839221
 One-Electron (beta)  Energy = -530.09164433514559
 Total Coulomb        Energy = 407.68253744578749
    9    -578.5562716328      4.21e-06  
 Alpha HF Exchange    Energy =  -4.66135577917850
 Beta HF Exchange     Energy =  -4.44083146591207
 DFT Correlation      Energy =  -1.90506209809141
 DFT Exchange         Energy = -36.10520496021572
 One-Electron (alpha) Energy = -556.98183494561749
 One-Electron (beta)  Energy = -530.09080308410626
 Total Coulomb        Energy = 407.68128475593755
   10    -578.5562717656      1.18e-06  
 Alpha HF Exchange    Energy =  -4.66135817743761
 Beta HF Exchange     Energy =  -4.44083874827367
 DFT Correlation      Energy =  -1.90506223266294
 DFT Exchange         Energy = -36.10523820211749
 One-Electron (alpha) Energy = -556.98213581935056
 One-Electron (beta)  Energy = -530.09123151465224
 Total Coulomb        Energy = 407.68205710154820
   11    -578.5562717813      3.65e-07  Convergence criterion met
 ---------------------------------------
 SCF time:   CPU 24.02s  wall 2.00s 
<S^2> =          2.003422175
 Alpha HF Exchange    Energy =  -4.66135817743761
 Beta HF Exchange     Energy =  -4.44083874827367
 DFT Correlation      Energy =  -1.90506223266294
 DFT Exchange         Energy = -36.10523820211749
 One-Electron (alpha) Energy = -556.98213581935056
 One-Electron (beta)  Energy = -530.09123151465224
 Total Coulomb        Energy = 407.68205710154820
 Nuclear repulsion Energy = 147.94753581161797
 SCF   energy in the final basis set =     -578.5562717813
 Total energy in the final basis set =     -578.5562717813
 
 --------------------------------------------------------------
 
                    Orbital Energies (a.u.)
 --------------------------------------------------------------
 
 Alpha MOs
 -- Occupied --
******* -10.230 -10.217 -10.192  -9.442  -7.211  -7.197  -7.194
 -0.842  -0.789  -0.691  -0.604  -0.506  -0.464  -0.443  -0.392
 -0.378  -0.369  -0.335  -0.293  -0.266  -0.194
 -- Virtual --
  0.061   0.116   0.128   0.140   0.158   0.173   0.189   0.214
  0.224   0.393   0.456   0.461   0.475   0.509   0.520   0.528
  0.555   0.581   0.656   0.670   0.693   0.747   0.809   0.829
  0.846   0.848   0.865   0.872   0.909   0.913   0.926   0.938
  0.959   1.004   1.147   1.278   1.301   1.338   1.515   1.560
  1.653   1.746   1.774   1.823   1.854   1.910   1.918   2.037
  2.048   2.088   2.094   2.232   2.276   2.332   2.349   2.402
  2.438   2.484   2.542   2.627   2.641   2.695   2.756   2.815
  2.862   2.897   3.172   3.246   3.292   3.363   3.429   3.462
  3.521   4.222   4.259   4.401   4.593
 
 Beta MOs
 -- Occupied --
******* -10.215 -10.213 -10.192  -9.436  -7.195  -7.191  -7.191
 -0.807  -0.772  -0.667  -0.583  -0.486  -0.452  -0.425  -0.379
 -0.363  -0.356  -0.302  -0.279
 -- Virtual --
 -0.155  -0.049   0.073   0.122   0.133   0.144   0.161   0.181
  0.198   0.228   0.237   0.410   0.474   0.480   0.488   0.520
  0.527   0.538   0.584   0.613   0.664   0.684   0.708   0.771
  0.828   0.842   0.855   0.870   0.877   0.885   0.921   0.924
  0.938   0.962   0.987   1.025   1.173   1.295   1.316   1.356
  1.527   1.569   1.657   1.768   1.810   1.848   1.872   1.924
  1.959   2.038   2.050   2.093   2.098   2.236   2.284   2.342
  2.358   2.427   2.463   2.499   2.560   2.647   2.652   2.702
  2.764   2.821   2.865   2.902   3.174   3.260   3.306   3.373
  3.438   3.472   3.531   4.246   4.275   4.417   4.602
 --------------------------------------------------------------
 
          Ground-State Mulliken Net Atomic Charges

     Atom                 Charge (a.u.)    Spin (a.u.)
  --------------------------------------------------------
      1 Cl                   -0.126809       0.703738
      2 C                    -0.212820       0.167126
      3 C                    -0.320677       0.962284
      4 C                    -0.318144       0.010238
      5 H                     0.123506       0.009401
      6 H                     0.119243       0.032916
      7 H                     0.188836       0.043943
      8 H                     0.194258       0.056823
      9 H                     0.111432       0.000255
     10 H                     0.115829       0.010333
     11 H                     0.125346       0.002943
  --------------------------------------------------------
  Sum of atomic charges =    -0.000000
  Sum of spin   charges =     2.000000

 -----------------------------------------------------------------
                    Cartesian Multipole Moments
 -----------------------------------------------------------------
    Charge (ESU x 10^10)
                 0.0000
    Dipole Moment (Debye)
         X      -2.8855      Y       0.7526      Z      -0.3453
       Tot       3.0020
    Quadrupole Moments (Debye-Ang)
        XX     -39.7666     XY       0.1497     YY     -32.8329
        XZ      -1.2166     YZ      -0.6305     ZZ     -32.4438
    Octopole Moments (Debye-Ang^2)
       XXX     -77.4398    XXY      -5.6076    XYY     -19.4139
       YYY     -10.8160    XXZ      -8.7614    XYZ      -1.1514
       YYZ      -6.1731    XZZ     -20.2642    YZZ      -3.0999
       ZZZ     -15.5314
    Hexadecapole Moments (Debye-Ang^3)
      XXXX    -801.8447   XXXY     -38.1690   XXYY    -144.6666
      XYYY     -28.2622   YYYY     -83.8926   XXXZ     -40.8979
      XXYZ       0.7181   XYYZ     -13.4336   YYYZ       7.7759
      XXZZ    -145.8017   XYZZ      -8.9827   YYZZ     -28.1656
      XZZZ     -38.0846   YZZZ       7.2307   ZZZZ     -76.3328
 -----------------------------------------------------------------
 Calculating analytic gradient of the SCF energy
 Gradient of SCF Energy
            1           2           3           4           5           6
    1  -0.0817313   0.0000900   0.0817054  -0.0000165  -0.0000201  -0.0000024
    2   0.0106711   0.0002049  -0.0109203  -0.0000095   0.0000049   0.0000005
    3  -0.0166525  -0.0000418   0.0166696   0.0000166  -0.0000037  -0.0000190
            7           8           9          10          11
    1  -0.0000090   0.0000091  -0.0000250   0.0000000  -0.0000004
    2   0.0000218  -0.0000201   0.0000326   0.0000076   0.0000066
    3   0.0000107   0.0000319  -0.0000049  -0.0000243   0.0000173
 Max gradient component =       8.173E-02
 RMS gradient           =       2.070E-02
 Gradient time:  CPU 8.06 s  wall 0.81 s
 Geometry Optimization Parameters
   NAtoms,    NIC,     NZ,  NCons,   NDum,   NFix, NCnnct, MaxDiis
       11      68       0       1       0       0       0       0

 Cartesian Hessian Update
 Hessian Updated using BFGS Update


** CONSTRAINED OPTIMIZATION IN DELOCALIZED INTERNAL COORDINATES **
   Searching for a Minimum

   Optimization Cycle:  33

                       Coordinates (Angstroms)
     ATOM                X               Y               Z
      1  Cl        2.6185171586    0.1025424520    0.4092033607
      2  C        -0.8704365297    0.5367640169   -0.3684524207
      3  C         0.6741031100    0.3527800373    0.0134316967
      4  C        -1.7389194943   -0.5278112275    0.2951360186
      5  H        -0.9321456213    0.4814538013   -1.4613730218
      6  H        -1.1995696784    1.5454989997   -0.0778019941
      7  H         0.6266173614    0.2563793038    1.0954636608
      8  H         1.1357061811    1.0700355117   -0.6638650756
      9  H        -1.6974460505   -0.4528052170    1.3873607307
     10  H        -2.7854725482   -0.4093527916   -0.0073885892
     11  H        -1.4153518887   -1.5338868866    0.0129786340
   Point Group: c1    Number of degrees of freedom:    27


   Energy is   -578.556271781

              Constraints and their Current Values
                                        Value     Constraint
   Distance(Angs):        1   3             2.000000     2.000000
 Hessian Updated using BFGS Update

 26 Hessian modes will be used to form the next step
  Hessian Eigenvalues:
     0.002223    0.012118    0.020361    0.036764    0.048982    0.062594
     0.075341    0.082678    0.083390    0.086493    0.106691    0.128514
     0.157598    0.159740    0.160355    0.162978    0.221028    0.267806
     0.284468    0.321633    0.334331    0.339675    0.342433    0.342503
     0.343741    0.346999

 Minimum Search - Taking Simple RFO Step
 Searching for Lamda that Minimizes Along All modes
 Value Taken    Lamda =   0.00000000
 Step Taken.  Stepsize is  0.002981

                             Maximum     Tolerance    Cnvgd?
         Gradient           0.000029      0.000300     YES
         Displacement       0.002147      0.001200      NO
         Energy change     -0.000000      0.000001     YES


                       Distance Matrix (Angstroms)
             Cl(  1)   C (  2)   C (  3)   C (  4)   H (  5)   H (  6)
   C (  2)  3.600846
   C (  3)  2.000000  1.601652
   C (  4)  4.404272  1.525756  2.584081
   H (  5)  4.031109  1.096058  2.184409  2.180556
   H (  6)  4.110606  1.100160  2.222960  2.174534  1.765779
   H (  7)  2.112412  2.112543  1.087355  2.617488  3.002968  2.524548
   H (  8)  2.070325  2.096725  1.089157  3.425824  2.293133  2.454190
   H (  9)  4.460128  2.178548  2.856728  1.095582  3.094157  2.527410
   H ( 10)  5.444143  2.166303  3.542590  1.095822  2.518418  2.518232
   H ( 11)  4.371155  2.174860  2.815197  1.093845  2.543383  3.088271
             H (  7)   H (  8)   H (  9)   H ( 10)
   H (  8)  2.004107
   H (  9)  2.447329  3.814882
   H ( 10)  3.647169  4.242074  1.769468
   H ( 11)  2.923434  3.707617  1.771226  1.772631
 
 Final energy is   -578.556271781328     


 ******************************
 **  OPTIMIZATION CONVERGED  **
 ******************************

                       Coordinates (Angstroms)
     ATOM                X               Y               Z
      1  Cl        2.6185171586    0.1025424520    0.4092033607
      2  C        -0.8704365297    0.5367640169   -0.3684524207
      3  C         0.6741031100    0.3527800373    0.0134316967
      4  C        -1.7389194943   -0.5278112275    0.2951360186
      5  H        -0.9321456213    0.4814538013   -1.4613730218
      6  H        -1.1995696784    1.5454989997   -0.0778019941
      7  H         0.6266173614    0.2563793038    1.0954636608
      8  H         1.1357061811    1.0700355117   -0.6638650756
      9  H        -1.6974460505   -0.4528052170    1.3873607307
     10  H        -2.7854725482   -0.4093527916   -0.0073885892
     11  H        -1.4153518887   -1.5338868866    0.0129786340

Z-matrix Print:
$molecule
0 3
Cl
C  1 2.000000
H  2 1.087355 1 80.470668
H  2 1.089157 1 78.077668 3 139.150726 0
C  2 1.601652 1 177.561669 3 -162.126439 0
H  5 1.096058 2 106.633318 1 -9.154314 0
H  5 1.100160 2 109.319460 1 -124.534340 0
C  5 1.525756 2 111.411765 1 112.710972 0
H  8 1.093845 5 111.172893 2 -57.904577 0
H  8 1.095582 5 111.362973 2 62.575664 0
H  8 1.095822 5 110.372796 2 -177.857413 0
$end

PES scan, value:    2.0000 energy: -578.5562717813
------- Summary of potential scan: ------ 
    2.0000      -578.5562717813
----------------------------------------- 
Archival summary:
1\1\hpc0332\JobtypUnspecified\ProcedureUnspecified\6-31G**\l137(3)\knomura\MonMar1120:57:212019MonMar1120:57:212019\0\\#,JobtypUnspecified,ProcedureUnspecified,6-31G**,\\0,3\Cl\C,1,2\H,2,1.08736,1,80.4707\H,2,1.08916,1,78.0777,3,139.151,0\C,2,1.60165,1,177.562,3,-162.126,0\H,5,1.09606,2,106.633,1,-9.15431,0\H,5,1.10016,2,109.319,1,-124.534,0\C,5,1.52576,2,111.412,1,112.711,0\H,8,1.09385,5,111.173,2,-57.9046,0\H,8,1.09558,5,111.363,2,62.5757,0\H,8,1.09582,5,110.373,2,-177.857,0\\\@

 Total job time:  117.50s(wall), 1253.83s(cpu) 
 Mon Mar 11 20:57:21 2019

        *************************************************************
        *                                                           *
        *  Thank you very much for using Q-Chem.  Have a nice day.  *
        *                                                           *
        *************************************************************


