
Running Job 1 of 1 ruruma/CH3CH2CH2Cl_afterGeo_singlet.xyz.data/inputs/bond_triplet_4.4.in
qchem ruruma/CH3CH2CH2Cl_afterGeo_singlet.xyz.data/inputs/bond_triplet_4.4.in_14324.0 /staging/scratch/2858534/qchem14324/ 1
/usr/usc/qchem/5.1.1/exe/qcprog.exe_s ruruma/CH3CH2CH2Cl_afterGeo_singlet.xyz.data/inputs/bond_triplet_4.4.in_14324.0 /staging/scratch/2858534/qchem14324/
Check license passed

                  Welcome to Q-Chem
     A Quantum Leap Into The Future Of Chemistry


 Q-Chem 5.1, Q-Chem, Inc., Pleasanton, CA (2018)

 Yihan Shao,  Zhengting Gan,  E. Epifanovsky,  A. T. B. Gilbert,  M. Wormit,  
 J. Kussmann,  A. W. Lange,  A. Behn,  Jia Deng,  Xintian Feng,  D. Ghosh,  
 M. Goldey,  P. R. Horn,  L. D. Jacobson,  I. Kaliman,  T. Kus,  A. Landau,  
 Jie Liu,  E. I. Proynov,  R. M. Richard,  R. P. Steele,  E. J. Sundstrom,  
 H. L. Woodcock III,  P. M. Zimmerman,  D. Zuev,  B. Albrecht,  E. Alguire,  
 S. A. Baeppler,  D. Barton,  Z. Benda,  Y. A. Bernard,  E. J. Berquist,  
 K. B. Bravaya,  H. Burton,  D. Casanova,  Chun-Min Chang,  Yunqing Chen,  
 A. Chien,  K. D. Closser,  M. P. Coons,  S. Coriani,  S. Dasgupta,  
 A. L. Dempwolff,  M. Diedenhofen,  Hainam Do,  R. G. Edgar,  Po-Tung Fang,  
 S. Faraji,  S. Fatehi,  Qingguo Feng,  K. D. Fenk,  J. Fosso-Tande,  
 Qinghui Ge,  A. Ghysels,  G. Gidofalvi,  J. Gomes,  J. Gonthier,  A. Gunina,  
 D. Hait,  M. W. D. Hanson-Heine,  P. H. P. Harbach,  A. W. Hauser,  
 J. E. Herr,  E. G. Hohenstein,  Z. C. Holden,  Kerwin Hui,  B. C. Huynh,  
 T.-C. Jagau,  Hyunjun Ji,  B. Kaduk,  K. Khistyaev,  Jaehoon Kim,  
 P. Klunzinger,  K. Koh,  D. Kosenkov,  L. Koulias,  T. Kowalczyk,  
 C. M. Krauter,  A. Kunitsa,  Ka Un Lao,  A. Laurent,  K. V. Lawler,  
 Joonho Lee,  D. Lefrancois,  S. Lehtola,  D. S. Levine,  Yi-Pei Li,  
 You-Sheng Lin,  Fenglai Liu,  E. Livshits,  A. Luenser,  P. Manohar,  
 E. Mansoor,  S. F. Manzer,  Shan-Ping Mao,  Yuezhi Mao,  N. Mardirossian,  
 A. V. Marenich,  T. Markovich,  L. A. Martinez-Martinez,  S. A. Maurer,  
 N. J. Mayhall,  S. C. McKenzie,  J.-M. Mewes,  A. F. Morrison,  
 J. W. Mullinax,  K. Nanda,  T. S. Nguyen-Beck,  R. Olivares-Amaya,  
 J. A. Parkhill,  T. M. Perrine,  F. Plasser,  P. Pokhilko,  S. Prager,  
 A. Prociuk,  E. Ramos,  D. R. Rehn,  F. Rob,  M. Schneider,  N. Sergueev,  
 S. M. Sharada,  S. Sharma,  D. W. Small,  T. Stauch,  T. Stein,  
 Yu-Chuan Su,  A. J. W. Thom,  A. Tkatchenko,  T. Tsuchimochi,  N. M. Tubman,  
 L. Vogt,  M. L. Vidal,  O. Vydrov,  M. A. Watson,  J. Wenzel,  
 M. de Wergifosse,  T. A. Wesolowski,  A. White,  J. Witte,  A. Yamada,  
 Jun Yang,  K. Yao,  S. Yeganeh,  S. R. Yost,  Zhi-Qiang You,  A. Zech,  
 Igor Ying Zhang,  Xing Zhang,  Yan Zhao,  Ying Zhu,  B. R. Brooks,  
 G. K. L. Chan,  C. J. Cramer,  M. S. Gordon,  W. J. Hehre,  A. Klamt,  
 M. W. Schmidt,  C. D. Sherrill,  D. G. Truhlar,  A. Aspuru-Guzik,  R. Baer,  
 A. T. Bell,  N. A. Besley,  Jeng-Da Chai,  A. E. DePrince, III,  
 R. A. DiStasio Jr.,  A. Dreuw,  B. D. Dunietz,  T. R. Furlani,  
 Chao-Ping Hsu,  Yousung Jung,  Jing Kong,  D. S. Lambrecht,  WanZhen Liang,  
 C. Ochsenfeld,  V. A. Rassolov,  L. V. Slipchenko,  J. E. Subotnik,  
 T. Van Voorhis,  J. M. Herbert,  A. I. Krylov,  P. M. W. Gill,  M. Head-Gordon

 Contributors to earlier versions of Q-Chem not listed above: 
 R. D. Adamson,  B. Austin,  J. Baker,  G. J. O. Beran,  K. Brandhorst,  
 S. T. Brown,  E. F. C. Byrd,  A. K. Chakraborty,  C.-L. Cheng,  
 Siu Hung Chien,  D. M. Chipman,  D. L. Crittenden,  H. Dachsel,  
 R. J. Doerksen,  A. D. Dutoi,  L. Fusti-Molnar,  W. A. Goddard III,  
 A. Golubeva-Zadorozhnaya,  S. R. Gwaltney,  G. Hawkins,  A. Heyden,  
 S. Hirata,  G. Kedziora,  F. J. Keil,  C. Kelley,  Jihan Kim,  R. A. King,  
 R. Z. Khaliullin,  P. P. Korambath,  W. Kurlancheek,  A. M. Lee,  M. S. Lee,  
 S. V. Levchenko,  Ching Yeh Lin,  D. Liotard,  R. C. Lochan,  I. Lotan,  
 P. E. Maslen,  N. Nair,  D. P. O'Neill,  D. Neuhauser,  E. Neuscamman,  
 C. M. Oana,  R. Olson,  B. Peters,  R. Peverati,  P. A. Pieniazek,  
 Y. M. Rhee,  J. Ritchie,  M. A. Rohrdanz,  E. Rosta,  N. J. Russ,  
 H. F. Schaefer III,  N. E. Schultz,  N. Shenvi,  A. C. Simmonett,  A. Sodt,  
 D. Stuck,  K. S. Thanthiriwatte,  V. Vanovschi,  Tao Wang,  A. Warshel,  
 C. F. Williams,  Q. Wu,  X. Xu,  W. Zhang

 Please cite Q-Chem as follows:
 Y. Shao et al., Mol. Phys. 113, 184-215 (2015)
 DOI: 10.1080/00268976.2014.952696

 Q-Chem 5.1.1 for Intel X86 EM64T Linux

 Parts of Q-Chem use Armadillo 8.300.2 (Tropical Shenanigans).
 http://arma.sourceforge.net/

 Q-Chem begins on Mon Mar 11 20:30:11 2019  

Host: 
0

     Scratch files written to /staging/scratch/2858534/qchem14324//
 Aug318 |scratch|qcdevops|jenkins|workspace|build_RNUM 6013   
Processing $rem in /usr/usc/qchem/5.1.1/config/preferences.
 MEM_TOTAL  2000 
Input Ideriv = 2
Curr. Ideriv = -1
Max.  Ideriv = 2

Checking the input file for inconsistencies... 	...done.

--------------------------------------------------------------
User input:
--------------------------------------------------------------

$comment
potential surface scanner
$end

$rem
JOBTYPE  PES_SCAN
UNRESTRICTED TRUE
SYM_IGNORE  TRUE
GEOM_OPT_MAX_CYCLES 400
SCF_MAX_CYCLES 400
METHOD   B3LYP
BASIS   6-31G**
PDB_PRINT 2
SCF_CONVERGENCE 6
THRESH 14
SCF_PRINT 1
$end
$molecule
0 3
Cl 2.349607 -2.596196 -0.514114
C -0.982776 0.812766 -0.256785
C 0.267454 1.285898 0.404571
C -1.400838 -0.601758 0.166429
H -0.865904 0.856096 -1.348621
H -1.814277 1.507216 -0.033285
H 0.513580 0.965306 1.412698
H 0.863325 2.082312 -0.028949
H -1.552942 -0.656387 1.250298
H -2.334086 -0.903751 -0.319218
H -0.627542 -1.329900 -0.098325
$end
$scan
stre 1 3 4.400000 4.401000 0.100000
$end
--------------------------------------------------------------
 ----------------------------------------------------------------
             Standard Nuclear Orientation (Angstroms)
    I     Atom           X                Y                Z
 ----------------------------------------------------------------
    1      Cl      2.3496070000    -2.5961960000    -0.5141140000
    2      C      -0.9827760000     0.8127660000    -0.2567850000
    3      C       0.2674540000     1.2858980000     0.4045710000
    4      C      -1.4008380000    -0.6017580000     0.1664290000
    5      H      -0.8659040000     0.8560960000    -1.3486210000
    6      H      -1.8142770000     1.5072160000    -0.0332850000
    7      H       0.5135800000     0.9653060000     1.4126980000
    8      H       0.8633250000     2.0823120000    -0.0289490000
    9      H      -1.5529420000    -0.6563870000     1.2502980000
   10      H      -2.3340860000    -0.9037510000    -0.3192180000
   11      H      -0.6275420000    -1.3299000000    -0.0983250000
 ----------------------------------------------------------------
 Nuclear Repulsion Energy =   125.2866082127 hartrees
 There are       22 alpha and       20 beta electrons
 Requested basis set is 6-31G(d,p)
 There are 38 shells and 99 basis functions

 Total QAlloc Memory Limit   2000 MB
 Mega-Array Size       188 MB
 MEM_STATIC part       192 MB
A total of 1 constraints
  
            1
    1   1.0100000
    2   1.0100000
    3   3.0100000
    4   4.4000000
    5   4.4010000
    6   0.1000000
    7   0.0000000
    8   0.0000000
    9   0.0000000
   10   0.0000000

                       Distance Matrix (Angstroms)
             Cl(  1)   C (  2)   C (  3)   C (  4)   H (  5)   H (  6)
   C (  2)  4.774099
   C (  3)  4.500000  1.491416
   C (  4)  4.301948  1.534524  2.530446
   H (  5)  4.791058  1.098928  2.131411  2.169532
   H (  6)  5.865758  1.106168  2.138762  2.158376  1.747420
   H (  7)  4.446110  2.247114  1.086129  2.770175  3.088654  2.793466
   H (  8)  4.932835  2.252054  1.085024  3.516936  2.497073  2.738669
   H (  9)  4.701691  2.180550  2.793128  1.095852  3.084478  2.529241
   H ( 10)  4.983908  2.185490  3.476556  1.094534  2.512427  2.482886
   H ( 11)  3.261871  2.177686  2.810039  1.094656  2.529552  3.076003
             H (  7)   H (  8)   H (  9)   H ( 10)
   H (  8)  1.856979
   H (  9)  2.631877  3.869792
   H ( 10)  3.821271  4.384548  1.770524
   H ( 11)  2.975453  3.724337  1.768833  1.772763
 
 A cutoff of  1.0D-14 yielded    684 shell pairs
 There are      4667 function pairs
 
 -------------------------------------------------------
 OpenMP Integral Computing Module                       
 Release: version 1.0, May 2013, Q-Chem Inc. Pittsburgh 
 -------------------------------------------------------
 Integral Job Info:
 Integral job number is                      11
 Integral operator is                         1
 short-range coefficients                     0
 long-range coefficients              100000000
 Omega coefficients                           0
 if combine SR and LR in K                    0
 Integral screening is                        0
 Integral computing path is                   2
 max size of driver memory is            800000
 size of driver memory is                593474
 size of scratch memory is             15267112
 max col of scratch BK array               1296
 max len of scratch array in speh3          155
 max len of scratch index in speh4           18
 max int batch size is                      520
 min int batch size is                       52
 fixed nKL is                                52
 max L of basis functions is                  2
 order of int derivative is                   0
 number of shells is                         38
 number of basis is                          99
 number of cartesian basis is                99
 number of contracted shell pairs           684
 number of primitive shell pairs           2436
 maxK2 (contraction) of shell pair           36
 max number of K2 of shell pair               1
 max number of CS2 of shell pair             57
 max number of PS2 of shell pair            210
 mem total for path MDJ                  512642
 -------------------------------------------------------
 Smallest overlap matrix eigenvalue = 6.22E-03

 Scale SEOQF with 1.000000e-01/1.000000e-01/1.000000e+00

 Standard Electronic Orientation quadrupole field applied
 Nucleus-field energy     =     0.0000000023 hartrees
 Guess from superposition of atomic densities
 Warning:  Energy on first SCF cycle will be non-variational
 SAD guess density has 42.000000 electrons

 -----------------------------------------------------------------------
  General SCF calculation program by
  Eric Jon Sundstrom, Paul Horn, Yuezhi Mao, Dmitri Zuev, Alec White,
  David Stuck, Shaama M.S., Shane Yost, Joonho Lee, David Small,
  Daniel Levine, Susi Lehtola, Hugh Burton, Evgeny Epifanovsky
 -----------------------------------------------------------------------
 Exchange:     0.2000 Hartree-Fock + 0.0800 Slater + 0.7200 B88
 Correlation:  0.1900 VWN1RPA + 0.8100 LYP
 Using SG-1 standard quadrature grid
 using 12 threads for integral computing
 -------------------------------------------------------
 OpenMP Integral computing Module                
 Release: version 1.0, May 2013, Q-Chem Inc. Pittsburgh 
 -------------------------------------------------------
 -------------------------------------------------------
 OpenMP BLAS3 based DFT computing Module                
 Release: version 1.0, May 2013, Q-Chem Inc. Pittsburgh 
 -------------------------------------------------------
 A unrestricted SCF calculation will be
 performed using DIIS
 SCF converges when DIIS error is below 1.0e-06
 Alpha HF Exchange    Energy =  -4.53879100939418
 Beta HF Exchange     Energy =  -4.53879100939418
 DFT Correlation      Energy =  -1.88403772874687
 DFT Exchange         Energy = -35.69563989827410
 One-Electron (alpha) Energy = -519.18777062624497
 One-Electron (beta)  Energy = -519.18777062624497
 Total Coulomb        Energy = 380.92929835214176
 ---------------------------------------
  Cycle       Energy         DIIS error
 ---------------------------------------
    1    -578.8168943312      2.82e-02  
 Alpha HF Exchange    Energy =  -4.67570638996139
 Beta HF Exchange     Energy =  -4.47921832035531
 DFT Correlation      Energy =  -1.90189925430845
 DFT Exchange         Energy = -36.29430746727472
 One-Electron (alpha) Energy = -533.93514634099688
 One-Electron (beta)  Energy = -510.50662099948312
 Total Coulomb        Energy = 387.97205495869395
    2    -578.5342355988      3.85e-03  
 Alpha HF Exchange    Energy =  -4.62395926882709
 Beta HF Exchange     Energy =  -4.43139642901622
 DFT Correlation      Energy =  -1.87461608609770
 DFT Exchange         Energy = -35.88817335653916
 One-Electron (alpha) Energy = -530.95306951721238
 One-Electron (beta)  Energy = -509.23291730435625
 Total Coulomb        Energy = 383.62404707759794
    3    -578.0934766695      7.31e-03  
 Alpha HF Exchange    Energy =  -4.64031370719116
 Beta HF Exchange     Energy =  -4.44808224273182
 DFT Correlation      Energy =  -1.88626865900327
 DFT Exchange         Energy = -36.01517802069425
 One-Electron (alpha) Energy = -531.93610032766776
 One-Electron (beta)  Energy = -508.51468090570842
 Total Coulomb        Energy = 383.55814725708069
    4    -578.5958683910      1.88e-03  
 Alpha HF Exchange    Energy =  -4.65134125714279
 Beta HF Exchange     Energy =  -4.45515464915221
 DFT Correlation      Energy =  -1.88898070411950
 DFT Exchange         Energy = -36.08672827375408
 One-Electron (alpha) Energy = -532.59761685028286
 One-Electron (beta)  Energy = -508.97969010962669
 Total Coulomb        Energy = 384.75991918677920
    5    -578.6129844424      8.50e-04  
 Alpha HF Exchange    Energy =  -4.65162949674716
 Beta HF Exchange     Energy =  -4.45479144202186
 DFT Correlation      Energy =  -1.88823544212362
 DFT Exchange         Energy = -36.08513397028533
 One-Electron (alpha) Energy = -532.65285127549225
 One-Electron (beta)  Energy = -508.95480468247473
 Total Coulomb        Energy = 384.78385731478113
    6    -578.6169807794      3.55e-04  
 Alpha HF Exchange    Energy =  -4.65153031397143
 Beta HF Exchange     Energy =  -4.45412042028087
 DFT Correlation      Energy =  -1.88788614342580
 DFT Exchange         Energy = -36.08165483125916
 One-Electron (alpha) Energy = -532.64385528073365
 One-Electron (beta)  Energy = -508.91766541964040
 Total Coulomb        Energy = 384.73244000242846
    7    -578.6176641920      1.07e-04  
 Alpha HF Exchange    Energy =  -4.65183570034261
 Beta HF Exchange     Energy =  -4.45433510304192
 DFT Correlation      Energy =  -1.88787724931614
 DFT Exchange         Energy = -36.08358446566149
 One-Electron (alpha) Energy = -532.67188924281038
 One-Electron (beta)  Energy = -508.93341165928166
 Total Coulomb        Energy = 384.77858589644705
    8    -578.6177393091      1.80e-05  
 Alpha HF Exchange    Energy =  -4.65179878950472
 Beta HF Exchange     Energy =  -4.45431767440384
 DFT Correlation      Energy =  -1.88785320310264
 DFT Exchange         Energy = -36.08335093639144
 One-Electron (alpha) Energy = -532.66921133501125
 One-Electron (beta)  Energy = -508.93114436220935
 Total Coulomb        Energy = 384.77332627699855
    9    -578.6177418087      5.60e-06  
 Alpha HF Exchange    Energy =  -4.65180418844844
 Beta HF Exchange     Energy =  -4.45431941484753
 DFT Correlation      Energy =  -1.88785391412134
 DFT Exchange         Energy = -36.08337978067861
 One-Electron (alpha) Energy = -532.66958059178990
 One-Electron (beta)  Energy = -508.93152891196797
 Total Coulomb        Energy = 384.77411609644582
   10    -578.6177424905      3.14e-06  
 Alpha HF Exchange    Energy =  -4.65180309281002
 Beta HF Exchange     Energy =  -4.45432366313902
 DFT Correlation      Energy =  -1.88785393681051
 DFT Exchange         Energy = -36.08339184843648
 One-Electron (alpha) Energy = -532.66963164048559
 One-Electron (beta)  Energy = -508.93179283517213
 Total Coulomb        Energy = 384.77444561595246
   11    -578.6177431860      2.66e-06  
 Alpha HF Exchange    Energy =  -4.65180189055042
 Beta HF Exchange     Energy =  -4.45432447539936
 DFT Correlation      Energy =  -1.88785383480703
 DFT Exchange         Energy = -36.08339030940633
 One-Electron (alpha) Energy = -532.66953176316031
 One-Electron (beta)  Energy = -508.93178088666593
 Total Coulomb        Energy = 384.77433094972429
   12    -578.6177439953      2.66e-06  
 Alpha HF Exchange    Energy =  -4.65180170998517
 Beta HF Exchange     Energy =  -4.45432471859239
 DFT Correlation      Energy =  -1.88785382845375
 DFT Exchange         Energy = -36.08339053138599
 One-Electron (alpha) Energy = -532.66951850347073
 One-Electron (beta)  Energy = -508.93176138052149
 Total Coulomb        Energy = 384.77429807525021
   13    -578.6177443822      2.66e-06  
 Alpha HF Exchange    Energy =  -4.65180235008058
 Beta HF Exchange     Energy =  -4.45432328367922
 DFT Correlation      Energy =  -1.88785392188599
 DFT Exchange         Energy = -36.08338829872287
 One-Electron (alpha) Energy = -532.66953041504769
 One-Electron (beta)  Energy = -508.93226001849217
 Total Coulomb        Energy = 384.77481174671556
   14    -578.6177383263      2.63e-06  
 Alpha HF Exchange    Energy =  -4.65180142533018
 Beta HF Exchange     Energy =  -4.45432886123698
 DFT Correlation      Energy =  -1.88785325639714
 DFT Exchange         Energy = -36.08341087618893
 One-Electron (alpha) Energy = -532.66926242173292
 One-Electron (beta)  Energy = -508.93443642305408
 Total Coulomb        Energy = 384.77676641684451
   15    -578.6177186322      4.47e-06  
 Alpha HF Exchange    Energy =  -4.65180168667514
 Beta HF Exchange     Energy =  -4.45437547715528
 DFT Correlation      Energy =  -1.88784773684424
 DFT Exchange         Energy = -36.08360011566334
 One-Electron (alpha) Energy = -532.66887626492041
 One-Electron (beta)  Energy = -508.93915700135477
 Total Coulomb        Energy = 384.78135917303155
   16    -578.6176908947      2.01e-05  
 Alpha HF Exchange    Energy =  -4.65180123103335
 Beta HF Exchange     Energy =  -4.45436488227833
 DFT Correlation      Energy =  -1.88784888176097
 DFT Exchange         Energy = -36.08355851049011
 One-Electron (alpha) Energy = -532.66884080429543
 One-Electron (beta)  Energy = -508.93855626131739
 Total Coulomb        Energy = 384.78066963236478
   17    -578.6176927239      1.68e-05  
 Alpha HF Exchange    Energy =  -4.65180133174285
 Beta HF Exchange     Energy =  -4.45435640121589
 DFT Correlation      Energy =  -1.88784951962526
 DFT Exchange         Energy = -36.08352758064709
 One-Electron (alpha) Energy = -532.66887435225919
 One-Electron (beta)  Energy = -508.93814684120338
 Total Coulomb        Energy = 384.78025483891651
   18    -578.6176929729      1.47e-05  
 Alpha HF Exchange    Energy =  -4.65179746108383
 Beta HF Exchange     Energy =  -4.45450185542210
 DFT Correlation      Energy =  -1.88782764251044
 DFT Exchange         Energy = -36.08410949353551
 One-Electron (alpha) Energy = -532.66754775602942
 One-Electron (beta)  Energy = -508.94856604912388
 Total Coulomb        Energy = 384.79011631015248
   19    -578.6176257326      6.40e-05  
 Alpha HF Exchange    Energy =  -4.65179365077171
 Beta HF Exchange     Energy =  -4.45461717937559
 DFT Correlation      Energy =  -1.88781336500181
 DFT Exchange         Energy = -36.08454152248162
 One-Electron (alpha) Energy = -532.66673673215462
 One-Electron (beta)  Energy = -508.95470972044387
 Total Coulomb        Energy = 384.79602389371189
   20    -578.6175800616      9.73e-05  
 Alpha HF Exchange    Energy =  -4.65180023896925
 Beta HF Exchange     Energy =  -4.45459076079854
 DFT Correlation      Energy =  -1.88781293254579
 DFT Exchange         Energy = -36.08449277999708
 One-Electron (alpha) Energy = -532.66719495574887
 One-Electron (beta)  Energy = -508.95336011478042
 Total Coulomb        Energy = 384.79506347205387
   21    -578.6175800959      9.42e-05  
 Alpha HF Exchange    Energy =  -4.65179957529689
 Beta HF Exchange     Energy =  -4.45452053757479
 DFT Correlation      Energy =  -1.88781347842831
 DFT Exchange         Energy = -36.08425144783788
 One-Electron (alpha) Energy = -532.66743771800145
 One-Electron (beta)  Energy = -508.94950635161979
 Total Coulomb        Energy = 384.79112612471863
   22    -578.6175947691      8.13e-05  
 Alpha HF Exchange    Energy =  -4.65180175479438
 Beta HF Exchange     Energy =  -4.45447530985421
 DFT Correlation      Energy =  -1.88781853949202
 DFT Exchange         Energy = -36.08409175882719
 One-Electron (alpha) Energy = -532.66775300963525
 One-Electron (beta)  Energy = -508.94724285631429
 Total Coulomb        Energy = 384.78896670741608
   23    -578.6176083066      6.92e-05  
 Alpha HF Exchange    Energy =  -4.65180418849332
 Beta HF Exchange     Energy =  -4.45441215976883
 DFT Correlation      Energy =  -1.88782369254761
 DFT Exchange         Energy = -36.08387296302251
 One-Electron (alpha) Energy = -532.66818014458738
 One-Electron (beta)  Energy = -508.94396337972734
 Total Coulomb        Energy = 384.78582612718196
   24    -578.6176221860      5.38e-05  
 Alpha HF Exchange    Energy =  -4.65181348120480
 Beta HF Exchange     Energy =  -4.45416450393460
 DFT Correlation      Energy =  -1.88784488061647
 DFT Exchange         Energy = -36.08300593354210
 One-Electron (alpha) Energy = -532.66971295202495
 One-Electron (beta)  Energy = -508.93130331662343
 Total Coulomb        Energy = 384.77359377882379
   25    -578.6176430742      7.69e-06  
 Alpha HF Exchange    Energy =  -4.65181242565074
 Beta HF Exchange     Energy =  -4.45421375343568
 DFT Correlation      Energy =  -1.88783957749048
 DFT Exchange         Energy = -36.08318943931683
 One-Electron (alpha) Energy = -532.66946262424131
 One-Electron (beta)  Energy = -508.93370695310546
 Total Coulomb        Energy = 384.77597337030198
   26    -578.6176431880      5.84e-06  
 Alpha HF Exchange    Energy =  -4.65181316369259
 Beta HF Exchange     Energy =  -4.45419132702344
 DFT Correlation      Energy =  -1.88784150173738
 DFT Exchange         Energy = -36.08311039950124
 One-Electron (alpha) Energy = -532.66959082847802
 One-Electron (beta)  Energy = -508.93257122007316
 Total Coulomb        Energy = 384.77486678464174
   27    -578.6176434409      2.55e-07  Convergence criterion met
 ---------------------------------------
 SCF time:   CPU 56.11s  wall 5.00s 
<S^2> =          2.005530553
 Alpha HF Exchange    Energy =  -4.65181316369259
 Beta HF Exchange     Energy =  -4.45419132702344
 DFT Correlation      Energy =  -1.88784150173738
 DFT Exchange         Energy = -36.08311039950124
 One-Electron (alpha) Energy = -532.66959082847802
 One-Electron (beta)  Energy = -508.93257122007316
 Total Coulomb        Energy = 384.77486678464174
 Nuclear repulsion Energy = 125.28660821492289
 SCF   energy in the final basis set =     -578.6176434409
 Total energy in the final basis set =     -578.6176434409
 
 --------------------------------------------------------------
 
                    Orbital Energies (a.u.)
 --------------------------------------------------------------
 
 Alpha MOs
 -- Occupied --
******* -10.185 -10.183 -10.173  -9.510  -7.284  -7.261  -7.261
 -0.844  -0.778  -0.670  -0.578  -0.450  -0.436  -0.406  -0.402
 -0.357  -0.351  -0.351  -0.346  -0.338  -0.195
 -- Virtual --
  0.105   0.140   0.148   0.152   0.174   0.186   0.201   0.244
  0.280   0.338   0.400   0.423   0.451   0.510   0.521   0.559
  0.573   0.586   0.621   0.669   0.708   0.782   0.792   0.796
  0.798   0.826   0.839   0.842   0.857   0.878   0.913   0.923
  0.947   0.953   1.006   1.190   1.305   1.416   1.450   1.540
  1.675   1.724   1.829   1.853   1.904   1.971   2.025   2.055
  2.072   2.111   2.119   2.250   2.262   2.303   2.355   2.425
  2.464   2.525   2.590   2.671   2.703   2.749   2.811   2.868
  2.888   2.930   3.189   3.276   3.298   3.415   3.442   3.511
  3.550   4.158   4.239   4.404   4.625
 
 Beta MOs
 -- Occupied --
******* -10.186 -10.172 -10.169  -9.503  -7.263  -7.257  -7.257
 -0.790  -0.769  -0.653  -0.563  -0.444  -0.429  -0.396  -0.349
 -0.343  -0.336  -0.334  -0.332
 -- Virtual --
 -0.245  -0.035   0.107   0.149   0.152   0.158   0.176   0.189
  0.206   0.249   0.286   0.353   0.431   0.436   0.461   0.514
  0.524   0.566   0.583   0.631   0.644   0.671   0.716   0.808
  0.832   0.845   0.851   0.855   0.857   0.863   0.866   0.881
  0.917   0.928   0.951   0.969   1.010   1.199   1.317   1.433
  1.465   1.555   1.680   1.733   1.832   1.881   1.911   2.016
  2.030   2.055   2.073   2.116   2.122   2.255   2.271   2.305
  2.360   2.436   2.473   2.545   2.603   2.679   2.710   2.752
  2.814   2.872   2.890   2.933   3.190   3.282   3.301   3.418
  3.445   3.516   3.554   4.180   4.263   4.412   4.628
 --------------------------------------------------------------
 
          Ground-State Mulliken Net Atomic Charges

     Atom                 Charge (a.u.)    Spin (a.u.)
  --------------------------------------------------------
      1 Cl                    0.001025       0.999762
      2 C                    -0.182831      -0.075865
      3 C                    -0.218308       1.080150
      4 C                    -0.319579       0.012731
      5 H                     0.103075       0.017178
      6 H                     0.106321       0.060357
      7 H                     0.098347      -0.047801
      8 H                     0.096267      -0.048071
      9 H                     0.102995      -0.000834
     10 H                     0.099285       0.001412
     11 H                     0.113402       0.000982
  --------------------------------------------------------
  Sum of atomic charges =     0.000000
  Sum of spin   charges =     2.000000

 -----------------------------------------------------------------
                    Cartesian Multipole Moments
 -----------------------------------------------------------------
    Charge (ESU x 10^10)
                 0.0000
    Dipole Moment (Debye)
         X      -0.2069      Y       0.0380      Z      -0.0752
       Tot       0.2234
    Quadrupole Moments (Debye-Ang)
        XX     -32.8855     XY       0.5992     YY     -33.4440
        XZ      -0.6654     YZ      -1.0489     ZZ     -32.2112
    Octopole Moments (Debye-Ang^2)
       XXX     -41.3639    XXY      25.1485    XYY     -15.6187
       YYY      68.2017    XXZ      -0.3417    XYZ       0.2443
       YYZ       6.2760    XZZ     -11.6637    YZZ      21.8026
       ZZZ      12.0258
    Hexadecapole Moments (Debye-Ang^3)
      XXXX    -591.7382   XXXY     220.1410   XXYY    -222.8894
      XYYY     228.3381   YYYY    -676.7434   XXXZ      26.6140
      XXYZ     -11.5367   XYYZ      17.4837   YYYZ     -69.9515
      XXZZ    -107.0653   XYZZ      68.3327   YYZZ    -128.0926
      XZZZ      37.9494   YZZZ     -52.1422   ZZZZ     -82.6832
 -----------------------------------------------------------------
 Calculating analytic gradient of the SCF energy
 Gradient of SCF Energy
            1           2           3           4           5           6
    1  -0.0001675  -0.0001271   0.0001395  -0.0000717  -0.0000024   0.0000391
    2   0.0002088  -0.0000005  -0.0002061   0.0000616  -0.0000347  -0.0001074
    3   0.0001079   0.0000203  -0.0001005  -0.0000012  -0.0000405   0.0000487
            7           8           9          10          11
    1   0.0000152  -0.0000379   0.0000276   0.0000761   0.0001091
    2   0.0000029  -0.0000047   0.0000062   0.0000088   0.0000651
    3   0.0000251   0.0000000   0.0000455  -0.0000562  -0.0000492
 Max gradient component =       2.088E-04
 RMS gradient           =       8.384E-05
 Gradient time:  CPU 7.50 s  wall 0.79 s
 Geometry Optimization Parameters
   NAtoms,    NIC,     NZ,  NCons,   NDum,   NFix, NCnnct, MaxDiis
       11      66       0       1       0       0       0       0


** CONSTRAINED OPTIMIZATION IN DELOCALIZED INTERNAL COORDINATES **
   Searching for a Minimum

   Optimization Cycle:   1

                       Coordinates (Angstroms)
     ATOM                X               Y               Z
      1  Cl        2.3496070000   -2.5961960000   -0.5141140000
      2  C        -0.9827760000    0.8127660000   -0.2567850000
      3  C         0.2674540000    1.2858980000    0.4045710000
      4  C        -1.4008380000   -0.6017580000    0.1664290000
      5  H        -0.8659040000    0.8560960000   -1.3486210000
      6  H        -1.8142770000    1.5072160000   -0.0332850000
      7  H         0.5135800000    0.9653060000    1.4126980000
      8  H         0.8633250000    2.0823120000   -0.0289490000
      9  H        -1.5529420000   -0.6563870000    1.2502980000
     10  H        -2.3340860000   -0.9037510000   -0.3192180000
     11  H        -0.6275420000   -1.3299000000   -0.0983250000
   Point Group: c1    Number of degrees of freedom:    27


   Energy is   -578.617643441

              Constraints and their Current Values
                                        Value     Constraint
   Distance(Angs):        1   3             4.500000     4.400000

 Attempting to Generate Delocalized Internal Coordinates

   Using Lagrange Multiplier Algorithm


 28 Hessian modes will be used to form the next step
  Hessian Eigenvalues:
    -0.997456    0.013147    0.045000    0.045000    0.045613    0.046529
     0.071534    0.078601    0.081892    0.085113    0.111954    0.125552
     0.137598    0.143336    0.160000    0.160000    0.160000    0.213841
     0.288392    0.330092    0.332943    0.337663    0.338010    0.341450
     0.342939    0.352638    0.353941    1.002551

 Minimum Search - Taking P-RFO Step
 Searching for Lamda that Maximizes Along the Constraint modes Only
 Value Taken    Lamda =   0.01767389


 ********************************************
 ** ERROR IN DETERMINING Lamda IN CONFormD **
 ********************************************


 ** Scaling Hessian by  2.688559 **


 28 Hessian modes will be used to form the next step
  Hessian Eigenvalues:
    -0.993174    0.035348    0.120985    0.120985    0.122634    0.125097
     0.192324    0.211322    0.220172    0.228832    0.300995    0.337554
     0.369940    0.385367    0.430169    0.430169    0.430169    0.574924
     0.775358    0.887471    0.895136    0.907826    0.908759    0.918009
     0.922011    0.948088    0.951590    1.006873

 Minimum Search - Taking P-RFO Step
 Searching for Lamda that Maximizes Along the Constraint modes Only
 Value Taken    Lamda =   0.01782212
 Searching for Lamda that Minimizes Along All other modes
 Value Taken    Lamda =  -0.01727554
 Step Taken.  Stepsize is  0.185721

                             Maximum     Tolerance    Cnvgd?
         Gradient            0.188972       0.000300      NO
         Displacement        0.185712       0.001200      NO
         Energy change     *********       0.000001      NO


 New Cartesian Coordinates Obtained by Inverse Iteration

 Displacement from previous Coordinates is:  0.219573
 ----------------------------------------------------------------
             Standard Nuclear Orientation (Angstroms)
    I     Atom           X                Y                Z
 ----------------------------------------------------------------
    1      Cl      2.3643620824    -2.5119519890    -0.5032230194
    2      C      -0.9828843058     0.8073369836    -0.2600997064
    3      C       0.2771731373     1.2569335580     0.3991782699
    4      C      -1.4162140526    -0.5984203506     0.1702610288
    5      H      -0.8675042337     0.8465014376    -1.3522315099
    6      H      -1.8034862508     1.5150818242    -0.0377763389
    7      H       0.5186206690     0.9321488102     1.4070758812
    8      H       0.8874843277     2.0416700678    -0.0355819853
    9      H      -1.5646551023    -0.6500080589     1.2547637394
   10      H      -2.3537685497    -0.8962918545    -0.3096540637
   11      H      -0.6435267214    -1.3213984286    -0.0980132958
 ----------------------------------------------------------------
 Nuclear Repulsion Energy =   125.9252247009 hartrees
 There are       22 alpha and       20 beta electrons

                       Distance Matrix (Angstroms)
             Cl(  1)   C (  2)   C (  3)   C (  4)   H (  5)   H (  6)
   C (  2)  4.720259
   C (  3)  4.401725  1.491486
   C (  4)  4.290448  1.532690  2.522360
   H (  5)  4.737614  1.098908  2.132177  2.169531
   H (  6)  5.814172  1.106218  2.141661  2.158738  1.746670
   H (  7)  4.349464  2.247125  1.086112  2.759699  3.089086  2.796353
   H (  8)  4.809920  2.252169  1.085038  3.509911  2.498395  2.742011
   H (  9)  4.689832  2.181083  2.785818  1.095829  3.085771  2.532847
   H ( 10)  4.990850  2.187266  3.472849  1.094557  2.516600  2.488263
   H ( 11)  3.260216  2.161701  2.782568  1.091657  2.514561  3.065086
             H (  7)   H (  8)   H (  9)   H ( 10)
   H (  8)  1.856976
   H (  9)  2.620393  3.863044
   H ( 10)  3.813263  4.383202  1.769395
   H ( 11)  2.948619  3.695690  1.768968  1.774946
 
 Applying Cartesian multipole field
    Component          Value
    ---------          -----
     (2,0,0)        1.00000E-11
     (0,2,0)        2.00000E-11
     (0,0,2)       -3.00000E-10
 Nucleus-field energy     =     0.0000000019 hartrees
 Requested basis set is 6-31G(d,p)
 There are 38 shells and 99 basis functions
 A cutoff of  1.0D-14 yielded    685 shell pairs
 There are      4683 function pairs
 Smallest overlap matrix eigenvalue = 6.20E-03
 Guess from superposition of atomic densities
 Warning:  Energy on first SCF cycle will be non-variational
 SAD guess density has 42.000000 electrons

 -----------------------------------------------------------------------
  General SCF calculation program by
  Eric Jon Sundstrom, Paul Horn, Yuezhi Mao, Dmitri Zuev, Alec White,
  David Stuck, Shaama M.S., Shane Yost, Joonho Lee, David Small,
  Daniel Levine, Susi Lehtola, Hugh Burton, Evgeny Epifanovsky
 -----------------------------------------------------------------------
 Exchange:     0.2000 Hartree-Fock + 0.0800 Slater + 0.7200 B88
 Correlation:  0.1900 VWN1RPA + 0.8100 LYP
 Using SG-1 standard quadrature grid
 using 12 threads for integral computing
 -------------------------------------------------------
 OpenMP Integral computing Module                
 Release: version 1.0, May 2013, Q-Chem Inc. Pittsburgh 
 -------------------------------------------------------
 -------------------------------------------------------
 OpenMP BLAS3 based DFT computing Module                
 Release: version 1.0, May 2013, Q-Chem Inc. Pittsburgh 
 -------------------------------------------------------
 A unrestricted SCF calculation will be
 performed using DIIS
 SCF converges when DIIS error is below 1.0e-06
 Alpha HF Exchange    Energy =  -4.53925361285410
 Beta HF Exchange     Energy =  -4.53925361285410
 DFT Correlation      Energy =  -1.88420469707454
 DFT Exchange         Energy = -35.69645908334512
 One-Electron (alpha) Energy = -519.82417837529204
 One-Electron (beta)  Energy = -519.82417837529204
 Total Coulomb        Energy = 381.56186906279663
 ---------------------------------------
  Cycle       Energy         DIIS error
 ---------------------------------------
    1    -578.8204339910      2.83e-02  
 Alpha HF Exchange    Energy =  -4.67594610841827
 Beta HF Exchange     Energy =  -4.47945058777266
 DFT Correlation      Energy =  -1.90208159729782
 DFT Exchange         Energy = -36.29599379985217
 One-Electron (alpha) Energy = -534.62069109187462
 One-Electron (beta)  Energy = -511.10932871217756
 Total Coulomb        Energy = 388.62448289708226
    2    -578.5337842974      3.86e-03  
 Alpha HF Exchange    Energy =  -4.62408972127438
 Beta HF Exchange     Energy =  -4.43162347634470
 DFT Correlation      Energy =  -1.87467299647941
 DFT Exchange         Energy = -35.88909133142320
 One-Electron (alpha) Energy = -531.62935238440866
 One-Electron (beta)  Energy = -509.81689709405191
 Total Coulomb        Energy = 384.24770175982627
    3    -578.0928005413      7.33e-03  
 Alpha HF Exchange    Energy =  -4.64054190188550
 Beta HF Exchange     Energy =  -4.44826281152392
 DFT Correlation      Energy =  -1.88644640149139
 DFT Exchange         Energy = -36.01662612642404
 One-Electron (alpha) Energy = -532.61953575493624
 One-Electron (beta)  Energy = -509.11041653727852
 Total Coulomb        Energy = 384.20088296496243
    4    -578.5957218657      1.88e-03  
 Alpha HF Exchange    Energy =  -4.65156427947003
 Beta HF Exchange     Energy =  -4.45535012063439
 DFT Correlation      Energy =  -1.88915146304986
 DFT Exchange         Energy = -36.08819162447315
 One-Electron (alpha) Energy = -533.28136077903355
 One-Electron (beta)  Energy = -509.57675126138383
 Total Coulomb        Energy = 385.40425609284711
    5    -578.6128887323      8.51e-04  
 Alpha HF Exchange    Energy =  -4.65184009380028
 Beta HF Exchange     Energy =  -4.45498439769798
 DFT Correlation      Energy =  -1.88840232747373
 DFT Exchange         Energy = -36.08653485958121
 One-Electron (alpha) Energy = -533.33579266315223
 One-Electron (beta)  Energy = -509.55158408722684
 Total Coulomb        Energy = 385.42702233555451
    6    -578.6168913905      3.55e-04  
 Alpha HF Exchange    Energy =  -4.65173206871049
 Beta HF Exchange     Energy =  -4.45431105193502
 DFT Correlation      Energy =  -1.88805222271041
 DFT Exchange         Energy = -36.08301510650122
 One-Electron (alpha) Energy = -533.32621182929802
 One-Electron (beta)  Energy = -509.51442340400286
 Total Coulomb        Energy = 385.37494919947983
    7    -578.6175717808      1.07e-04  
 Alpha HF Exchange    Energy =  -4.65203396721628
 Beta HF Exchange     Energy =  -4.45452548242145
 DFT Correlation      Energy =  -1.88804343225839
 DFT Exchange         Energy = -36.08493251904122
 One-Electron (alpha) Energy = -533.35399215188647
 One-Electron (beta)  Energy = -509.53023698132597
 Total Coulomb        Energy = 385.42089330548231
    8    -578.6176465258      1.80e-05  
 Alpha HF Exchange    Energy =  -4.65199632681681
 Beta HF Exchange     Energy =  -4.45450783263642
 DFT Correlation      Energy =  -1.88801940015886
 DFT Exchange         Energy = -36.08469586655170
 One-Electron (alpha) Energy = -533.35125727570949
 One-Electron (beta)  Energy = -509.52800039133137
 Total Coulomb        Energy = 385.41560336923811
    9    -578.6176490211      5.57e-06  
 Alpha HF Exchange    Energy =  -4.65200173948372
 Beta HF Exchange     Energy =  -4.45450970428606
 DFT Correlation      Energy =  -1.88802015365440
 DFT Exchange         Energy = -36.08472542509413
 One-Electron (alpha) Energy = -533.35162623100678
 One-Electron (beta)  Energy = -509.52841321111231
 Total Coulomb        Energy = 385.41642207069310
   10    -578.6176496911      3.11e-06  
 Alpha HF Exchange    Energy =  -4.65200053581605
 Beta HF Exchange     Energy =  -4.45451402865010
 DFT Correlation      Energy =  -1.88802016875387
 DFT Exchange         Energy = -36.08473736176165
 One-Electron (alpha) Energy = -533.35166693825079
 One-Electron (beta)  Energy = -509.52868879495384
 Total Coulomb        Energy = 385.41675275620861
   11    -578.6176503691      2.63e-06  
 Alpha HF Exchange    Energy =  -4.65199930506826
 Beta HF Exchange     Energy =  -4.45451492350505
 DFT Correlation      Energy =  -1.88802005256653
 DFT Exchange         Energy = -36.08473594756163
 One-Electron (alpha) Energy = -533.35156379170860
 One-Electron (beta)  Energy = -509.52868739174761
 Total Coulomb        Energy = 385.41664556013149
   12    -578.6176511491      2.63e-06  
 Alpha HF Exchange    Energy =  -4.65199915318358
 Beta HF Exchange     Energy =  -4.45451515297876
 DFT Correlation      Energy =  -1.88802004015548
 DFT Exchange         Energy = -36.08473619118435
 One-Electron (alpha) Energy = -533.35155237865558
 One-Electron (beta)  Energy = -509.52867518572367
 Total Coulomb        Energy = 385.41662195003471
   13    -578.6176514490      2.63e-06  
 Alpha HF Exchange    Energy =  -4.65200009403232
 Beta HF Exchange     Energy =  -4.45451277088553
 DFT Correlation      Energy =  -1.88802032125234
 DFT Exchange         Energy = -36.08473265224701
 One-Electron (alpha) Energy = -533.35158017767128
 One-Electron (beta)  Energy = -509.52921416518046
 Total Coulomb        Energy = 385.41719118565430
   14    -578.6176442927      2.59e-06  
 Alpha HF Exchange    Energy =  -4.65199947623271
 Beta HF Exchange     Energy =  -4.45451515285497
 DFT Correlation      Energy =  -1.88802020265001
 DFT Exchange         Energy = -36.08474568961118
 One-Electron (alpha) Energy = -533.35136877641492
 One-Electron (beta)  Energy = -509.53089039703798
 Total Coulomb        Energy = 385.41868718389162
   15    -578.6176278080      3.98e-06  
 Alpha HF Exchange    Energy =  -4.65200048772015
 Beta HF Exchange     Energy =  -4.45455653124927
 DFT Correlation      Energy =  -1.88801547361276
 DFT Exchange         Energy = -36.08492008598832
 One-Electron (alpha) Energy = -533.35105827832786
 One-Electron (beta)  Energy = -509.53515326409422
 Total Coulomb        Energy = 385.42287727167172
   16    -578.6176021464      1.86e-05  
 Alpha HF Exchange    Energy =  -4.65199987942664
 Beta HF Exchange     Energy =  -4.45454993166998
 DFT Correlation      Energy =  -1.88801606325076
 DFT Exchange         Energy = -36.08489492590553
 One-Electron (alpha) Energy = -533.35096719867715
 One-Electron (beta)  Energy = -509.53497262074728
 Total Coulomb        Energy = 385.42257473009835
   17    -578.6176011867      1.68e-05  
 Alpha HF Exchange    Energy =  -4.65199971448166
 Beta HF Exchange     Energy =  -4.45454608957079
 DFT Correlation      Energy =  -1.88801559345497
 DFT Exchange         Energy = -36.08488640183080
 One-Electron (alpha) Energy = -533.35090115974413
 One-Electron (beta)  Energy = -509.53529314117287
 Total Coulomb        Energy = 385.42282212034343
   18    -578.6175952770      1.72e-05  
 Alpha HF Exchange    Energy =  -4.65199543220970
 Beta HF Exchange     Energy =  -4.45473428595914
 DFT Correlation      Energy =  -1.88798865742524
 DFT Exchange         Energy = -36.08563073131783
 One-Electron (alpha) Energy = -533.34944676315160
 One-Electron (beta)  Energy = -509.54685712414459
 Total Coulomb        Energy = 385.43390486564027
   19    -578.6175234257      7.82e-05  
 Alpha HF Exchange    Energy =  -4.65199890258068
 Beta HF Exchange     Energy =  -4.45468707867375
 DFT Correlation      Energy =  -1.88799439917613
 DFT Exchange         Energy = -36.08546682982632
 One-Electron (alpha) Energy = -533.34986554403145
 One-Electron (beta)  Energy = -509.54443840869232
 Total Coulomb        Energy = 385.43168845499372
   20    -578.6175380051      6.52e-05  
 Alpha HF Exchange    Energy =  -4.65199688663614
 Beta HF Exchange     Energy =  -4.45467106904221
 DFT Correlation      Energy =  -1.88798945465868
 DFT Exchange         Energy = -36.08542309053625
 One-Electron (alpha) Energy = -533.34977207098586
 One-Electron (beta)  Energy = -509.54354459282251
 Total Coulomb        Energy = 385.43063982803363
   21    -578.6175326338      6.67e-05  
 Alpha HF Exchange    Energy =  -4.65200035897993
 Beta HF Exchange     Energy =  -4.45458518425988
 DFT Correlation      Energy =  -1.88799646343226
 DFT Exchange         Energy = -36.08512681410588
 One-Electron (alpha) Energy = -533.35034387765859
 One-Electron (beta)  Energy = -509.53910050041986
 Total Coulomb        Energy = 385.42637910491425
   22    -578.6175493911      4.60e-05  
 Alpha HF Exchange    Energy =  -4.65200653701493
 Beta HF Exchange     Energy =  -4.45445784339169
 DFT Correlation      Energy =  -1.88800753526091
 DFT Exchange         Energy = -36.08468940271659
 One-Electron (alpha) Energy = -533.35124437989543
 One-Electron (beta)  Energy = -509.53255379407415
 Total Coulomb        Energy = 385.42017155643452
   23    -578.6175632330      1.46e-05  
 Alpha HF Exchange    Energy =  -4.65201078139365
 Beta HF Exchange     Energy =  -4.45439769482347
 DFT Correlation      Energy =  -1.88801212563189
 DFT Exchange         Energy = -36.08449381045436
 One-Electron (alpha) Energy = -533.35173428688006
 One-Electron (beta)  Energy = -509.52941568392600
 Total Coulomb        Energy = 385.41727499187147
   24    -578.6175646883      6.75e-07  Convergence criterion met
 ---------------------------------------
 SCF time:   CPU 49.23s  wall 4.00s 
<S^2> =          2.005536027
 Alpha HF Exchange    Energy =  -4.65201078139365
 Beta HF Exchange     Energy =  -4.45439769482347
 DFT Correlation      Energy =  -1.88801212563189
 DFT Exchange         Energy = -36.08449381045436
 One-Electron (alpha) Energy = -533.35173428688006
 One-Electron (beta)  Energy = -509.52941568392600
 Total Coulomb        Energy = 385.41727499187147
 Nuclear repulsion Energy = 125.92522470289154
 SCF   energy in the final basis set =     -578.6175646883
 Total energy in the final basis set =     -578.6175646883
 
 --------------------------------------------------------------
 
                    Orbital Energies (a.u.)
 --------------------------------------------------------------
 
 Alpha MOs
 -- Occupied --
******* -10.184 -10.183 -10.172  -9.509  -7.284  -7.261  -7.261
 -0.844  -0.778  -0.670  -0.578  -0.450  -0.437  -0.406  -0.402
 -0.356  -0.351  -0.350  -0.346  -0.339  -0.195
 -- Virtual --
  0.105   0.140   0.147   0.153   0.174   0.187   0.202   0.244
  0.279   0.338   0.400   0.422   0.450   0.510   0.522   0.563
  0.574   0.585   0.622   0.670   0.709   0.782   0.792   0.796
  0.797   0.827   0.839   0.842   0.857   0.878   0.913   0.923
  0.946   0.953   1.008   1.192   1.306   1.414   1.451   1.540
  1.676   1.726   1.831   1.852   1.906   1.972   2.025   2.054
  2.074   2.111   2.118   2.250   2.264   2.305   2.355   2.426
  2.465   2.524   2.592   2.672   2.703   2.748   2.813   2.870
  2.890   2.932   3.192   3.275   3.298   3.415   3.442   3.512
  3.552   4.159   4.240   4.404   4.626
 
 Beta MOs
 -- Occupied --
******* -10.185 -10.172 -10.169  -9.503  -7.263  -7.257  -7.257
 -0.790  -0.769  -0.652  -0.563  -0.444  -0.430  -0.396  -0.348
 -0.343  -0.336  -0.334  -0.332
 -- Virtual --
 -0.244  -0.035   0.107   0.149   0.153   0.158   0.175   0.189
  0.207   0.249   0.286   0.353   0.430   0.436   0.460   0.514
  0.525   0.567   0.582   0.631   0.647   0.672   0.717   0.808
  0.833   0.845   0.851   0.855   0.857   0.863   0.866   0.881
  0.918   0.928   0.950   0.969   1.012   1.200   1.318   1.431
  1.466   1.555   1.681   1.734   1.834   1.881   1.912   2.017
  2.029   2.055   2.075   2.116   2.121   2.256   2.273   2.307
  2.360   2.437   2.474   2.544   2.606   2.679   2.710   2.750
  2.816   2.874   2.892   2.935   3.193   3.281   3.302   3.419
  3.445   3.517   3.556   4.180   4.264   4.413   4.629
 --------------------------------------------------------------
 
          Ground-State Mulliken Net Atomic Charges

     Atom                 Charge (a.u.)    Spin (a.u.)
  --------------------------------------------------------
      1 Cl                    0.001107       1.000168
      2 C                    -0.182841      -0.075817
      3 C                    -0.218136       1.079697
      4 C                    -0.319507       0.012403
      5 H                     0.102923       0.017251
      6 H                     0.105908       0.060319
      7 H                     0.098414      -0.047770
      8 H                     0.096022      -0.048003
      9 H                     0.102848      -0.000841
     10 H                     0.098887       0.001503
     11 H                     0.114375       0.001090
  --------------------------------------------------------
  Sum of atomic charges =    -0.000000
  Sum of spin   charges =     2.000000

 -----------------------------------------------------------------
                    Cartesian Multipole Moments
 -----------------------------------------------------------------
    Charge (ESU x 10^10)
                -0.0000
    Dipole Moment (Debye)
         X      -0.1989      Y       0.0392      Z      -0.0747
       Tot       0.2160
    Quadrupole Moments (Debye-Ang)
        XX     -32.9817     XY       0.5549     YY     -33.4783
        XZ      -0.6403     YZ      -1.0891     ZZ     -32.0948
    Octopole Moments (Debye-Ang^2)
       XXX     -42.5941    XXY      24.4251    XYY     -15.4546
       YYY      65.5951    XXZ      -0.2467    XYZ       0.0095
       YYZ       6.2559    XZZ     -11.6060    YZZ      20.7393
       ZZZ      11.5588
    Hexadecapole Moments (Debye-Ang^3)
      XXXX    -602.8736   XXXY     215.3959   XXYY    -217.4835
      XYYY     220.1962   YYYY    -640.7806   XXXZ      26.8396
      XXYZ     -11.5007   XYYZ      17.8532   YYYZ     -66.5389
      XXZZ    -107.7496   XYZZ      65.8822   YYZZ    -121.4295
      XZZZ      37.0678   YZZZ     -48.7660   ZZZZ     -81.4650
 -----------------------------------------------------------------
 Calculating analytic gradient of the SCF energy
 Gradient of SCF Energy
            1           2           3           4           5           6
    1  -0.0002138   0.0003274   0.0001705   0.0007336  -0.0000843  -0.0001970
    2   0.0001372  -0.0010243  -0.0009545  -0.0006029   0.0001602  -0.0003310
    3   0.0001401  -0.0005823   0.0002161   0.0001728  -0.0000531  -0.0001187
            7           8           9          10          11
    1   0.0000654  -0.0000862  -0.0002610  -0.0001981  -0.0002565
    2   0.0000243  -0.0000248  -0.0001263   0.0001015   0.0026406
    3   0.0000479  -0.0000485   0.0000481   0.0002568  -0.0000792
 Max gradient component =       2.641E-03
 RMS gradient           =       5.763E-04
 Gradient time:  CPU 7.52 s  wall 1.00 s
 Geometry Optimization Parameters
   NAtoms,    NIC,     NZ,  NCons,   NDum,   NFix, NCnnct, MaxDiis
       11      66       0       1       0       0       0       0

 Cartesian Hessian Update
 Hessian Updated using BFGS Update


** CONSTRAINED OPTIMIZATION IN DELOCALIZED INTERNAL COORDINATES **
   Searching for a Minimum

   Optimization Cycle:   2

                       Coordinates (Angstroms)
     ATOM                X               Y               Z
      1  Cl        2.3643620824   -2.5119519890   -0.5032230194
      2  C        -0.9828843058    0.8073369836   -0.2600997064
      3  C         0.2771731373    1.2569335580    0.3991782699
      4  C        -1.4162140526   -0.5984203506    0.1702610288
      5  H        -0.8675042337    0.8465014376   -1.3522315099
      6  H        -1.8034862508    1.5150818242   -0.0377763389
      7  H         0.5186206690    0.9321488102    1.4070758812
      8  H         0.8874843277    2.0416700678   -0.0355819853
      9  H        -1.5646551023   -0.6500080589    1.2547637394
     10  H        -2.3537685497   -0.8962918545   -0.3096540637
     11  H        -0.6435267214   -1.3213984286   -0.0980132958
   Point Group: c1    Number of degrees of freedom:    27


   Energy is   -578.617564688

              Constraints and their Current Values
                                        Value     Constraint
   Distance(Angs):        1   3             4.401725     4.400000
 Hessian Updated using BFGS Update

   Using Lagrange Multiplier Algorithm


 27 Hessian modes will be used to form the next step
  Hessian Eigenvalues:
    -0.998957    0.035999    0.120984    0.120996    0.122634    0.125683
     0.193008    0.211724    0.220191    0.229031    0.301405    0.337565
     0.370747    0.385544    0.430166    0.479339    0.593153    0.796875
     0.887455    0.895160    0.908756    0.917991    0.921959    0.945742
     0.948215    0.951655    1.002558

 Minimum Search - Taking P-RFO Step
 Searching for Lamda that Maximizes Along the Constraint modes Only
 Value Taken    Lamda =   0.00000070
 Searching for Lamda that Minimizes Along All other modes
 Value Taken    Lamda =  -0.00003144
 Step Taken.  Stepsize is  0.007183

                             Maximum     Tolerance    Cnvgd?
         Gradient            0.003260       0.000300      NO
         Displacement        0.003260       0.001200      NO
         Energy change      0.000079       0.000001      NO


 New Cartesian Coordinates Obtained by Inverse Iteration

 Displacement from previous Coordinates is:  0.010307
 ----------------------------------------------------------------
             Standard Nuclear Orientation (Angstroms)
    I     Atom           X                Y                Z
 ----------------------------------------------------------------
    1      Cl      2.3632917054    -2.5107950667    -0.5011217187
    2      C      -0.9828644094     0.8076470421    -0.2595408227
    3      C       0.2776819247     1.2575711279     0.3986829637
    4      C      -1.4163015277    -0.5993151628     0.1695938085
    5      H      -0.8680304589     0.8473038611    -1.3516882019
    6      H      -1.8028968142     1.5158286393    -0.0362525594
    7      H       0.5199195363     0.9324643706     1.4062568891
    8      H       0.8875696380     2.0425920443    -0.0362207314
    9      H      -1.5641612086    -0.6510540430     1.2541224435
   10      H      -2.3541175898    -0.8963764666    -0.3102946779
   11      H      -0.6444897958    -1.3242643462    -0.0988383928
 ----------------------------------------------------------------
 Nuclear Repulsion Energy =   125.9252377577 hartrees
 There are       22 alpha and       20 beta electrons

                       Distance Matrix (Angstroms)
             Cl(  1)   C (  2)   C (  3)   C (  4)   H (  5)   H (  6)
   C (  2)  4.718811
   C (  3)  4.400000  1.491532
   C (  4)  4.288233  1.533482  2.523903
   H (  5)  4.737271  1.098884  2.131848  2.169702
   H (  6)  5.812652  1.106269  2.141185  2.160014  1.746789
   H (  7)  4.346510  2.246958  1.086084  2.761274  3.088676  2.795822
   H (  8)  4.809077  2.252440  1.085063  3.511389  2.498259  2.741549
   H (  9)  4.686620  2.181030  2.786936  1.095784  3.085437  2.533267
   H ( 10)  4.989661  2.187832  3.473976  1.094549  2.516620  2.489513
   H ( 11)  3.258287  2.164571  2.786360  1.092383  2.517004  3.067890
             H (  7)   H (  8)   H (  9)   H ( 10)
   H (  8)  1.856958
   H (  9)  2.621844  3.864156
   H ( 10)  3.814616  4.384198  1.769637
   H ( 11)  2.951946  3.699574  1.769042  1.775001
 
 Applying Cartesian multipole field
    Component          Value
    ---------          -----
     (2,0,0)        1.00000E-11
     (0,2,0)        2.00000E-11
     (0,0,2)       -3.00000E-10
 Nucleus-field energy     =     0.0000000020 hartrees
 Requested basis set is 6-31G(d,p)
 There are 38 shells and 99 basis functions
 A cutoff of  1.0D-14 yielded    685 shell pairs
 There are      4683 function pairs
 Smallest overlap matrix eigenvalue = 6.21E-03
 Guess from superposition of atomic densities
 Warning:  Energy on first SCF cycle will be non-variational
 SAD guess density has 42.000000 electrons

 -----------------------------------------------------------------------
  General SCF calculation program by
  Eric Jon Sundstrom, Paul Horn, Yuezhi Mao, Dmitri Zuev, Alec White,
  David Stuck, Shaama M.S., Shane Yost, Joonho Lee, David Small,
  Daniel Levine, Susi Lehtola, Hugh Burton, Evgeny Epifanovsky
 -----------------------------------------------------------------------
 Exchange:     0.2000 Hartree-Fock + 0.0800 Slater + 0.7200 B88
 Correlation:  0.1900 VWN1RPA + 0.8100 LYP
 Using SG-1 standard quadrature grid
 using 12 threads for integral computing
 -------------------------------------------------------
 OpenMP Integral computing Module                
 Release: version 1.0, May 2013, Q-Chem Inc. Pittsburgh 
 -------------------------------------------------------
 -------------------------------------------------------
 OpenMP BLAS3 based DFT computing Module                
 Release: version 1.0, May 2013, Q-Chem Inc. Pittsburgh 
 -------------------------------------------------------
 A unrestricted SCF calculation will be
 performed using DIIS
 SCF converges when DIIS error is below 1.0e-06
 Alpha HF Exchange    Energy =  -4.53910281655366
 Beta HF Exchange     Energy =  -4.53910281655366
 DFT Correlation      Energy =  -1.88417034631270
 DFT Exchange         Energy = -35.69616475789939
 One-Electron (alpha) Energy = -519.82488223771395
 One-Electron (beta)  Energy = -519.82488223771395
 Total Coulomb        Energy = 381.56387318349078
 ---------------------------------------
  Cycle       Energy         DIIS error
 ---------------------------------------
    1    -578.8191942696      2.83e-02  
 Alpha HF Exchange    Energy =  -4.67586651137833
 Beta HF Exchange     Energy =  -4.47936741698120
 DFT Correlation      Energy =  -1.90203796241240
 DFT Exchange         Energy = -36.29539732891586
 One-Electron (alpha) Energy = -534.62043681975092
 One-Electron (beta)  Energy = -511.10805520973804
 Total Coulomb        Energy = 388.62202230269412
    2    -578.5339011868      3.86e-03  
 Alpha HF Exchange    Energy =  -4.62404834644116
 Beta HF Exchange     Energy =  -4.43158691919591
 DFT Correlation      Energy =  -1.87466282556803
 DFT Exchange         Energy = -35.88886017230107
 One-Electron (alpha) Energy = -531.63197322612780
 One-Electron (beta)  Energy = -509.82275307336079
 Total Coulomb        Energy = 384.25534880219459
    3    -578.0932980011      7.33e-03  
 Alpha HF Exchange    Energy =  -4.64047023568912
 Beta HF Exchange     Energy =  -4.44819334724666
 DFT Correlation      Energy =  -1.88640726998388
 DFT Exchange         Energy = -36.01611245866660
 One-Electron (alpha) Energy = -532.61999053356044
 One-Electron (beta)  Energy = -509.11003591330893
 Total Coulomb        Energy = 384.20024070336245
    4    -578.5957312954      1.88e-03  
 Alpha HF Exchange    Energy =  -4.65149580453824
 Beta HF Exchange     Energy =  -4.45528055854950
 DFT Correlation      Energy =  -1.88911324604598
 DFT Exchange         Energy = -36.08769055990511
 One-Electron (alpha) Energy = -533.28189305475360
 One-Electron (beta)  Energy = -509.57638829266392
 Total Coulomb        Energy = 385.40372211910255
    5    -578.6129016377      8.51e-04  
 Alpha HF Exchange    Energy =  -4.65177614830765
 Beta HF Exchange     Energy =  -4.45491913778213
 DFT Correlation      Energy =  -1.88836598036414
 DFT Exchange         Energy = -36.08606911489379
 One-Electron (alpha) Energy = -533.33665177492821
 One-Electron (beta)  Energy = -509.55150745964232
 Total Coulomb        Energy = 385.42714939845911
    6    -578.6169024578      3.55e-04  
 Alpha HF Exchange    Energy =  -4.65166878247427
 Beta HF Exchange     Energy =  -4.45424540120868
 DFT Correlation      Energy =  -1.88801575933576
 DFT Exchange         Energy = -36.08254962214238
 One-Electron (alpha) Energy = -533.32712051427393
 One-Electron (beta)  Energy = -509.51433366716083
 Total Coulomb        Energy = 385.37511200374109
    7    -578.6175839832      1.07e-04  
 Alpha HF Exchange    Energy =  -4.65197166319740
 Beta HF Exchange     Energy =  -4.45446023084675
 DFT Correlation      Energy =  -1.88800713510021
 DFT Exchange         Energy = -36.08447240307978
 One-Electron (alpha) Energy = -533.35497253281301
 One-Electron (beta)  Energy = -509.53017772743277
 Total Coulomb        Energy = 385.42116508599031
    8    -578.6176588468      1.80e-05  
 Alpha HF Exchange    Energy =  -4.65193408361362
 Beta HF Exchange     Energy =  -4.45444262874810
 DFT Correlation      Energy =  -1.88798310203583
 DFT Exchange         Energy = -36.08423614746746
 One-Electron (alpha) Energy = -533.35224537715567
 One-Electron (beta)  Energy = -509.52794101200703
 Total Coulomb        Energy = 385.41588324417961
    9    -578.6176613472      5.61e-06  
 Alpha HF Exchange    Energy =  -4.65193946899111
 Beta HF Exchange     Energy =  -4.45444442937127
 DFT Correlation      Energy =  -1.88798383217383
 DFT Exchange         Energy = -36.08426529773647
 One-Electron (alpha) Energy = -533.35261208702218
 One-Electron (beta)  Energy = -509.52834848667550
 Total Coulomb        Energy = 385.41669382352609
   10    -578.6176620187      3.11e-06  
 Alpha HF Exchange    Energy =  -4.65193830511591
 Beta HF Exchange     Energy =  -4.45444877136955
 DFT Correlation      Energy =  -1.88798385544878
 DFT Exchange         Energy = -36.08427746188909
 One-Electron (alpha) Energy = -533.35265608473378
 One-Electron (beta)  Energy = -509.52862583444147
 Total Coulomb        Energy = 385.41702985359990
   11    -578.6176626997      2.63e-06  
 Alpha HF Exchange    Energy =  -4.65193707886937
 Beta HF Exchange     Energy =  -4.45444966606923
 DFT Correlation      Energy =  -1.88798373892913
 DFT Exchange         Energy = -36.08427605851794
 One-Electron (alpha) Energy = -533.35255345551968
 One-Electron (beta)  Energy = -509.52862431789976
 Total Coulomb        Energy = 385.41692307568132
   12    -578.6176634804      2.63e-06  
 Alpha HF Exchange    Energy =  -4.65193693418202
 Beta HF Exchange     Energy =  -4.45444988535652
 DFT Correlation      Energy =  -1.88798372705189
 DFT Exchange         Energy = -36.08427629113581
 One-Electron (alpha) Energy = -533.35254260185388
 One-Electron (beta)  Energy = -509.52861268347954
 Total Coulomb        Energy = 385.41690059616985
   13    -578.6176637672      2.63e-06  
 Alpha HF Exchange    Energy =  -4.65193789935843
 Beta HF Exchange     Energy =  -4.45444745026338
 DFT Correlation      Energy =  -1.88798401055694
 DFT Exchange         Energy = -36.08427275421307
 One-Electron (alpha) Energy = -533.35257084548346
 One-Electron (beta)  Energy = -509.52916615803196
 Total Coulomb        Energy = 385.41748495173368
   14    -578.6176564065      2.59e-06  
 Alpha HF Exchange    Energy =  -4.65193726260768
 Beta HF Exchange     Energy =  -4.45444960323021
 DFT Correlation      Energy =  -1.88798389991872
 DFT Exchange         Energy = -36.08428480139415
 One-Electron (alpha) Energy = -533.35236310890673
 One-Electron (beta)  Energy = -509.53078288407960
 Total Coulomb        Energy = 385.41892339550873
   15    -578.6176404049      3.91e-06  
 Alpha HF Exchange    Energy =  -4.65193828017540
 Beta HF Exchange     Energy =  -4.45449058387435
 DFT Correlation      Energy =  -1.88797919321421
 DFT Exchange         Energy = -36.08445793136156
 One-Electron (alpha) Energy = -533.35205373570398
 One-Electron (beta)  Energy = -509.53502444313324
 Total Coulomb        Energy = 385.42309158585130
   16    -578.6176148219      1.84e-05  
 Alpha HF Exchange    Energy =  -4.65193764838706
 Beta HF Exchange     Energy =  -4.45448475247030
 DFT Correlation      Energy =  -1.88797966807747
 DFT Exchange         Energy = -36.08443602882183
 One-Electron (alpha) Energy = -533.35195202512421
 One-Electron (beta)  Energy = -509.53492473863821
 Total Coulomb        Energy = 385.42286377612976
   17    -578.6176133257      1.70e-05  
 Alpha HF Exchange    Energy =  -4.65193739875719
 Beta HF Exchange     Energy =  -4.45448378721564
 DFT Correlation      Energy =  -1.88797870546700
 DFT Exchange         Energy = -36.08443985854551
 One-Electron (alpha) Energy = -533.35185137216399
 One-Electron (beta)  Energy = -509.53551883699191
 Total Coulomb        Energy = 385.42336653249470
   18    -578.6176056670      1.85e-05  
 Alpha HF Exchange    Energy =  -4.65193334754990
 Beta HF Exchange     Energy =  -4.45465875471880
 DFT Correlation      Energy =  -1.88795384026642
 DFT Exchange         Energy = -36.08513110625993
 One-Electron (alpha) Energy = -533.35050322917152
 One-Electron (beta)  Energy = -509.54622693965479
 Total Coulomb        Energy = 385.43362874365755
   19    -578.6175407143      7.50e-05  
 Alpha HF Exchange    Energy =  -4.65193741556971
 Beta HF Exchange     Energy =  -4.45460306563517
 DFT Correlation      Energy =  -1.88796021587313
 DFT Exchange         Energy = -36.08493923790881
 One-Electron (alpha) Energy = -533.35098599741877
 One-Electron (beta)  Energy = -509.54337332541741
 Total Coulomb        Energy = 385.43100521437668
   20    -578.6175562838      5.99e-05  
 Alpha HF Exchange    Energy =  -4.65193504533947
 Beta HF Exchange     Energy =  -4.45459456964942
 DFT Correlation      Energy =  -1.88795386418852
 DFT Exchange         Energy = -36.08492555857942
 One-Electron (alpha) Energy = -533.35083090273736
 One-Electron (beta)  Energy = -509.54286752367386
 Total Coulomb        Energy = 385.43032153501537
   21    -578.6175481695      6.41e-05  
 Alpha HF Exchange    Energy =  -4.65193759418878
 Beta HF Exchange     Energy =  -4.45452975335832
 DFT Correlation      Energy =  -1.88795937177620
 DFT Exchange         Energy = -36.08470062616910
 One-Electron (alpha) Energy = -533.35125717473238
 One-Electron (beta)  Energy = -509.53952277187005
 Total Coulomb        Energy = 385.42710846440735
   22    -578.6175610680      4.83e-05  
 Alpha HF Exchange    Energy =  -4.65194431324953
 Beta HF Exchange     Energy =  -4.45439929389088
 DFT Correlation      Energy =  -1.88797075426868
 DFT Exchange         Energy = -36.08425463863363
 One-Electron (alpha) Energy = -533.35220716260221
 One-Electron (beta)  Energy = -509.53281343485571
 Total Coulomb        Energy = 385.42077570004881
   23    -578.6175761378      1.62e-05  
 Alpha HF Exchange    Energy =  -4.65194856808241
 Beta HF Exchange     Energy =  -4.45432703298315
 DFT Correlation      Energy =  -1.88797649857813
 DFT Exchange         Energy = -36.08401319894811
 One-Electron (alpha) Energy = -533.35274298582942
 One-Electron (beta)  Energy = -509.52907473667779
 Total Coulomb        Energy = 385.41726727879251
   24    -578.6175779826      9.38e-07  Convergence criterion met
 ---------------------------------------
 SCF time:   CPU 49.89s  wall 4.00s 
<S^2> =          2.005541131
 Alpha HF Exchange    Energy =  -4.65194856808241
 Beta HF Exchange     Energy =  -4.45432703298315
 DFT Correlation      Energy =  -1.88797649857813
 DFT Exchange         Energy = -36.08401319894811
 One-Electron (alpha) Energy = -533.35274298582942
 One-Electron (beta)  Energy = -509.52907473667779
 Total Coulomb        Energy = 385.41726727879251
 Nuclear repulsion Energy = 125.92523775969576
 SCF   energy in the final basis set =     -578.6175779826
 Total energy in the final basis set =     -578.6175779826
 
 --------------------------------------------------------------
 
                    Orbital Energies (a.u.)
 --------------------------------------------------------------
 
 Alpha MOs
 -- Occupied --
******* -10.184 -10.183 -10.172  -9.509  -7.284  -7.261  -7.261
 -0.844  -0.778  -0.670  -0.578  -0.450  -0.437  -0.406  -0.402
 -0.357  -0.351  -0.350  -0.346  -0.338  -0.195
 -- Virtual --
  0.105   0.140   0.147   0.153   0.174   0.187   0.202   0.244
  0.279   0.338   0.400   0.422   0.450   0.510   0.522   0.563
  0.574   0.585   0.622   0.670   0.709   0.782   0.792   0.796
  0.797   0.827   0.839   0.842   0.857   0.878   0.913   0.923
  0.946   0.953   1.007   1.192   1.306   1.414   1.451   1.540
  1.676   1.725   1.831   1.852   1.906   1.972   2.025   2.055
  2.074   2.111   2.118   2.250   2.264   2.305   2.355   2.426
  2.464   2.524   2.591   2.672   2.703   2.748   2.813   2.870
  2.889   2.931   3.191   3.275   3.298   3.415   3.442   3.512
  3.552   4.159   4.240   4.404   4.626
 
 Beta MOs
 -- Occupied --
******* -10.185 -10.172 -10.169  -9.503  -7.263  -7.257  -7.257
 -0.790  -0.769  -0.652  -0.563  -0.444  -0.430  -0.396  -0.348
 -0.343  -0.336  -0.334  -0.332
 -- Virtual --
 -0.244  -0.035   0.107   0.149   0.153   0.158   0.175   0.189
  0.207   0.249   0.286   0.353   0.430   0.436   0.460   0.514
  0.525   0.567   0.583   0.631   0.647   0.672   0.717   0.808
  0.833   0.845   0.851   0.855   0.857   0.863   0.866   0.881
  0.918   0.928   0.950   0.969   1.011   1.200   1.318   1.431
  1.466   1.555   1.681   1.734   1.834   1.881   1.912   2.017
  2.029   2.055   2.074   2.116   2.121   2.256   2.273   2.306
  2.360   2.437   2.474   2.545   2.605   2.679   2.710   2.750
  2.816   2.874   2.891   2.934   3.193   3.281   3.302   3.418
  3.445   3.517   3.555   4.180   4.264   4.413   4.629
 --------------------------------------------------------------
 
          Ground-State Mulliken Net Atomic Charges

     Atom                 Charge (a.u.)    Spin (a.u.)
  --------------------------------------------------------
      1 Cl                    0.001123       1.000183
      2 C                    -0.182869      -0.075806
      3 C                    -0.218148       1.079765
      4 C                    -0.319583       0.012420
      5 H                     0.102927       0.017236
      6 H                     0.105953       0.060263
      7 H                     0.098389      -0.047773
      8 H                     0.096061      -0.048016
      9 H                     0.102865      -0.000841
     10 H                     0.098965       0.001498
     11 H                     0.114316       0.001071
  --------------------------------------------------------
  Sum of atomic charges =    -0.000000
  Sum of spin   charges =     2.000000

 -----------------------------------------------------------------
                    Cartesian Multipole Moments
 -----------------------------------------------------------------
    Charge (ESU x 10^10)
                -0.0000
    Dipole Moment (Debye)
         X      -0.1990      Y       0.0390      Z      -0.0745
       Tot       0.2160
    Quadrupole Moments (Debye-Ang)
        XX     -32.9897     XY       0.5525     YY     -33.4696
        XZ      -0.6366     YZ      -1.0914     ZZ     -32.0934
    Octopole Moments (Debye-Ang^2)
       XXX     -42.5969    XXY      24.4174    XYY     -15.4339
       YYY      65.5460    XXZ      -0.2528    XYZ      -0.0047
       YYZ       6.2431    XZZ     -11.5870    YZZ      20.7121
       ZZZ      11.4883
    Hexadecapole Moments (Debye-Ang^3)
      XXXX    -602.7623   XXXY     215.2140   XXYY    -217.3449
      XYYY     219.8718   YYYY    -640.4315   XXXZ      26.7161
      XXYZ     -11.4737   XYYZ      17.8109   YYYZ     -66.3597
      XXZZ    -107.6681   XYZZ      65.7845   YYZZ    -121.3200
      XZZZ      36.8550   YZZZ     -48.5480   ZZZZ     -81.2603
 -----------------------------------------------------------------
 Calculating analytic gradient of the SCF energy
 Gradient of SCF Energy
            1           2           3           4           5           6
    1  -0.0002236   0.0002365   0.0001911   0.0004018  -0.0000531  -0.0001436
    2   0.0001367  -0.0007014  -0.0008153  -0.0006750   0.0001174  -0.0001814
    3   0.0001452  -0.0004394   0.0001385   0.0001744  -0.0000249  -0.0001148
            7           8           9          10          11
    1   0.0000369  -0.0000470  -0.0001891  -0.0001692  -0.0000407
    2   0.0000187  -0.0000080  -0.0000730   0.0000508   0.0021304
    3   0.0000225  -0.0000342   0.0000171   0.0002225  -0.0001068
 Max gradient component =       2.130E-03
 RMS gradient           =       4.593E-04
 Gradient time:  CPU 7.75 s  wall 0.82 s
 Geometry Optimization Parameters
   NAtoms,    NIC,     NZ,  NCons,   NDum,   NFix, NCnnct, MaxDiis
       11      66       0       1       0       0       0       0

 Cartesian Hessian Update
 Hessian Updated using BFGS Update


** CONSTRAINED OPTIMIZATION IN DELOCALIZED INTERNAL COORDINATES **
   Searching for a Minimum

   Optimization Cycle:   3

                       Coordinates (Angstroms)
     ATOM                X               Y               Z
      1  Cl        2.3632917054   -2.5107950667   -0.5011217187
      2  C        -0.9828644094    0.8076470421   -0.2595408227
      3  C         0.2776819247    1.2575711279    0.3986829637
      4  C        -1.4163015277   -0.5993151628    0.1695938085
      5  H        -0.8680304589    0.8473038611   -1.3516882019
      6  H        -1.8028968142    1.5158286393   -0.0362525594
      7  H         0.5199195363    0.9324643706    1.4062568891
      8  H         0.8875696380    2.0425920443   -0.0362207314
      9  H        -1.5641612086   -0.6510540430    1.2541224435
     10  H        -2.3541175898   -0.8963764666   -0.3102946779
     11  H        -0.6444897958   -1.3242643462   -0.0988383928
   Point Group: c1    Number of degrees of freedom:    27


   Energy is   -578.617577983

              Constraints and their Current Values
                                        Value     Constraint
   Distance(Angs):        1   3             4.400000     4.400000
 Hessian Updated using BFGS Update

 26 Hessian modes will be used to form the next step
  Hessian Eigenvalues:
     0.033844    0.105209    0.120986    0.122625    0.124629    0.154893
     0.197889    0.215642    0.220271    0.230879    0.304465    0.337827
     0.373280    0.387145    0.430170    0.431054    0.554103    0.757831
     0.877678    0.888050    0.895216    0.908873    0.918193    0.922070
     0.948176    0.951710

 Minimum Search - Taking Simple RFO Step
 Searching for Lamda that Minimizes Along All modes
 Value Taken    Lamda =  -0.00004790
 Step Taken.  Stepsize is  0.021687

                             Maximum     Tolerance    Cnvgd?
         Gradient           0.001050      0.000300      NO
         Displacement       0.008336      0.001200      NO
         Energy change     -0.000013      0.000001      NO


 New Cartesian Coordinates Obtained by Inverse Iteration

 Displacement from previous Coordinates is:  0.038443
 ----------------------------------------------------------------
             Standard Nuclear Orientation (Angstroms)
    I     Atom           X                Y                Z
 ----------------------------------------------------------------
    1      Cl      2.3594399069    -2.5116360051    -0.4943505846
    2      C      -0.9824758360     0.8086961295    -0.2574123087
    3      C       0.2789965656     1.2615178472     0.3973141039
    4      C      -1.4156708034    -0.6023727997     0.1670332835
    5      H      -0.8697419225     0.8504512967    -1.3496613660
    6      H      -1.8015230729     1.5169313503    -0.0303304729
    7      H       0.5245928357     0.9356762647     1.4037757152
    8      H       0.8861152152     2.0484270762    -0.0381594008
    9      H      -1.5618878933    -0.6549537528     1.2516439182
   10      H      -2.3543204121    -0.8958665110    -0.3132982332
   11      H      -0.6479235831    -1.3352688959    -0.1018556546
 ----------------------------------------------------------------
 Nuclear Repulsion Energy =   125.8895238243 hartrees
 There are       22 alpha and       20 beta electrons

                       Distance Matrix (Angstroms)
             Cl(  1)   C (  2)   C (  3)   C (  4)   H (  5)   H (  6)
   C (  2)  4.716900
   C (  3)  4.400000  1.491652
   C (  4)  4.281843  1.535880  2.529627
   H (  5)  4.739494  1.098845  2.130845  2.170046
   H (  6)  5.810188  1.106346  2.139317  2.163165  1.747297
   H (  7)  4.342063  2.246536  1.086027  2.767625  3.087531  2.793803
   H (  8)  4.813831  2.253139  1.085107  3.516684  2.497642  2.739699
   H (  9)  4.676813  2.180651  2.791343  1.095684  3.084169  2.533371
   H ( 10)  4.986284  2.188747  3.477590  1.094495  2.515482  2.491435
   H ( 11)  3.253018  2.175479  2.802080  1.094931  2.526578  3.077491
             H (  7)   H (  8)   H (  9)   H ( 10)
   H (  8)  1.856903
   H (  9)  2.628051  3.868408
   H ( 10)  3.819821  4.386911  1.770602
   H ( 11)  2.966296  3.715741  1.769215  1.774704
 
 Applying Cartesian multipole field
    Component          Value
    ---------          -----
     (2,0,0)        1.00000E-11
     (0,2,0)        2.00000E-11
     (0,0,2)       -3.00000E-10
 Nucleus-field energy     =     0.0000000022 hartrees
 Requested basis set is 6-31G(d,p)
 There are 38 shells and 99 basis functions
 A cutoff of  1.0D-14 yielded    685 shell pairs
 There are      4683 function pairs
 Smallest overlap matrix eigenvalue = 6.23E-03
 Guess from superposition of atomic densities
 Warning:  Energy on first SCF cycle will be non-variational
 SAD guess density has 42.000000 electrons

 -----------------------------------------------------------------------
  General SCF calculation program by
  Eric Jon Sundstrom, Paul Horn, Yuezhi Mao, Dmitri Zuev, Alec White,
  David Stuck, Shaama M.S., Shane Yost, Joonho Lee, David Small,
  Daniel Levine, Susi Lehtola, Hugh Burton, Evgeny Epifanovsky
 -----------------------------------------------------------------------
 Exchange:     0.2000 Hartree-Fock + 0.0800 Slater + 0.7200 B88
 Correlation:  0.1900 VWN1RPA + 0.8100 LYP
 Using SG-1 standard quadrature grid
 using 12 threads for integral computing
 -------------------------------------------------------
 OpenMP Integral computing Module                
 Release: version 1.0, May 2013, Q-Chem Inc. Pittsburgh 
 -------------------------------------------------------
 -------------------------------------------------------
 OpenMP BLAS3 based DFT computing Module                
 Release: version 1.0, May 2013, Q-Chem Inc. Pittsburgh 
 -------------------------------------------------------
 A unrestricted SCF calculation will be
 performed using DIIS
 SCF converges when DIIS error is below 1.0e-06
 Alpha HF Exchange    Energy =  -4.53862184094222
 Beta HF Exchange     Energy =  -4.53862184094222
 DFT Correlation      Energy =  -1.88405418777651
 DFT Exchange         Energy = -35.69523039921082
 One-Electron (alpha) Energy = -519.79139438695211
 One-Electron (beta)  Energy = -519.79139438695211
 Total Coulomb        Energy = 381.53450733304106
 ---------------------------------------
  Cycle       Energy         DIIS error
 ---------------------------------------
    1    -578.8152858833      2.82e-02  
 Alpha HF Exchange    Energy =  -4.67561171995415
 Beta HF Exchange     Energy =  -4.47910107128599
 DFT Correlation      Energy =  -1.90189408424437
 DFT Exchange         Energy = -36.29349203064845
 One-Electron (alpha) Energy = -534.58129009198228
 One-Electron (beta)  Energy = -511.07056809691943
 Total Coulomb        Energy = 388.57817340126479
    2    -578.5342598673      3.85e-03  
 Alpha HF Exchange    Energy =  -4.62391370748399
 Beta HF Exchange     Energy =  -4.43144100606292
 DFT Correlation      Energy =  -1.87463905753721
 DFT Exchange         Energy = -35.88806985855491
 One-Electron (alpha) Energy = -531.60182045914473
 One-Electron (beta)  Energy = -509.80985823742196
 Total Coulomb        Energy = 384.24525483488281
    3    -578.0949636649      7.31e-03  
 Alpha HF Exchange    Energy =  -4.64023579461133
 Beta HF Exchange     Energy =  -4.44796880271324
 DFT Correlation      Energy =  -1.88627506973494
 DFT Exchange         Energy = -36.01444259369655
 One-Electron (alpha) Energy = -532.58268440033567
 One-Electron (beta)  Energy = -509.07542672369550
 Total Coulomb        Energy = 384.16175738302502
    4    -578.5957521753      1.88e-03  
 Alpha HF Exchange    Energy =  -4.65127357420357
 Beta HF Exchange     Energy =  -4.45505665019516
 DFT Correlation      Energy =  -1.88898520866668
 DFT Exchange         Energy = -36.08607505934599
 One-Electron (alpha) Energy = -533.24500943142993
 One-Electron (beta)  Energy = -509.54190507100418
 Total Coulomb        Energy = 385.36585165462861
    5    -578.6129295138      8.50e-04  
 Alpha HF Exchange    Energy =  -4.65156823356713
 Beta HF Exchange     Energy =  -4.45470797712079
 DFT Correlation      Energy =  -1.88824384997579
 DFT Exchange         Energy = -36.08456236678810
 One-Electron (alpha) Energy = -533.30082845806828
 One-Electron (beta)  Energy = -509.51789456788072
 Total Coulomb        Energy = 385.39135774922238
    6    -578.6169238777      3.56e-04  
 Alpha HF Exchange    Energy =  -4.65146458029212
 Beta HF Exchange     Energy =  -4.45403408198489
 DFT Correlation      Energy =  -1.88789387564554
 DFT Exchange         Energy = -36.08105478280100
 One-Electron (alpha) Energy = -533.29156951997049
 One-Electron (beta)  Energy = -509.48074183134804
 Total Coulomb        Energy = 385.33962663403634
    7    -578.6176082115      1.07e-04  
 Alpha HF Exchange    Energy =  -4.65177043850608
[...]
 DFT Correlation      Energy =  -1.88779121744536
 DFT Exchange         Energy = -36.08289499383539
 One-Electron (alpha) Energy = -533.00583012552374
 One-Electron (beta)  Energy = -509.19942257499861
 Total Coulomb        Energy = 385.07715426754754
   12    -578.6177732408      3.23e-06  
 Alpha HF Exchange    Energy =  -4.65173766520501
 Beta HF Exchange     Energy =  -4.45425124095973
 DFT Correlation      Energy =  -1.88779118668877
 DFT Exchange         Energy = -36.08289527507739
 One-Electron (alpha) Energy = -533.00581938608582
 One-Electron (beta)  Energy = -509.19939480999273
 Total Coulomb        Energy = 385.07711559443050
   13    -578.6177737229      3.23e-06  
 Alpha HF Exchange    Energy =  -4.65173857703343
 Beta HF Exchange     Energy =  -4.45424984539440
 DFT Correlation      Energy =  -1.88779177154397
 DFT Exchange         Energy = -36.08289318327186
 One-Electron (alpha) Energy = -533.00581752994867
 One-Electron (beta)  Energy = -509.20023682932492
 Total Coulomb        Energy = 385.07796398734627
   14    -578.6177635025      3.22e-06  
 Alpha HF Exchange    Energy =  -4.65173802234942
 Beta HF Exchange     Energy =  -4.45425257607444
 DFT Correlation      Energy =  -1.88779220080316
 DFT Exchange         Energy = -36.08290194809402
 One-Electron (alpha) Energy = -533.00563211579902
 One-Electron (beta)  Energy = -509.20177713645268
 Total Coulomb        Energy = 385.07934599560855
   15    -578.6177477573      3.94e-06  
 Alpha HF Exchange    Energy =  -4.65173803662778
 Beta HF Exchange     Energy =  -4.45433014832305
 DFT Correlation      Energy =  -1.88778534873863
 DFT Exchange         Energy = -36.08320316875511
 One-Electron (alpha) Energy = -533.00494221396036
 One-Electron (beta)  Energy = -509.20966313478942
 Total Coulomb        Energy = 385.08696690771342
   16    -578.6176948968      2.83e-05  
 Alpha HF Exchange    Energy =  -4.65173772001865
 Beta HF Exchange     Energy =  -4.45430893788953
 DFT Correlation      Energy =  -1.88778753134960
 DFT Exchange         Energy = -36.08312204837201
 One-Electron (alpha) Energy = -533.00496793332263
 One-Electron (beta)  Energy = -509.20837324874014
 Total Coulomb        Energy = 385.08559690078994
   17    -578.6177002723      2.20e-05  
 Alpha HF Exchange    Energy =  -4.65173796419299
 Beta HF Exchange     Energy =  -4.45429312835592
 DFT Correlation      Energy =  -1.88778888077611
 DFT Exchange         Energy = -36.08306365305232
 One-Electron (alpha) Energy = -533.00505540098436
 One-Electron (beta)  Energy = -509.20747008254614
 Total Coulomb        Energy = 385.08470614012481
   18    -578.6177027231      1.78e-05  
 Alpha HF Exchange    Energy =  -4.65173516089678
 Beta HF Exchange     Energy =  -4.45445121759112
 DFT Correlation      Energy =  -1.88776735765376
 DFT Exchange         Energy = -36.08368299068560
 One-Electron (alpha) Energy = -533.00368470638728
 One-Electron (beta)  Energy = -509.21883887983086
 Total Coulomb        Energy = 385.09554375505553
   19    -578.6176163114      6.95e-05  
 Alpha HF Exchange    Energy =  -4.65172712946932
 Beta HF Exchange     Energy =  -4.45468035026048
 DFT Correlation      Energy =  -1.88773835211498
 DFT Exchange         Energy = -36.08452972698161
 One-Electron (alpha) Energy = -533.00200833714644
 One-Electron (beta)  Energy = -509.23079026415832
 Total Coulomb        Energy = 385.10697035955383
   20    -578.6175035539      1.35e-04  
 Alpha HF Exchange    Energy =  -4.65173344179483
 Beta HF Exchange     Energy =  -4.45471640559796
 DFT Correlation      Energy =  -1.88772920709550
 DFT Exchange         Energy = -36.08471589734162
 One-Electron (alpha) Energy = -533.00218938381238
 One-Electron (beta)  Energy = -509.23219646905932
 Total Coulomb        Energy = 385.10881477296977
   21    -578.6174657851      1.49e-04  
 Alpha HF Exchange    Energy =  -4.65173258674908
 Beta HF Exchange     Energy =  -4.45463727678984
 DFT Correlation      Energy =  -1.88773312276358
 DFT Exchange         Energy = -36.08442754984788
 One-Electron (alpha) Energy = -533.00253413770906
 One-Electron (beta)  Energy = -509.22784134886331
 Total Coulomb        Energy = 385.10440493254418
   22    -578.6175008435      1.31e-04  
 Alpha HF Exchange    Energy =  -4.65173408294203
 Beta HF Exchange     Energy =  -4.45461038687974
 DFT Correlation      Energy =  -1.88773662598839
 DFT Exchange         Energy = -36.08433257322156
 One-Electron (alpha) Energy = -533.00273989245875
 One-Electron (beta)  Energy = -509.22653117641244
 Total Coulomb        Energy = 385.10316959172002
   23    -578.6175148995      1.24e-04  
 Alpha HF Exchange    Energy =  -4.65173572460681
 Beta HF Exchange     Energy =  -4.45455531253422
 DFT Correlation      Energy =  -1.88774220426228
 DFT Exchange         Energy = -36.08413453427112
 One-Electron (alpha) Energy = -533.00310648015750
 One-Electron (beta)  Energy = -509.22372578274394
 Total Coulomb        Energy = 385.10046025034774
   24    -578.6175395416      1.09e-04  
 Alpha HF Exchange    Energy =  -4.65174302827742
 Beta HF Exchange     Energy =  -4.45435958113741
 DFT Correlation      Energy =  -1.88776085450721
 DFT Exchange         Energy = -36.08344273940099
 One-Electron (alpha) Energy = -533.00445051526617
 One-Electron (beta)  Energy = -509.21367802923828
 Total Coulomb        Energy = 385.09083320023871
   25    -578.6176013010      5.97e-05  
 Alpha HF Exchange    Energy =  -4.65174603412601
 Beta HF Exchange     Energy =  -4.45427741653714
 DFT Correlation      Energy =  -1.88776597927517
 DFT Exchange         Energy = -36.08316322096577
 One-Electron (alpha) Energy = -533.00498011701677
 One-Electron (beta)  Energy = -509.20914799787198
 Total Coulomb        Energy = 385.08646590430112
   26    -578.6176146149      4.09e-05  
 Alpha HF Exchange    Energy =  -4.65175177811646
 Beta HF Exchange     Energy =  -4.45413112885478
 DFT Correlation      Energy =  -1.88777859710999
 DFT Exchange         Energy = -36.08265393195808
 One-Electron (alpha) Energy = -533.00593116920254
 One-Electron (beta)  Energy = -509.20160229702395
 Total Coulomb        Energy = 385.07922194592697
   27    -578.6176267097      4.70e-06  
 Alpha HF Exchange    Energy =  -4.65175270276232
 Beta HF Exchange     Energy =  -4.45409784151641
 DFT Correlation      Energy =  -1.88778111068651
 DFT Exchange         Energy = -36.08253728738412
 One-Electron (alpha) Energy = -533.00612642970646
 One-Electron (beta)  Energy = -509.19985390763532
 Total Coulomb        Energy = 385.07752225980676
   28    -578.6176267733      3.37e-06  
 Alpha HF Exchange    Energy =  -4.65175293285285
 Beta HF Exchange     Energy =  -4.45409183722045
 DFT Correlation      Energy =  -1.88778160242177
 DFT Exchange         Energy = -36.08251625175831
 One-Electron (alpha) Energy = -533.00616317730248
 One-Electron (beta)  Energy = -509.19954465072067
 Total Coulomb        Energy = 385.07722351734600
   29    -578.6176266883      4.84e-06  
 Alpha HF Exchange    Energy =  -4.65175226165571
 Beta HF Exchange     Energy =  -4.45411522574222
 DFT Correlation      Energy =  -1.88777941631248
 DFT Exchange         Energy = -36.08259977734037
 One-Electron (alpha) Energy = -533.00603186634874
 One-Electron (beta)  Energy = -509.20070909312096
 Total Coulomb        Energy = 385.07836054503719
   30    -578.6176268488      1.15e-06  
 Alpha HF Exchange    Energy =  -4.65175279592138
 Beta HF Exchange     Energy =  -4.45409479548055
 DFT Correlation      Energy =  -1.88778111740162
 DFT Exchange         Energy = -36.08252727347431
 One-Electron (alpha) Energy = -533.00614527961829
 One-Electron (beta)  Energy = -509.19966266327884
 Total Coulomb        Energy = 385.07733691166368
   31    -578.6176267669      3.93e-06  
 Alpha HF Exchange    Energy =  -4.65175275785151
 Beta HF Exchange     Energy =  -4.45409626154162
 DFT Correlation      Energy =  -1.88778093565035
 DFT Exchange         Energy = -36.08253269907836
 One-Electron (alpha) Energy = -533.00613725463541
 One-Electron (beta)  Energy = -509.19973025699773
 Total Coulomb        Energy = 385.07740314270922
   32    -578.6176267764      3.52e-06  
 Alpha HF Exchange    Energy =  -4.65175298575367
 Beta HF Exchange     Energy =  -4.45409458597541
 DFT Correlation      Energy =  -1.88778104728023
 DFT Exchange         Energy = -36.08252791008669
 One-Electron (alpha) Energy = -533.00615856199215
 One-Electron (beta)  Energy = -509.19964345568712
 Total Coulomb        Energy = 385.07733160364188
   33    -578.6176266965      3.89e-06  
 Alpha HF Exchange    Energy =  -4.65175270750239
 Beta HF Exchange     Energy =  -4.45410298230859
 DFT Correlation      Energy =  -1.88777911655025
 DFT Exchange         Energy = -36.08256270695148
 One-Electron (alpha) Energy = -533.00610109610454
 One-Electron (beta)  Energy = -509.19995750653572
 Total Coulomb        Energy = 385.07762946561013
   34    -578.6176264037      9.81e-07  Convergence criterion met
 ---------------------------------------
 SCF time:   CPU 68.68s  wall 6.00s 
<S^2> =          2.005537653
 Alpha HF Exchange    Energy =  -4.65175270750239
 Beta HF Exchange     Energy =  -4.45410298230859
 DFT Correlation      Energy =  -1.88777911655025
 DFT Exchange         Energy = -36.08256270695148
 One-Electron (alpha) Energy = -533.00610109610454
 One-Electron (beta)  Energy = -509.19995750653572
 Total Coulomb        Energy = 385.07762946561013
 Nuclear repulsion Energy = 125.58700024663372
 SCF   energy in the final basis set =     -578.6176264037
 Total energy in the final basis set =     -578.6176264037
 
 --------------------------------------------------------------
 
                    Orbital Energies (a.u.)
 --------------------------------------------------------------
 
 Alpha MOs
 -- Occupied --
******* -10.185 -10.183 -10.173  -9.509  -7.284  -7.261  -7.261
 -0.843  -0.778  -0.670  -0.578  -0.450  -0.436  -0.406  -0.402
 -0.357  -0.351  -0.350  -0.346  -0.338  -0.194
 -- Virtual --
  0.105   0.140   0.147   0.152   0.174   0.186   0.201   0.244
  0.280   0.336   0.401   0.422   0.445   0.510   0.521   0.561
  0.574   0.586   0.622   0.669   0.707   0.782   0.792   0.796
  0.798   0.827   0.840   0.842   0.857   0.878   0.912   0.922
  0.947   0.952   0.998   1.189   1.305   1.416   1.449   1.539
  1.674   1.724   1.829   1.853   1.903   1.971   2.025   2.055
  2.071   2.110   2.120   2.249   2.261   2.303   2.354   2.425
  2.464   2.525   2.589   2.671   2.704   2.749   2.810   2.868
  2.887   2.929   3.188   3.275   3.297   3.416   3.442   3.511
  3.549   4.158   4.238   4.403   4.624
 
 Beta MOs
 -- Occupied --
******* -10.186 -10.173 -10.169  -9.503  -7.263  -7.257  -7.257
 -0.790  -0.769  -0.653  -0.563  -0.444  -0.429  -0.396  -0.349
 -0.343  -0.336  -0.334  -0.332
 -- Virtual --
 -0.244  -0.035   0.107   0.149   0.152   0.157   0.175   0.189
  0.206   0.249   0.286   0.352   0.430   0.436   0.457   0.513
  0.524   0.566   0.583   0.631   0.647   0.671   0.716   0.808
  0.833   0.846   0.851   0.855   0.857   0.863   0.866   0.881
  0.916   0.927   0.950   0.969   1.002   1.198   1.316   1.433
  1.464   1.554   1.679   1.732   1.832   1.882   1.910   2.016
  2.029   2.055   2.072   2.115   2.123   2.255   2.270   2.304
  2.360   2.435   2.474   2.545   2.603   2.679   2.710   2.752
  2.814   2.871   2.890   2.933   3.189   3.281   3.301   3.419
  3.445   3.516   3.553   4.180   4.262   4.412   4.627
 --------------------------------------------------------------
 
          Ground-State Mulliken Net Atomic Charges

     Atom                 Charge (a.u.)    Spin (a.u.)
  --------------------------------------------------------
      1 Cl                    0.000486       0.999895
      2 C                    -0.182931      -0.075928
      3 C                    -0.217942       1.079854
      4 C                    -0.318791       0.012936
      5 H                     0.103307       0.017067
      6 H                     0.106272       0.060504
      7 H                     0.098268      -0.047825
      8 H                     0.096368      -0.048110
      9 H                     0.103242      -0.000836
     10 H                     0.099465       0.001471
     11 H                     0.112255       0.000973
  --------------------------------------------------------
  Sum of atomic charges =    -0.000000
  Sum of spin   charges =     2.000000

 -----------------------------------------------------------------
                    Cartesian Multipole Moments
 -----------------------------------------------------------------
    Charge (ESU x 10^10)
                 0.0000
    Dipole Moment (Debye)
         X      -0.2151      Y       0.0522      Z      -0.0751
       Tot       0.2338
    Quadrupole Moments (Debye-Ang)
        XX     -32.8278     XY       0.6298     YY     -33.5009
        XZ      -0.6960     YZ      -1.0246     ZZ     -32.2314
    Octopole Moments (Debye-Ang^2)
       XXX     -43.0060    XXY      24.1661    XYY     -16.3616
       YYY      65.1072    XXZ      -0.6208    XYZ       0.2009
       YYZ       5.9741    XZZ     -12.3590    YZZ      20.8128
       ZZZ      11.9483
    Hexadecapole Moments (Debye-Ang^3)
      XXXX    -615.3989   XXXY     215.6145   XXYY    -219.6564
      XYYY     223.4937   YYYY    -632.7330   XXXZ      26.2764
      XXYZ     -10.5251   XYYZ      17.5762   YYYZ     -65.2074
      XXZZ    -111.1518   XYZZ      67.0374   YYZZ    -120.6189
      XZZZ      38.9204   YZZZ     -49.2581   ZZZZ     -82.3810
 -----------------------------------------------------------------
 Calculating analytic gradient of the SCF energy
 Gradient of SCF Energy
            1           2           3           4           5           6
    1  -0.0000173   0.0002377   0.0000014   0.0000781  -0.0001043  -0.0000098
    2  -0.0000122  -0.0000720  -0.0000605  -0.0001525   0.0000459   0.0002010
    3   0.0001002  -0.0001266   0.0000123   0.0003573   0.0000437  -0.0000068
            7           8           9          10          11
    1  -0.0000092   0.0000362  -0.0001346  -0.0000661  -0.0000122
    2  -0.0000023   0.0000176   0.0000890  -0.0000778   0.0000238
    3  -0.0000513  -0.0000125  -0.0000756   0.0000302  -0.0002708
 Max gradient component =       3.573E-04
 RMS gradient           =       1.136E-04
 Gradient time:  CPU 7.53 s  wall 0.80 s
 Geometry Optimization Parameters
   NAtoms,    NIC,     NZ,  NCons,   NDum,   NFix, NCnnct, MaxDiis
       11      66       0       1       0       0       0       0

 Cartesian Hessian Update
 Hessian Updated using BFGS Update


** CONSTRAINED OPTIMIZATION IN DELOCALIZED INTERNAL COORDINATES **
   Searching for a Minimum

   Optimization Cycle:  12

                       Coordinates (Angstroms)
     ATOM                X               Y               Z
      1  Cl        2.4114623872   -2.4881544458   -0.5092070852
      2  C        -0.9785218432    0.8038122073   -0.2595937738
      3  C         0.2814858229    1.2531561141    0.3995258473
      4  C        -1.4298449892   -0.5988131483    0.1717076392
      5  H        -0.8619360936    0.8390684369   -1.3515486508
      6  H        -1.7934133919    1.5196127312   -0.0400553145
      7  H         0.5190183251    0.9339516484    1.4099983863
      8  H         0.8974398176    2.0309345131   -0.0398081318
      9  H        -1.5736954761   -0.6462855895    1.2568438954
     10  H        -2.3763514186   -0.8765397344   -0.3030987046
     11  H        -0.6800421403   -1.3491407330   -0.1000651076
   Point Group: c1    Number of degrees of freedom:    27


   Energy is   -578.617626404

              Constraints and their Current Values
                                        Value     Constraint
   Distance(Angs):        1   3             4.400000     4.400000
 Hessian Updated using BFGS Update

 26 Hessian modes will be used to form the next step
  Hessian Eigenvalues:
     0.001860    0.030867    0.059411    0.120685    0.122561    0.123257
     0.179801    0.202317    0.215147    0.222659    0.293108    0.332499
     0.368782    0.383240    0.426378    0.430163    0.549346    0.708740
     0.850592    0.888589    0.894574    0.906650    0.916068    0.919823
     0.946503    0.951143

 Minimum Search - Taking Simple RFO Step
 Searching for Lamda that Minimizes Along All modes
 Value Taken    Lamda =  -0.00000115
 Step Taken.  Stepsize is  0.009522

                             Maximum     Tolerance    Cnvgd?
         Gradient           0.000182      0.000300     YES
         Displacement       0.004873      0.001200      NO
         Energy change     -0.000001      0.000001     YES


                       Distance Matrix (Angstroms)
             Cl(  1)   C (  2)   C (  3)   C (  4)   H (  5)   H (  6)
   C (  2)  4.731949
   C (  3)  4.400000  1.491297
   C (  4)  4.334616  1.535276  2.531866
   H (  5)  4.742899  1.098727  2.131934  2.170330
   H (  6)  5.827802  1.106624  2.137624  2.159804  1.746655
   H (  7)  4.356088  2.246575  1.085987  2.771426  3.089042  2.791594
   H (  8)  4.789025  2.252414  1.085059  3.518034  2.497321  2.739004
   H (  9)  4.732114  2.180963  2.790084  1.095658  3.084897  2.534036
   H ( 10)  5.055981  2.186185  3.477554  1.094736  2.517144  2.480031
   H ( 11)  3.319962  2.179391  2.818879  1.095014  2.527361  3.077815
             H (  7)   H (  8)   H (  9)   H ( 10)
   H (  8)  1.857017
   H (  9)  2.626796  3.867211
   H ( 10)  3.820438  4.386392  1.769377
   H ( 11)  2.988402  3.730548  1.770261  1.772580
 
 Final energy is   -578.617626403709     


 ******************************
 **  OPTIMIZATION CONVERGED  **
 ******************************

                       Coordinates (Angstroms)
     ATOM                X               Y               Z
      1  Cl        2.4114623872   -2.4881544458   -0.5092070852
      2  C        -0.9785218432    0.8038122073   -0.2595937738
      3  C         0.2814858229    1.2531561141    0.3995258473
      4  C        -1.4298449892   -0.5988131483    0.1717076392
      5  H        -0.8619360936    0.8390684369   -1.3515486508
      6  H        -1.7934133919    1.5196127312   -0.0400553145
      7  H         0.5190183251    0.9339516484    1.4099983863
      8  H         0.8974398176    2.0309345131   -0.0398081318
      9  H        -1.5736954761   -0.6462855895    1.2568438954
     10  H        -2.3763514186   -0.8765397344   -0.3030987046
     11  H        -0.6800421403   -1.3491407330   -0.1000651076

Z-matrix Print:
$molecule
0 3
Cl
H  1 3.319962
C  2 1.095014 1 154.594686
H  3 1.094736 2 108.092152 1 160.367234 0
H  3 1.095658 2 107.819493 1 -83.394928 0
C  3 1.535276 2 110.793493 1 38.106164 0
H  6 1.098727 3 109.858899 2 61.620411 0
H  6 1.106624 3 108.586845 2 175.636352 0
C  6 1.491297 3 113.546277 2 -61.859553 0
H  9 1.085059 6 121.108145 3 158.264073 0
H  9 1.085987 6 120.496264 3 -32.208225 0
$end

PES scan, value:    4.4000 energy: -578.6176264037
------- Summary of potential scan: ------ 
    4.4000      -578.6176264037
----------------------------------------- 
Archival summary:
1\1\hpc0332\JobtypUnspecified\ProcedureUnspecified\6-31G**\l137(3)\knomura\MonMar1120:31:332019MonMar1120:31:332019\0\\#,JobtypUnspecified,ProcedureUnspecified,6-31G**,\\0,3\Cl\H,1,3.31996\C,2,1.09501,1,154.595\H,3,1.09474,2,108.092,1,160.367,0\H,3,1.09566,2,107.819,1,-83.3949,0\C,3,1.53528,2,110.793,1,38.1062,0\H,6,1.09873,3,109.859,2,61.6204,0\H,6,1.10662,3,108.587,2,175.636,0\C,6,1.4913,3,113.546,2,-61.8596,0\H,9,1.08506,6,121.108,3,158.264,0\H,9,1.08599,6,120.496,3,-32.2082,0\\\@

 Total job time:  82.02s(wall), 857.74s(cpu) 
 Mon Mar 11 20:31:33 2019

        *************************************************************
        *                                                           *
        *  Thank you very much for using Q-Chem.  Have a nice day.  *
        *                                                           *
        *************************************************************


