
Running Job 1 of 1 ruruma/CH3CH2CH2Cl_afterGeo_singlet.xyz.data/inputs/bond_singlet_2.4.in
qchem ruruma/CH3CH2CH2Cl_afterGeo_singlet.xyz.data/inputs/bond_singlet_2.4.in_12245.0 /staging/scratch/2858534/qchem12245/ 1
/usr/usc/qchem/5.1.1/exe/qcprog.exe_s ruruma/CH3CH2CH2Cl_afterGeo_singlet.xyz.data/inputs/bond_singlet_2.4.in_12245.0 /staging/scratch/2858534/qchem12245/
Check license passed

                  Welcome to Q-Chem
     A Quantum Leap Into The Future Of Chemistry


 Q-Chem 5.1, Q-Chem, Inc., Pleasanton, CA (2018)

 Yihan Shao,  Zhengting Gan,  E. Epifanovsky,  A. T. B. Gilbert,  M. Wormit,  
 J. Kussmann,  A. W. Lange,  A. Behn,  Jia Deng,  Xintian Feng,  D. Ghosh,  
 M. Goldey,  P. R. Horn,  L. D. Jacobson,  I. Kaliman,  T. Kus,  A. Landau,  
 Jie Liu,  E. I. Proynov,  R. M. Richard,  R. P. Steele,  E. J. Sundstrom,  
 H. L. Woodcock III,  P. M. Zimmerman,  D. Zuev,  B. Albrecht,  E. Alguire,  
 S. A. Baeppler,  D. Barton,  Z. Benda,  Y. A. Bernard,  E. J. Berquist,  
 K. B. Bravaya,  H. Burton,  D. Casanova,  Chun-Min Chang,  Yunqing Chen,  
 A. Chien,  K. D. Closser,  M. P. Coons,  S. Coriani,  S. Dasgupta,  
 A. L. Dempwolff,  M. Diedenhofen,  Hainam Do,  R. G. Edgar,  Po-Tung Fang,  
 S. Faraji,  S. Fatehi,  Qingguo Feng,  K. D. Fenk,  J. Fosso-Tande,  
 Qinghui Ge,  A. Ghysels,  G. Gidofalvi,  J. Gomes,  J. Gonthier,  A. Gunina,  
 D. Hait,  M. W. D. Hanson-Heine,  P. H. P. Harbach,  A. W. Hauser,  
 J. E. Herr,  E. G. Hohenstein,  Z. C. Holden,  Kerwin Hui,  B. C. Huynh,  
 T.-C. Jagau,  Hyunjun Ji,  B. Kaduk,  K. Khistyaev,  Jaehoon Kim,  
 P. Klunzinger,  K. Koh,  D. Kosenkov,  L. Koulias,  T. Kowalczyk,  
 C. M. Krauter,  A. Kunitsa,  Ka Un Lao,  A. Laurent,  K. V. Lawler,  
 Joonho Lee,  D. Lefrancois,  S. Lehtola,  D. S. Levine,  Yi-Pei Li,  
 You-Sheng Lin,  Fenglai Liu,  E. Livshits,  A. Luenser,  P. Manohar,  
 E. Mansoor,  S. F. Manzer,  Shan-Ping Mao,  Yuezhi Mao,  N. Mardirossian,  
 A. V. Marenich,  T. Markovich,  L. A. Martinez-Martinez,  S. A. Maurer,  
 N. J. Mayhall,  S. C. McKenzie,  J.-M. Mewes,  A. F. Morrison,  
 J. W. Mullinax,  K. Nanda,  T. S. Nguyen-Beck,  R. Olivares-Amaya,  
 J. A. Parkhill,  T. M. Perrine,  F. Plasser,  P. Pokhilko,  S. Prager,  
 A. Prociuk,  E. Ramos,  D. R. Rehn,  F. Rob,  M. Schneider,  N. Sergueev,  
 S. M. Sharada,  S. Sharma,  D. W. Small,  T. Stauch,  T. Stein,  
 Yu-Chuan Su,  A. J. W. Thom,  A. Tkatchenko,  T. Tsuchimochi,  N. M. Tubman,  
 L. Vogt,  M. L. Vidal,  O. Vydrov,  M. A. Watson,  J. Wenzel,  
 M. de Wergifosse,  T. A. Wesolowski,  A. White,  J. Witte,  A. Yamada,  
 Jun Yang,  K. Yao,  S. Yeganeh,  S. R. Yost,  Zhi-Qiang You,  A. Zech,  
 Igor Ying Zhang,  Xing Zhang,  Yan Zhao,  Ying Zhu,  B. R. Brooks,  
 G. K. L. Chan,  C. J. Cramer,  M. S. Gordon,  W. J. Hehre,  A. Klamt,  
 M. W. Schmidt,  C. D. Sherrill,  D. G. Truhlar,  A. Aspuru-Guzik,  R. Baer,  
 A. T. Bell,  N. A. Besley,  Jeng-Da Chai,  A. E. DePrince, III,  
 R. A. DiStasio Jr.,  A. Dreuw,  B. D. Dunietz,  T. R. Furlani,  
 Chao-Ping Hsu,  Yousung Jung,  Jing Kong,  D. S. Lambrecht,  WanZhen Liang,  
 C. Ochsenfeld,  V. A. Rassolov,  L. V. Slipchenko,  J. E. Subotnik,  
 T. Van Voorhis,  J. M. Herbert,  A. I. Krylov,  P. M. W. Gill,  M. Head-Gordon

 Contributors to earlier versions of Q-Chem not listed above: 
 R. D. Adamson,  B. Austin,  J. Baker,  G. J. O. Beran,  K. Brandhorst,  
 S. T. Brown,  E. F. C. Byrd,  A. K. Chakraborty,  C.-L. Cheng,  
 Siu Hung Chien,  D. M. Chipman,  D. L. Crittenden,  H. Dachsel,  
 R. J. Doerksen,  A. D. Dutoi,  L. Fusti-Molnar,  W. A. Goddard III,  
 A. Golubeva-Zadorozhnaya,  S. R. Gwaltney,  G. Hawkins,  A. Heyden,  
 S. Hirata,  G. Kedziora,  F. J. Keil,  C. Kelley,  Jihan Kim,  R. A. King,  
 R. Z. Khaliullin,  P. P. Korambath,  W. Kurlancheek,  A. M. Lee,  M. S. Lee,  
 S. V. Levchenko,  Ching Yeh Lin,  D. Liotard,  R. C. Lochan,  I. Lotan,  
 P. E. Maslen,  N. Nair,  D. P. O'Neill,  D. Neuhauser,  E. Neuscamman,  
 C. M. Oana,  R. Olson,  B. Peters,  R. Peverati,  P. A. Pieniazek,  
 Y. M. Rhee,  J. Ritchie,  M. A. Rohrdanz,  E. Rosta,  N. J. Russ,  
 H. F. Schaefer III,  N. E. Schultz,  N. Shenvi,  A. C. Simmonett,  A. Sodt,  
 D. Stuck,  K. S. Thanthiriwatte,  V. Vanovschi,  Tao Wang,  A. Warshel,  
 C. F. Williams,  Q. Wu,  X. Xu,  W. Zhang

 Please cite Q-Chem as follows:
 Y. Shao et al., Mol. Phys. 113, 184-215 (2015)
 DOI: 10.1080/00268976.2014.952696

 Q-Chem 5.1.1 for Intel X86 EM64T Linux

 Parts of Q-Chem use Armadillo 8.300.2 (Tropical Shenanigans).
 http://arma.sourceforge.net/

 Q-Chem begins on Mon Mar 11 19:05:37 2019  

Host: 
0

     Scratch files written to /staging/scratch/2858534/qchem12245//
 Aug318 |scratch|qcdevops|jenkins|workspace|build_RNUM 6013   
Processing $rem in /usr/usc/qchem/5.1.1/config/preferences.
 MEM_TOTAL  2000 
Input Ideriv = 2
Curr. Ideriv = -1
Max.  Ideriv = 2

Checking the input file for inconsistencies... 	...done.

--------------------------------------------------------------
User input:
--------------------------------------------------------------

$comment
potential surface scanner
$end

$rem
JOBTYPE  PES_SCAN
UNRESTRICTED TRUE
SYM_IGNORE  TRUE
GEOM_OPT_MAX_CYCLES 400
SCF_MAX_CYCLES 400
METHOD   B3LYP
BASIS   6-31G**
PDB_PRINT 2
SCF_CONVERGENCE 6
THRESH 14
SCF_PRINT 1
$end
$molecule
0 1
Cl 1.945429 -0.800420 -0.292801
C -0.825685 0.584015 -0.316764
C 0.484995 0.862608 0.332873
C -1.537338 -0.678537 0.169917
H -0.704001 0.579484 -1.404500
H -1.439819 1.474906 -0.087358
H 0.567183 0.703553 1.404276
H 1.074937 1.689909 -0.047899
H -1.695508 -0.651822 1.253329
H -2.514469 -0.779360 -0.310732
H -0.940120 -1.562736 -0.065638
$end
$scan
stre 1 3 2.400000 2.401000 0.100000
$end
--------------------------------------------------------------
 ----------------------------------------------------------------
             Standard Nuclear Orientation (Angstroms)
    I     Atom           X                Y                Z
 ----------------------------------------------------------------
    1      Cl      1.9454290000    -0.8004200000    -0.2928010000
    2      C      -0.8256850000     0.5840150000    -0.3167640000
    3      C       0.4849950000     0.8626080000     0.3328730000
    4      C      -1.5373380000    -0.6785370000     0.1699170000
    5      H      -0.7040010000     0.5794840000    -1.4045000000
    6      H      -1.4398190000     1.4749060000    -0.0873580000
    7      H       0.5671830000     0.7035530000     1.4042760000
    8      H       1.0749370000     1.6899090000    -0.0478990000
    9      H      -1.6955080000    -0.6518220000     1.2533290000
   10      H      -2.5144690000    -0.7793600000    -0.3107320000
   11      H      -0.9401200000    -1.5627360000    -0.0656380000
 ----------------------------------------------------------------
 Nuclear Repulsion Energy =   151.1768459043 hartrees
 There are       21 alpha and       21 beta electrons
 Requested basis set is 6-31G(d,p)
 There are 38 shells and 99 basis functions

 Total QAlloc Memory Limit   2000 MB
 Mega-Array Size       188 MB
 MEM_STATIC part       192 MB
A total of 1 constraints
  
            1
    1   1.0100000
    2   1.0100000
    3   3.0100000
    4   2.4000000
    5   2.4010000
    6   0.1000000
    7   0.0000000
    8   0.0000000
    9   0.0000000
   10   0.0000000

                       Distance Matrix (Angstroms)
             Cl(  1)   C (  2)   C (  3)   C (  4)   H (  5)   H (  6)
   C (  2)  3.097791
   C (  3)  2.299999  1.489135
   C (  4)  3.515484  1.528838  2.547845
   H (  5)  3.187395  1.094531  2.124226  2.180793
   H (  6)  4.084020  1.106108  2.063107  2.170948  1.754443
   H (  7)  2.653595  2.217284  1.086259  2.804073  3.085535  2.616871
   H (  8)  2.649429  2.215323  1.085102  3.532840  2.497605  2.524239
   H (  9)  3.958411  2.179238  2.809863  1.095223  3.092451  2.527012
   H ( 10)  4.459984  2.170442  3.479522  1.093606  2.514076  2.507286
   H ( 11)  2.993179  2.164417  2.841137  1.092686  2.537205  3.078545
             H (  7)   H (  8)   H (  9)   H ( 10)
   H (  8)  1.827437
   H (  9)  2.641893  3.853864
   H ( 10)  3.825815  4.364654  1.770099
   H ( 11)  3.093328  3.826287  1.772018  1.775478
 
 A cutoff of  1.0D-14 yielded    720 shell pairs
 There are      4997 function pairs
 
 -------------------------------------------------------
 OpenMP Integral Computing Module                       
 Release: version 1.0, May 2013, Q-Chem Inc. Pittsburgh 
 -------------------------------------------------------
 Integral Job Info:
 Integral job number is                      11
 Integral operator is                         1
 short-range coefficients                     0
 long-range coefficients              100000000
 Omega coefficients                           0
 if combine SR and LR in K                    0
 Integral screening is                        0
 Integral computing path is                   2
 max size of driver memory is            800000
 size of driver memory is                593474
 size of scratch memory is             15267112
 max col of scratch BK array               1296
 max len of scratch array in speh3          155
 max len of scratch index in speh4           18
 max int batch size is                      520
 min int batch size is                       52
 fixed nKL is                                52
 max L of basis functions is                  2
 order of int derivative is                   0
 number of shells is                         38
 number of basis is                          99
 number of cartesian basis is                99
 number of contracted shell pairs           720
 number of primitive shell pairs           2672
 maxK2 (contraction) of shell pair           36
 max number of K2 of shell pair               1
 max number of CS2 of shell pair             57
 max number of PS2 of shell pair            222
 mem total for path MDJ                  514716
 -------------------------------------------------------
 Smallest overlap matrix eigenvalue = 5.95E-03

 Scale SEOQF with 1.000000e-01/1.000000e-01/1.000000e+00

 Standard Electronic Orientation quadrupole field applied
 Nucleus-field energy     =    -0.0000000035 hartrees
 Guess from superposition of atomic densities
 Warning:  Energy on first SCF cycle will be non-variational
 SAD guess density has 42.000000 electrons

 -----------------------------------------------------------------------
  General SCF calculation program by
  Eric Jon Sundstrom, Paul Horn, Yuezhi Mao, Dmitri Zuev, Alec White,
  David Stuck, Shaama M.S., Shane Yost, Joonho Lee, David Small,
  Daniel Levine, Susi Lehtola, Hugh Burton, Evgeny Epifanovsky
 -----------------------------------------------------------------------
 Exchange:     0.2000 Hartree-Fock + 0.0800 Slater + 0.7200 B88
 Correlation:  0.1900 VWN1RPA + 0.8100 LYP
 Using SG-1 standard quadrature grid
 using 12 threads for integral computing
 -------------------------------------------------------
 OpenMP Integral computing Module                
 Release: version 1.0, May 2013, Q-Chem Inc. Pittsburgh 
 -------------------------------------------------------
 -------------------------------------------------------
 OpenMP BLAS3 based DFT computing Module                
 Release: version 1.0, May 2013, Q-Chem Inc. Pittsburgh 
 -------------------------------------------------------
 A unrestricted SCF calculation will be
 performed using DIIS
 SCF converges when DIIS error is below 1.0e-06
 Alpha HF Exchange    Energy =  -4.55287973439855
 Beta HF Exchange     Energy =  -4.55287973439855
 DFT Correlation      Energy =  -1.89571008396345
 DFT Exchange         Energy = -35.72015368569313
 One-Electron (alpha) Energy = -545.06502547551725
 One-Electron (beta)  Energy = -545.06502547551725
 Total Coulomb        Energy = 406.74588195369199
 ---------------------------------------
  Cycle       Energy         DIIS error
 ---------------------------------------
    1    -578.9289463350      2.89e-02  
 Alpha HF Exchange    Energy =  -4.57595263507606
 Beta HF Exchange     Energy =  -4.57595263507605
 DFT Correlation      Energy =  -1.92203519694206
 DFT Exchange         Energy = -36.30545174966372
 One-Electron (alpha) Energy = -548.78178063715336
 One-Electron (beta)  Energy = -548.78178063715336
 Total Coulomb        Energy = 415.11911115778258
    2    -578.6469964325      3.56e-03  
 Alpha HF Exchange    Energy =  -4.51730142144028
 Beta HF Exchange     Energy =  -4.51730142144027
 DFT Correlation      Energy =  -1.89932145777998
 DFT Exchange         Energy = -35.83466315013762
 One-Electron (alpha) Energy = -544.92014515688822
 One-Electron (beta)  Energy = -544.92014515688800
 Total Coulomb        Energy = 406.80755585422600
    3    -578.6244760095      4.15e-03  
 Alpha HF Exchange    Energy =  -4.54544626860686
 Beta HF Exchange     Energy =  -4.54544626860686
 DFT Correlation      Energy =  -1.90945836507504
 DFT Exchange         Energy = -36.05255516281521
 One-Electron (alpha) Energy = -546.90833176381193
 One-Electron (beta)  Energy = -546.90833176381193
 Total Coulomb        Energy = 410.97844396628273
    4    -578.7142797256      8.73e-04  
 Alpha HF Exchange    Energy =  -4.54553656431129
 Beta HF Exchange     Energy =  -4.54553656431129
 DFT Correlation      Energy =  -1.91066658020186
 DFT Exchange         Energy = -36.06039083047240
 One-Electron (alpha) Energy = -546.91804013758554
 One-Electron (beta)  Energy = -546.91804013758542
 Total Coulomb        Energy = 411.00313030817068
    5    -578.7182346055      3.02e-04  
 Alpha HF Exchange    Energy =  -4.54612742171841
 Beta HF Exchange     Energy =  -4.54612742171842
 DFT Correlation      Energy =  -1.91048925242321
 DFT Exchange         Energy = -36.06328302641533
 One-Electron (alpha) Energy = -546.94582820607116
 One-Electron (beta)  Energy = -546.94582820607127
 Total Coulomb        Energy = 411.06205514608632
    6    -578.7187824875      5.46e-05  
 Alpha HF Exchange    Energy =  -4.54585523467874
 Beta HF Exchange     Energy =  -4.54585523467873
 DFT Correlation      Energy =  -1.91043380923538
 DFT Exchange         Energy = -36.06116117693555
 One-Electron (alpha) Energy = -546.92705308507902
 One-Electron (beta)  Energy = -546.92705308507857
 Total Coulomb        Energy = 411.02176756493094
    7    -578.7187981599      1.24e-05  
 Alpha HF Exchange    Energy =  -4.54591704329344
 Beta HF Exchange     Energy =  -4.54591704329344
 DFT Correlation      Energy =  -1.91045217002790
 DFT Exchange         Energy = -36.06164352615130
 One-Electron (alpha) Energy = -546.93277154902944
 One-Electron (beta)  Energy = -546.93277154902921
 Total Coulomb        Energy = 411.03382800688610
    8    -578.7187989731      2.18e-06  
 Alpha HF Exchange    Energy =  -4.54591426143282
 Beta HF Exchange     Energy =  -4.54591426143281
 DFT Correlation      Energy =  -1.91045162824669
 DFT Exchange         Energy = -36.06162137676723
 One-Electron (alpha) Energy = -546.93238183006997
 One-Electron (beta)  Energy = -546.93238183006997
 Total Coulomb        Energy = 411.03302028844246
    9    -578.7187989988      5.52e-07  Convergence criterion met
 ---------------------------------------
 SCF time:   CPU 21.56s  wall 1.00s 
<S^2> =         -0.000000000
 Alpha HF Exchange    Energy =  -4.54591426143282
 Beta HF Exchange     Energy =  -4.54591426143281
 DFT Correlation      Energy =  -1.91045162824669
 DFT Exchange         Energy = -36.06162137676723
 One-Electron (alpha) Energy = -546.93238183006997
 One-Electron (beta)  Energy = -546.93238183006997
 Total Coulomb        Energy = 411.03302028844246
 Nuclear repulsion Energy = 151.17684590080543
 SCF   energy in the final basis set =     -578.7187989988
 Total energy in the final basis set =     -578.7187989988
 
 --------------------------------------------------------------
 
                    Orbital Energies (a.u.)
 --------------------------------------------------------------
 
 Alpha MOs
 -- Occupied --
******* -10.280 -10.220 -10.191  -9.415  -7.179  -7.170  -7.170
 -0.823  -0.750  -0.700  -0.610  -0.491  -0.471  -0.442  -0.384
 -0.377  -0.370  -0.315  -0.273  -0.272
 -- Virtual --
 -0.080   0.079   0.118   0.125   0.136   0.153   0.168   0.180
  0.206   0.248   0.412   0.450   0.459   0.483   0.503   0.514
  0.559   0.577   0.598   0.644   0.675   0.721   0.748   0.774
  0.831   0.852   0.876   0.887   0.895   0.906   0.911   0.930
  0.957   0.973   0.998   1.090   1.279   1.341   1.391   1.483
  1.516   1.646   1.719   1.791   1.827   1.878   1.971   2.020
  2.039   2.053   2.086   2.094   2.210   2.242   2.260   2.358
  2.376   2.404   2.500   2.595   2.629   2.685   2.752   2.788
  2.839   2.869   2.894   3.175   3.231   3.270   3.377   3.417
  3.475   3.512   4.245   4.276   4.427   4.605
 
 Beta MOs
 -- Occupied --
******* -10.280 -10.220 -10.191  -9.415  -7.179  -7.170  -7.170
 -0.823  -0.750  -0.700  -0.610  -0.491  -0.471  -0.442  -0.384
 -0.377  -0.370  -0.315  -0.273  -0.272
 -- Virtual --
 -0.080   0.079   0.118   0.125   0.136   0.153   0.168   0.180
  0.206   0.248   0.412   0.450   0.459   0.483   0.503   0.514
  0.559   0.577   0.598   0.644   0.675   0.721   0.748   0.774
  0.831   0.852   0.876   0.887   0.895   0.906   0.911   0.930
  0.957   0.973   0.998   1.090   1.279   1.341   1.391   1.483
  1.516   1.646   1.719   1.791   1.827   1.878   1.971   2.020
  2.039   2.053   2.086   2.094   2.210   2.242   2.260   2.358
  2.376   2.404   2.500   2.595   2.629   2.685   2.752   2.788
  2.839   2.869   2.894   3.175   3.231   3.270   3.377   3.417
  3.475   3.512   4.245   4.276   4.427   4.605
 --------------------------------------------------------------
 
          Ground-State Mulliken Net Atomic Charges

     Atom                 Charge (a.u.)    Spin (a.u.)
  --------------------------------------------------------
      1 Cl                   -0.323931      -0.000000
      2 C                    -0.191367       0.000000
      3 C                    -0.158332       0.000000
      4 C                    -0.320635       0.000000
      5 H                     0.145936       0.000000
      6 H                     0.127838      -0.000000
      7 H                     0.173741      -0.000000
      8 H                     0.174072      -0.000000
      9 H                     0.107947      -0.000000
     10 H                     0.111933      -0.000000
     11 H                     0.152796      -0.000000
  --------------------------------------------------------
  Sum of atomic charges =    -0.000000
  Sum of spin   charges =    -0.000000

 -----------------------------------------------------------------
                    Cartesian Multipole Moments
 -----------------------------------------------------------------
    Charge (ESU x 10^10)
                 0.0000
    Dipole Moment (Debye)
         X      -3.1507      Y       2.6848      Z       0.8247
       Tot       4.2209
    Quadrupole Moments (Debye-Ang)
        XX     -38.2775     XY       2.8790     YY     -31.9498
        XZ       1.2578     YZ       0.1486     ZZ     -32.4487
    Octopole Moments (Debye-Ang^2)
       XXX     -48.5338    XXY       9.7114    XYY     -11.3502
       YYY      20.4204    XXZ       2.8124    XYZ       0.2140
       YYZ       1.9178    XZZ     -12.7801    YZZ       6.8820
       ZZZ       8.7672
    Hexadecapole Moments (Debye-Ang^3)
      XXXX    -515.6508   XXXY      40.0079   XXYY    -107.8481
      XYYY      37.5668   YYYY    -166.1981   XXXZ      21.3107
      XXYZ      -0.9366   XYYZ       4.9733   YYYZ      -6.7911
      XXZZ     -96.4248   XYZZ      13.1006   YYZZ     -41.6379
      XZZZ      20.4770   YZZZ      -7.6063   ZZZZ     -68.7300
 -----------------------------------------------------------------
 Calculating analytic gradient of the SCF energy
 Gradient of SCF Energy
            1           2           3           4           5           6
    1   0.0294668   0.0000098  -0.0294748  -0.0000324   0.0000099   0.0000489
    2  -0.0336153  -0.0000018   0.0335753   0.0000427  -0.0000273   0.0000317
    3  -0.0125963  -0.0000280   0.0126377   0.0000288  -0.0000066  -0.0000299
            7           8           9          10          11
    1   0.0000180   0.0000286  -0.0000486  -0.0000007  -0.0000255
    2  -0.0000552  -0.0000277   0.0000528   0.0000234   0.0000014
    3  -0.0000067   0.0000097  -0.0000094  -0.0000354   0.0000362
 Max gradient component =       3.362E-02
 RMS gradient           =       1.143E-02
 Gradient time:  CPU 8.07 s  wall 0.88 s
 Geometry Optimization Parameters
   NAtoms,    NIC,     NZ,  NCons,   NDum,   NFix, NCnnct, MaxDiis
       11      68       0       1       0       0       0       0


** CONSTRAINED OPTIMIZATION IN DELOCALIZED INTERNAL COORDINATES **
   Searching for a Minimum

   Optimization Cycle:   1

                       Coordinates (Angstroms)
     ATOM                X               Y               Z
      1  Cl        1.9454290000   -0.8004200000   -0.2928010000
      2  C        -0.8256850000    0.5840150000   -0.3167640000
      3  C         0.4849950000    0.8626080000    0.3328730000
      4  C        -1.5373380000   -0.6785370000    0.1699170000
      5  H        -0.7040010000    0.5794840000   -1.4045000000
      6  H        -1.4398190000    1.4749060000   -0.0873580000
      7  H         0.5671830000    0.7035530000    1.4042760000
      8  H         1.0749370000    1.6899090000   -0.0478990000
      9  H        -1.6955080000   -0.6518220000    1.2533290000
     10  H        -2.5144690000   -0.7793600000   -0.3107320000
     11  H        -0.9401200000   -1.5627360000   -0.0656380000
   Point Group: c1    Number of degrees of freedom:    27


   Energy is   -578.718798999

              Constraints and their Current Values
                                        Value     Constraint
   Distance(Angs):        1   3             2.299999     2.400000

 Attempting to Generate Delocalized Internal Coordinates

   Using Lagrange Multiplier Algorithm


 28 Hessian modes will be used to form the next step
  Hessian Eigenvalues:
    -0.962258    0.045000    0.045000    0.066145    0.070931    0.077821
     0.083101    0.083633    0.086188    0.106963    0.134584    0.160000
     0.160000    0.160000    0.160000    0.160000    0.219556    0.220704
     0.295310    0.330156    0.335444    0.342160    0.342943    0.343992
     0.345040    0.352486    0.353849    1.039222

 Minimum Search - Taking P-RFO Step
 Searching for Lamda that Maximizes Along the Constraint modes Only
 Value Taken    Lamda =   0.02860566
 Searching for Lamda that Minimizes Along All other modes
 Value Taken    Lamda =  -0.00908312
 Step Taken.  Stepsize is  0.184891

                             Maximum     Tolerance    Cnvgd?
         Gradient            0.188974       0.000300      NO
         Displacement        0.184885       0.001200      NO
         Energy change     *********       0.000001      NO


 New Cartesian Coordinates Obtained by Inverse Iteration

 Displacement from previous Coordinates is:  0.170778
 ----------------------------------------------------------------
             Standard Nuclear Orientation (Angstroms)
    I     Atom           X                Y                Z
 ----------------------------------------------------------------
    1      Cl      2.0063037720    -0.8553686453    -0.3114624688
    2      C      -0.8324197328     0.5890731806    -0.3151086682
    3      C       0.4759427993     0.8730119057     0.3368550663
    4      C      -1.5400183795    -0.6761273789     0.1705921953
    5      H      -0.7087074985     0.5846893394    -1.4026210746
    6      H      -1.4504571540     1.4776205661    -0.0871020934
    7      H       0.5565874278     0.7150104952     1.4085354105
    8      H       1.0634222109     1.7023701763    -0.0432540081
    9      H      -1.7000487470    -0.6498918020     1.2537468807
   10      H      -2.5159925782    -0.7807586818    -0.3115949253
   11      H      -0.9390081199    -1.5580291552    -0.0638833144
 ----------------------------------------------------------------
 Nuclear Repulsion Energy =   149.0039279471 hartrees
 There are       21 alpha and       21 beta electrons

                       Distance Matrix (Angstroms)
             Cl(  1)   C (  2)   C (  3)   C (  4)   H (  5)   H (  6)
   C (  2)  3.185087
   C (  3)  2.397836  1.489124
   C (  4)  3.583421  1.528834  2.547857
   H (  5)  3.261239  1.094535  2.124218  2.180765
   H (  6)  4.176407  1.106107  2.063082  2.170958  1.754454
   H (  7)  2.743385  2.217239  1.086263  2.804198  3.085540  2.616626
   H (  8)  2.739159  2.215299  1.085104  3.532829  2.497505  2.524287
   H (  9)  4.028542  2.179248  2.809780  1.095227  3.092449  2.527149
   H ( 10)  4.522912  2.170454  3.479529  1.093608  2.514173  2.507198
   H ( 11)  3.038073  2.164376  2.841239  1.092677  2.537026  3.078520
             H (  7)   H (  8)   H (  9)   H ( 10)
   H (  8)  1.827417
   H (  9)  2.641841  3.853845
   H ( 10)  3.825823  4.364647  1.770081
   H ( 11)  3.093789  3.826272  1.772017  1.775497
 
 Applying Cartesian multipole field
    Component          Value
    ---------          -----
     (2,0,0)        1.00000E-11
     (0,2,0)        2.00000E-11
     (0,0,2)       -3.00000E-10
 Nucleus-field energy     =    -0.0000000035 hartrees
 Requested basis set is 6-31G(d,p)
 There are 38 shells and 99 basis functions
 A cutoff of  1.0D-14 yielded    719 shell pairs
 There are      4994 function pairs
 Smallest overlap matrix eigenvalue = 5.98E-03
 Guess from superposition of atomic densities
 Warning:  Energy on first SCF cycle will be non-variational
 SAD guess density has 42.000000 electrons

 -----------------------------------------------------------------------
  General SCF calculation program by
  Eric Jon Sundstrom, Paul Horn, Yuezhi Mao, Dmitri Zuev, Alec White,
  David Stuck, Shaama M.S., Shane Yost, Joonho Lee, David Small,
  Daniel Levine, Susi Lehtola, Hugh Burton, Evgeny Epifanovsky
 -----------------------------------------------------------------------
 Exchange:     0.2000 Hartree-Fock + 0.0800 Slater + 0.7200 B88
 Correlation:  0.1900 VWN1RPA + 0.8100 LYP
 Using SG-1 standard quadrature grid
 using 12 threads for integral computing
 -------------------------------------------------------
 OpenMP Integral computing Module                
 Release: version 1.0, May 2013, Q-Chem Inc. Pittsburgh 
 -------------------------------------------------------
 -------------------------------------------------------
 OpenMP BLAS3 based DFT computing Module                
 Release: version 1.0, May 2013, Q-Chem Inc. Pittsburgh 
 -------------------------------------------------------
 A unrestricted SCF calculation will be
 performed using DIIS
 SCF converges when DIIS error is below 1.0e-06
 Alpha HF Exchange    Energy =  -4.54992311627701
 Beta HF Exchange     Energy =  -4.54992311627701
 DFT Correlation      Energy =  -1.89413114532599
 DFT Exchange         Energy = -35.71461793490390
 One-Electron (alpha) Energy = -542.89431075158927
 One-Electron (beta)  Energy = -542.89431075158927
 Total Coulomb        Energy = 404.58887576035931
 ---------------------------------------
  Cycle       Energy         DIIS error
 ---------------------------------------
    1    -578.9044131120      2.88e-02  
 Alpha HF Exchange    Energy =  -4.57558229779958
 Beta HF Exchange     Energy =  -4.57558229779958
 DFT Correlation      Energy =  -1.92055712966877
 DFT Exchange         Energy = -36.30255151935187
 One-Electron (alpha) Energy = -546.67435901947442
 One-Electron (beta)  Energy = -546.67435901947465
 Total Coulomb        Energy = 413.08573793401331
    2    -578.6333254059      3.62e-03  
 Alpha HF Exchange    Energy =  -4.51389654198220
 Beta HF Exchange     Energy =  -4.51389654198220
 DFT Correlation      Energy =  -1.89790920208338
 DFT Exchange         Energy = -35.81573422955392
 One-Electron (alpha) Energy = -542.56416705889035
 One-Electron (beta)  Energy = -542.56416705889046
 Total Coulomb        Energy = 404.28427742631612
    3    -578.5815652634      4.72e-03  
 Alpha HF Exchange    Energy =  -4.54363150949761
 Beta HF Exchange     Energy =  -4.54363150949761
 DFT Correlation      Energy =  -1.90714572646711
 DFT Exchange         Energy = -36.03745062059910
 One-Electron (alpha) Energy = -544.70747208435751
 One-Electron (beta)  Energy = -544.70747208435728
 Total Coulomb        Energy = 408.74437310291563
    4    -578.6985024882      1.36e-03  
 Alpha HF Exchange    Energy =  -4.54375662366782
 Beta HF Exchange     Energy =  -4.54375662366782
 DFT Correlation      Energy =  -1.90909972199171
 DFT Exchange         Energy = -36.05011700640408
 One-Electron (alpha) Energy = -544.73622923565449
 One-Electron (beta)  Energy = -544.73622923565438
 Total Coulomb        Energy = 408.80577601158217
    5    -578.7094844918      3.05e-04  
 Alpha HF Exchange    Energy =  -4.54456884900927
 Beta HF Exchange     Energy =  -4.54456884900927
 DFT Correlation      Energy =  -1.90899095222271
 DFT Exchange         Energy = -36.05474935437405
 One-Electron (alpha) Energy = -544.77682849988253
 One-Electron (beta)  Energy = -544.77682849988241
 Total Coulomb        Energy = 408.89255535917869
    6    -578.7100517016      6.20e-05  
 Alpha HF Exchange    Energy =  -4.54427097086544
 Beta HF Exchange     Energy =  -4.54427097086544
 DFT Correlation      Energy =  -1.90891724114555
 DFT Exchange         Energy = -36.05234454990533
 One-Electron (alpha) Energy = -544.75595592604043
 One-Electron (beta)  Energy = -544.75595592604031
 Total Coulomb        Energy = 408.84771699092687
    7    -578.7100706503      1.46e-05  
 Alpha HF Exchange    Energy =  -4.54433897556894
 Beta HF Exchange     Energy =  -4.54433897556894
 DFT Correlation      Energy =  -1.90893713571113
 DFT Exchange         Energy = -36.05286669160320
 One-Electron (alpha) Energy = -544.76231733304223
 One-Electron (beta)  Energy = -544.76231733304212
 Total Coulomb        Energy = 408.86111667060931
    8    -578.7100718303      2.22e-06  
 Alpha HF Exchange    Energy =  -4.54433912530604
 Beta HF Exchange     Energy =  -4.54433912530604
 DFT Correlation      Energy =  -1.90893726693494
 DFT Exchange         Energy = -36.05286565376117
 One-Electron (alpha) Energy = -544.76214734888629
 One-Electron (beta)  Energy = -544.76214734888651
 Total Coulomb        Energy = 408.86077607053255
    9    -578.7100718549      6.88e-07  Convergence criterion met
 ---------------------------------------
 SCF time:   CPU 21.16s  wall 2.00s 
<S^2> =          0.000000000
 Alpha HF Exchange    Energy =  -4.54433912530604
 Beta HF Exchange     Energy =  -4.54433912530604
 DFT Correlation      Energy =  -1.90893726693494
 DFT Exchange         Energy = -36.05286565376117
 One-Electron (alpha) Energy = -544.76214734888629
 One-Electron (beta)  Energy = -544.76214734888651
 Total Coulomb        Energy = 408.86077607053255
 Nuclear repulsion Energy = 149.00392794363086
 SCF   energy in the final basis set =     -578.7100718549
 Total energy in the final basis set =     -578.7100718549
 
 --------------------------------------------------------------
 
                    Orbital Energies (a.u.)
 --------------------------------------------------------------
 
 Alpha MOs
 -- Occupied --
******* -10.286 -10.224 -10.193  -9.411  -7.175  -7.166  -7.166
 -0.824  -0.744  -0.704  -0.613  -0.494  -0.473  -0.445  -0.387
 -0.379  -0.372  -0.307  -0.269  -0.268
 -- Virtual --
 -0.095   0.077   0.116   0.123   0.134   0.151   0.167   0.179
  0.204   0.246   0.412   0.448   0.457   0.484   0.503   0.513
  0.560   0.578   0.599   0.640   0.669   0.721   0.751   0.770
  0.830   0.851   0.875   0.885   0.893   0.900   0.914   0.932
  0.953   0.968   0.985   1.084   1.273   1.332   1.361   1.478
  1.510   1.643   1.714   1.784   1.824   1.874   1.967   2.015
  2.037   2.050   2.082   2.092   2.207   2.237   2.256   2.354
  2.372   2.400   2.496   2.591   2.625   2.682   2.748   2.785
  2.835   2.867   2.892   3.173   3.227   3.267   3.373   3.414
  3.472   3.509   4.236   4.281   4.416   4.599
 
 Beta MOs
 -- Occupied --
******* -10.286 -10.224 -10.193  -9.411  -7.175  -7.166  -7.166
 -0.824  -0.744  -0.704  -0.613  -0.494  -0.473  -0.445  -0.387
 -0.379  -0.372  -0.307  -0.269  -0.268
 -- Virtual --
 -0.095   0.077   0.116   0.123   0.134   0.151   0.167   0.179
  0.204   0.246   0.412   0.448   0.457   0.484   0.503   0.513
  0.560   0.578   0.599   0.640   0.669   0.721   0.751   0.770
  0.830   0.851   0.875   0.885   0.893   0.900   0.914   0.932
  0.953   0.968   0.985   1.084   1.273   1.332   1.361   1.478
  1.510   1.643   1.714   1.784   1.824   1.874   1.967   2.015
  2.037   2.050   2.082   2.092   2.207   2.237   2.256   2.354
  2.372   2.400   2.496   2.591   2.625   2.682   2.748   2.785
  2.835   2.867   2.892   3.173   3.227   3.267   3.373   3.414
  3.472   3.509   4.236   4.281   4.416   4.599
 --------------------------------------------------------------
 
          Ground-State Mulliken Net Atomic Charges

     Atom                 Charge (a.u.)    Spin (a.u.)
  --------------------------------------------------------
      1 Cl                   -0.352944       0.000000
      2 C                    -0.198080      -0.000000
      3 C                    -0.135064       0.000000
      4 C                    -0.321427      -0.000000
      5 H                     0.149822       0.000000
      6 H                     0.132054       0.000000
      7 H                     0.173942       0.000000
      8 H                     0.174281      -0.000000
      9 H                     0.108679       0.000000
     10 H                     0.112840       0.000000
     11 H                     0.155896      -0.000000
  --------------------------------------------------------
  Sum of atomic charges =    -0.000000
  Sum of spin   charges =     0.000000

 -----------------------------------------------------------------
                    Cartesian Multipole Moments
 -----------------------------------------------------------------
    Charge (ESU x 10^10)
                 0.0000
    Dipole Moment (Debye)
         X      -3.4654      Y       2.9278      Z       0.8941
       Tot       4.6239
    Quadrupole Moments (Debye-Ang)
        XX     -38.8981     XY       3.2210     YY     -31.9642
        XZ       1.3989     YZ       0.1275     ZZ     -32.4446
    Octopole Moments (Debye-Ang^2)
       XXX     -52.8210    XXY      11.1680    XYY     -12.5861
       YYY      22.9124    XXZ       3.2789    XYZ       0.1436
       YYZ       2.2590    XZZ     -13.7135    YZZ       7.6700
       ZZZ       9.4995
    Hexadecapole Moments (Debye-Ang^3)
      XXXX    -539.8410   XXXY      48.1981   XXYY    -113.0206
      XYYY      44.7898   YYYY    -173.8319   XXXZ      24.1680
      XXYZ      -1.5801   XYYZ       5.8570   YYYZ      -8.1843
      XXZZ    -100.2001   XYZZ      15.4747   YYZZ     -43.1025
      XZZZ      22.9004   YZZZ      -8.9980   ZZZZ     -69.5267
 -----------------------------------------------------------------
 Calculating analytic gradient of the SCF energy
 Gradient of SCF Energy
            1           2           3           4           5           6
    1   0.0304922  -0.0030100  -0.0242418   0.0002408   0.0000915  -0.0002886
    2  -0.0344013   0.0025426   0.0292252   0.0001606  -0.0002671  -0.0006185
    3  -0.0129332   0.0002791   0.0117493  -0.0001823   0.0000518  -0.0003564
            7           8           9          10          11
    1  -0.0014127  -0.0016160  -0.0000486  -0.0000194  -0.0001874
    2   0.0018886   0.0015033   0.0000696  -0.0000265  -0.0000766
    3   0.0003684   0.0009608   0.0000206  -0.0000442   0.0000861
 Max gradient component =       3.440E-02
 RMS gradient           =       1.085E-02
 Gradient time:  CPU 7.99 s  wall 0.84 s
 Geometry Optimization Parameters
   NAtoms,    NIC,     NZ,  NCons,   NDum,   NFix, NCnnct, MaxDiis
       11      68       0       1       0       0       0       0

 Cartesian Hessian Update
 Hessian Updated using BFGS Update


** CONSTRAINED OPTIMIZATION IN DELOCALIZED INTERNAL COORDINATES **
   Searching for a Minimum

   Optimization Cycle:   2

                       Coordinates (Angstroms)
     ATOM                X               Y               Z
      1  Cl        2.0063037720   -0.8553686453   -0.3114624688
      2  C        -0.8324197328    0.5890731806   -0.3151086682
      3  C         0.4759427993    0.8730119057    0.3368550663
      4  C        -1.5400183795   -0.6761273789    0.1705921953
      5  H        -0.7087074985    0.5846893394   -1.4026210746
      6  H        -1.4504571540    1.4776205661   -0.0871020934
      7  H         0.5565874278    0.7150104952    1.4085354105
      8  H         1.0634222109    1.7023701763   -0.0432540081
      9  H        -1.7000487470   -0.6498918020    1.2537468807
     10  H        -2.5159925782   -0.7807586818   -0.3115949253
     11  H        -0.9390081199   -1.5580291552   -0.0638833144
   Point Group: c1    Number of degrees of freedom:    27


   Energy is   -578.710071855

              Constraints and their Current Values
                                        Value     Constraint
   Distance(Angs):        1   3             2.397836     2.400000
 Hessian Updated using BFGS Update

   Using Lagrange Multiplier Algorithm


 25 Hessian modes will be used to form the next step
  Hessian Eigenvalues:
    -0.996738    0.045000    0.045011    0.066212    0.077818    0.083095
     0.083633    0.086155    0.099964    0.113124    0.136418    0.160000
     0.173479    0.219700    0.224089    0.295333    0.330273    0.342159
     0.342940    0.343991    0.345038    0.352484    0.353834    0.370492
     1.003957

 Minimum Search - Taking P-RFO Step
 Searching for Lamda that Maximizes Along the Constraint modes Only
 Value Taken    Lamda =   0.00001894
 Searching for Lamda that Minimizes Along All other modes
 Value Taken    Lamda =  -0.00021641
 Step Taken.  Stepsize is  0.027792

                             Maximum     Tolerance    Cnvgd?
         Gradient            0.010163       0.000300      NO
         Displacement        0.022332       0.001200      NO
         Energy change      0.008727       0.000001      NO


 New Cartesian Coordinates Obtained by Inverse Iteration

 Displacement from previous Coordinates is:  0.019958
 ----------------------------------------------------------------
             Standard Nuclear Orientation (Angstroms)
    I     Atom           X                Y                Z
 ----------------------------------------------------------------
    1      Cl      1.9998496331    -0.8562396680    -0.3110837388
    2      C      -0.8326165835     0.5894593257    -0.3149522603
    3      C       0.4719106103     0.8769805803     0.3380278517
    4      C      -1.5389940936    -0.6765523114     0.1706731940
    5      H      -0.7077503360     0.5853213293    -1.4023745063
    6      H      -1.4505243469     1.4786566861    -0.0873665746
    7      H       0.5580121335     0.7136870527     1.4085122799
    8      H       1.0658960705     1.7005761065    -0.0446189293
    9      H      -1.6997596052    -0.6506140314     1.2537027295
   10      H      -2.5144664688    -0.7825362241    -0.3121928328
   11      H      -0.9359530134    -1.5571388457    -0.0636242132
 ----------------------------------------------------------------
 Nuclear Repulsion Energy =   149.0988972385 hartrees
 There are       21 alpha and       21 beta electrons

                       Distance Matrix (Angstroms)
             Cl(  1)   C (  2)   C (  3)   C (  4)   H (  5)   H (  6)
   C (  2)  3.180083
   C (  3)  2.399999  1.486890
   C (  4)  3.576002  1.528917  2.546607
   H (  5)  3.255781  1.094576  2.122655  2.181231
   H (  6)  4.172154  1.106471  2.058818  2.172404  1.754710
   H (  7)  2.738718  2.218020  1.086285  2.804005  3.085404  2.618597
   H (  8)  2.735065  2.216306  1.085148  3.533064  2.496621  2.526548
   H (  9)  4.022182  2.179541  2.808586  1.095204  3.092954  2.528711
   H ( 10)  4.514918  2.170483  3.477820  1.093590  2.514707  2.509086
   H ( 11)  3.028437  2.163730  2.840483  1.092697  2.536625  3.079189
             H (  7)   H (  8)   H (  9)   H ( 10)
   H (  8)  1.828520
   H (  9)  2.642502  3.855202
   H ( 10)  3.826178  4.365368  1.770079
   H ( 11)  3.091241  3.823672  1.772156  1.775810
 
 Applying Cartesian multipole field
    Component          Value
    ---------          -----
     (2,0,0)        1.00000E-11
     (0,2,0)        2.00000E-11
     (0,0,2)       -3.00000E-10
 Nucleus-field energy     =    -0.0000000035 hartrees
 Requested basis set is 6-31G(d,p)
 There are 38 shells and 99 basis functions
 A cutoff of  1.0D-14 yielded    719 shell pairs
 There are      4994 function pairs
 Smallest overlap matrix eigenvalue = 5.97E-03
 Guess from superposition of atomic densities
 Warning:  Energy on first SCF cycle will be non-variational
 SAD guess density has 42.000000 electrons

 -----------------------------------------------------------------------
  General SCF calculation program by
  Eric Jon Sundstrom, Paul Horn, Yuezhi Mao, Dmitri Zuev, Alec White,
  David Stuck, Shaama M.S., Shane Yost, Joonho Lee, David Small,
  Daniel Levine, Susi Lehtola, Hugh Burton, Evgeny Epifanovsky
 -----------------------------------------------------------------------
 Exchange:     0.2000 Hartree-Fock + 0.0800 Slater + 0.7200 B88
 Correlation:  0.1900 VWN1RPA + 0.8100 LYP
 Using SG-1 standard quadrature grid
 using 12 threads for integral computing
 -------------------------------------------------------
 OpenMP Integral computing Module                
 Release: version 1.0, May 2013, Q-Chem Inc. Pittsburgh 
 -------------------------------------------------------
 -------------------------------------------------------
 OpenMP BLAS3 based DFT computing Module                
 Release: version 1.0, May 2013, Q-Chem Inc. Pittsburgh 
 -------------------------------------------------------
 A unrestricted SCF calculation will be
 performed using DIIS
 SCF converges when DIIS error is below 1.0e-06
 Alpha HF Exchange    Energy =  -4.55011544105667
 Beta HF Exchange     Energy =  -4.55011544105667
 DFT Correlation      Energy =  -1.89419299488383
 DFT Exchange         Energy = -35.71498831399694
 One-Electron (alpha) Energy = -542.98852582714642
 One-Electron (beta)  Energy = -542.98852582714642
 Total Coulomb        Energy = 404.68126499308869
 ---------------------------------------
  Cycle       Energy         DIIS error
 ---------------------------------------
    1    -578.9063016171      2.88e-02  
 Alpha HF Exchange    Energy =  -4.57574542995938
 Beta HF Exchange     Energy =  -4.57574542995938
 DFT Correlation      Energy =  -1.92063188661383
 DFT Exchange         Energy = -36.30362214500621
 One-Electron (alpha) Energy = -546.77866711874412
 One-Electron (beta)  Energy = -546.77866711874390
 Total Coulomb        Energy = 413.20125778321864
    2    -578.6329241107      3.63e-03  
 Alpha HF Exchange    Energy =  -4.51383563114881
 Beta HF Exchange     Energy =  -4.51383563114881
 DFT Correlation      Energy =  -1.89796779226965
 DFT Exchange         Energy = -35.81548570274714
 One-Electron (alpha) Energy = -542.64606267850115
 One-Electron (beta)  Energy = -542.64606267850115
 Total Coulomb        Energy = 404.35491764823962
    3    -578.5794352310      4.75e-03  
 Alpha HF Exchange    Energy =  -4.54367938075141
 Beta HF Exchange     Energy =  -4.54367938075141
 DFT Correlation      Energy =  -1.90717374050148
 DFT Exchange         Energy = -36.03761630743497
 One-Electron (alpha) Energy = -544.80253351729880
 One-Electron (beta)  Energy = -544.80253351729891
 Total Coulomb        Energy = 408.84023178519578
    4    -578.6980868238      1.38e-03  
 Alpha HF Exchange    Energy =  -4.54382027227655
 Beta HF Exchange     Energy =  -4.54382027227655
 DFT Correlation      Energy =  -1.90916343971216
 DFT Exchange         Energy = -36.05060977024707
 One-Electron (alpha) Energy = -544.83283297335640
 One-Electron (beta)  Energy = -544.83283297335663
 Total Coulomb        Energy = 408.90479512009455
    5    -578.7093873461      3.04e-04  
 Alpha HF Exchange    Energy =  -4.54463931981950
 Beta HF Exchange     Energy =  -4.54463931981952
 DFT Correlation      Energy =  -1.90905649726870
 DFT Exchange         Energy = -36.05529259332103
 One-Electron (alpha) Energy = -544.87375759760823
 One-Electron (beta)  Energy = -544.87375759760903
 Total Coulomb        Energy = 408.99229220620424
    6    -578.7099534842      6.24e-05  
 Alpha HF Exchange    Energy =  -4.54434162135674
 Beta HF Exchange     Energy =  -4.54434162135675
 DFT Correlation      Energy =  -1.90898271010417
 DFT Exchange         Energy = -36.05288691619334
 One-Electron (alpha) Energy = -544.85292470262675
 One-Electron (beta)  Energy = -544.85292470262732
 Total Coulomb        Energy = 408.94753242337100
    7    -578.7099726158      1.47e-05  
 Alpha HF Exchange    Energy =  -4.54440983155514
 Beta HF Exchange     Energy =  -4.54440983155514
 DFT Correlation      Energy =  -1.90900260213872
 DFT Exchange         Energy = -36.05340987926969
 One-Electron (alpha) Energy = -544.85931029928520
 One-Electron (beta)  Energy = -544.85931029928543
 Total Coulomb        Energy = 408.96098169629948
    8    -578.7099738117      2.20e-06  
 Alpha HF Exchange    Energy =  -4.54441004462875
 Beta HF Exchange     Energy =  -4.54441004462875
 DFT Correlation      Energy =  -1.90900272648570
 DFT Exchange         Energy = -36.05340910811920
 One-Electron (alpha) Energy = -544.85914296259023
 One-Electron (beta)  Energy = -544.85914296259011
 Total Coulomb        Energy = 408.96064677790577
    9    -578.7099738361      6.84e-07  Convergence criterion met
 ---------------------------------------
 SCF time:   CPU 21.67s  wall 2.00s 
<S^2> =          0.000000000
 Alpha HF Exchange    Energy =  -4.54441004462875
 Beta HF Exchange     Energy =  -4.54441004462875
 DFT Correlation      Energy =  -1.90900272648570
 DFT Exchange         Energy = -36.05340910811920
 One-Electron (alpha) Energy = -544.85914296259023
 One-Electron (beta)  Energy = -544.85914296259011
 Total Coulomb        Energy = 408.96064677790577
 Nuclear repulsion Energy = 149.09889723505933
 SCF   energy in the final basis set =     -578.7099738361
 Total energy in the final basis set =     -578.7099738361
 
 --------------------------------------------------------------
 
                    Orbital Energies (a.u.)
 --------------------------------------------------------------
 
 Alpha MOs
 -- Occupied --
******* -10.286 -10.224 -10.193  -9.411  -7.174  -7.166  -7.165
 -0.825  -0.743  -0.704  -0.614  -0.494  -0.473  -0.445  -0.387
 -0.379  -0.372  -0.306  -0.268  -0.267
 -- Virtual --
 -0.095   0.077   0.116   0.123   0.134   0.151   0.166   0.179
  0.204   0.246   0.413   0.448   0.457   0.484   0.503   0.513
  0.560   0.579   0.599   0.640   0.669   0.722   0.751   0.770
  0.829   0.851   0.875   0.885   0.892   0.900   0.914   0.933
  0.953   0.969   0.986   1.084   1.273   1.333   1.362   1.475
  1.509   1.642   1.714   1.784   1.825   1.874   1.967   2.014
  2.037   2.050   2.082   2.092   2.207   2.237   2.256   2.353
  2.373   2.400   2.496   2.589   2.627   2.682   2.747   2.785
  2.835   2.866   2.892   3.173   3.227   3.266   3.375   3.414
  3.472   3.509   4.237   4.281   4.416   4.599
 
 Beta MOs
 -- Occupied --
******* -10.286 -10.224 -10.193  -9.411  -7.174  -7.166  -7.165
 -0.825  -0.743  -0.704  -0.614  -0.494  -0.473  -0.445  -0.387
 -0.379  -0.372  -0.306  -0.268  -0.267
 -- Virtual --
 -0.095   0.077   0.116   0.123   0.134   0.151   0.166   0.179
  0.204   0.246   0.413   0.448   0.457   0.484   0.503   0.513
  0.560   0.579   0.599   0.640   0.669   0.722   0.751   0.770
  0.829   0.851   0.875   0.885   0.892   0.900   0.914   0.933
  0.953   0.969   0.986   1.084   1.273   1.333   1.362   1.475
  1.509   1.642   1.714   1.784   1.825   1.874   1.967   2.014
  2.037   2.050   2.082   2.092   2.207   2.237   2.256   2.353
  2.373   2.400   2.496   2.589   2.627   2.682   2.747   2.785
  2.835   2.866   2.892   3.173   3.227   3.266   3.375   3.414
  3.472   3.509   4.237   4.281   4.416   4.599
 --------------------------------------------------------------
 
          Ground-State Mulliken Net Atomic Charges

     Atom                 Charge (a.u.)    Spin (a.u.)
  --------------------------------------------------------
      1 Cl                   -0.355624       0.000000
      2 C                    -0.197826      -0.000000
      3 C                    -0.134931       0.000000
      4 C                    -0.321493       0.000000
      5 H                     0.150228       0.000000
      6 H                     0.132090       0.000000
      7 H                     0.174611      -0.000000
      8 H                     0.174922       0.000000
      9 H                     0.108753      -0.000000
     10 H                     0.112904      -0.000000
     11 H                     0.156366       0.000000
  --------------------------------------------------------
  Sum of atomic charges =     0.000000
  Sum of spin   charges =    -0.000000

 -----------------------------------------------------------------
                    Cartesian Multipole Moments
 -----------------------------------------------------------------
    Charge (ESU x 10^10)
                 0.0000
    Dipole Moment (Debye)
         X      -3.4749      Y       2.9460      Z       0.8980
       Tot       4.6433
    Quadrupole Moments (Debye-Ang)
        XX     -38.8996     XY       3.2506     YY     -31.9658
        XZ       1.4067     YZ       0.1207     ZZ     -32.4358
    Octopole Moments (Debye-Ang^2)
       XXX     -52.5565    XXY      11.2148    XYY     -12.5213
       YYY      22.9282    XXZ       3.2860    XYZ       0.1346
       YYZ       2.2483    XZZ     -13.6261    YZZ       7.6732
       ZZZ       9.4754
    Hexadecapole Moments (Debye-Ang^3)
      XXXX    -537.6807   XXXY      48.2962   XXYY    -112.7509
      XYYY      44.7409   YYYY    -174.2192   XXXZ      24.1162
      XXYZ      -1.6146   XYYZ       5.8296   YYYZ      -8.2198
      XXZZ     -99.8212   XYZZ      15.4619   YYZZ     -43.1653
      XZZZ      22.8317   YZZZ      -9.0369   ZZZZ     -69.4997
 -----------------------------------------------------------------
 Calculating analytic gradient of the SCF energy
 Gradient of SCF Energy
            1           2           3           4           5           6
    1   0.0300075  -0.0021029  -0.0259028   0.0002358   0.0000946   0.0000124
    2  -0.0341309   0.0019503   0.0301375   0.0000722  -0.0002727  -0.0003891
    3  -0.0128237   0.0003072   0.0116558  -0.0001484  -0.0000029  -0.0002042
            7           8           9          10          11
    1  -0.0009873  -0.0011251  -0.0000638  -0.0000282  -0.0001403
    2   0.0014651   0.0012273   0.0000517  -0.0000230  -0.0000883
    3   0.0003648   0.0007994   0.0000181  -0.0000362   0.0000701
 Max gradient component =       3.413E-02
 RMS gradient           =       1.095E-02
 Gradient time:  CPU 7.98 s  wall 0.86 s
 Geometry Optimization Parameters
   NAtoms,    NIC,     NZ,  NCons,   NDum,   NFix, NCnnct, MaxDiis
       11      68       0       1       0       0       0       0

 Cartesian Hessian Update
 Hessian Updated using BFGS Update


** CONSTRAINED OPTIMIZATION IN DELOCALIZED INTERNAL COORDINATES **
   Searching for a Minimum

   Optimization Cycle:   3

                       Coordinates (Angstroms)
     ATOM                X               Y               Z
      1  Cl        1.9998496331   -0.8562396680   -0.3110837388
      2  C        -0.8326165835    0.5894593257   -0.3149522603
      3  C         0.4719106103    0.8769805803    0.3380278517
      4  C        -1.5389940936   -0.6765523114    0.1706731940
      5  H        -0.7077503360    0.5853213293   -1.4023745063
      6  H        -1.4505243469    1.4786566861   -0.0873665746
      7  H         0.5580121335    0.7136870527    1.4085122799
      8  H         1.0658960705    1.7005761065   -0.0446189293
      9  H        -1.6997596052   -0.6506140314    1.2537027295
     10  H        -2.5144664688   -0.7825362241   -0.3121928328
     11  H        -0.9359530134   -1.5571388457   -0.0636242132
   Point Group: c1    Number of degrees of freedom:    27


   Energy is   -578.709973836

              Constraints and their Current Values
                                        Value     Constraint
   Distance(Angs):        1   3             2.399999     2.400000
 Hessian Updated using BFGS Update

   Using Lagrange Multiplier Algorithm


 26 Hessian modes will be used to form the next step
  Hessian Eigenvalues:
    -0.993600    0.035683    0.045004    0.046115    0.066272    0.078110
     0.083098    0.083634    0.086209    0.108397    0.137177    0.158595
     0.160001    0.160875    0.219352    0.225516    0.295494    0.328645
     0.340726    0.342179    0.343546    0.344059    0.345420    0.352875
     0.355165    1.007387

 Minimum Search - Taking P-RFO Step
 Searching for Lamda that Maximizes Along the Constraint modes Only
 Value Taken    Lamda =   0.00000000
 Searching for Lamda that Minimizes Along All other modes
 Value Taken    Lamda =  -0.00020465
 Step Taken.  Stepsize is  0.073235

                             Maximum     Tolerance    Cnvgd?
         Gradient            0.002250       0.000300      NO
         Displacement        0.059033       0.001200      NO
         Energy change      0.000098       0.000001      NO


 New Cartesian Coordinates Obtained by Inverse Iteration

 Displacement from previous Coordinates is:  0.048955
 ----------------------------------------------------------------
             Standard Nuclear Orientation (Angstroms)
    I     Atom           X                Y                Z
 ----------------------------------------------------------------
    1      Cl      1.9862747710    -0.8527551565    -0.3069973039
    2      C      -0.8330929884     0.5898412372    -0.3146070929
    3      C       0.4639354264     0.8858034921     0.3409965735
    4      C      -1.5374161592    -0.6770782662     0.1709143920
    5      H      -0.7059374172     0.5878609297    -1.4016400539
    6      H      -1.4544017423     1.4786251764    -0.0883761926
    7      H       0.5637197007     0.7070204290     1.4074949519
    8      H       1.0736485879     1.6934317360    -0.0499820631
    9      H      -1.6994191594    -0.6514292102     1.2536705115
   10      H      -2.5117561957    -0.7852074815    -0.3135331074
   11      H      -0.9299508237    -1.5545128859    -0.0632376151
 ----------------------------------------------------------------
 Nuclear Repulsion Energy =   149.3728753164 hartrees
 There are       21 alpha and       21 beta electrons

                       Distance Matrix (Angstroms)
             Cl(  1)   C (  2)   C (  3)   C (  4)   H (  5)   H (  6)
   C (  2)  3.167014
   C (  3)  2.400000  1.483136
   C (  4)  3.560289  1.528688  2.544982
   H (  5)  3.243705  1.094446  2.119942  2.182740
   H (  6)  4.161897  1.107764  2.053245  2.172828  1.754515
   H (  7)  2.719567  2.220462  1.085974  2.803504  3.085039  2.627892
   H (  8)  2.716986  2.218919  1.084840  3.533521  2.493229  2.537450
   H (  9)  4.007562  2.179626  2.806450  1.095109  3.094111  2.529477
   H ( 10)  4.498543  2.169947  3.474972  1.093490  2.516004  2.508711
   H ( 11)  3.009361  2.161209  2.839272  1.092581  2.535995  3.078247
             H (  7)   H (  8)   H (  9)   H ( 10)
   H (  8)  1.832287
   H (  9)  2.644021  3.858470
   H ( 10)  3.827170  4.366719  1.770287
   H ( 11)  3.083608  3.816246  1.772537  1.776679
 
 Applying Cartesian multipole field
    Component          Value
    ---------          -----
     (2,0,0)        1.00000E-11
     (0,2,0)        2.00000E-11
     (0,0,2)       -3.00000E-10
 Nucleus-field energy     =    -0.0000000035 hartrees
 Requested basis set is 6-31G(d,p)
 There are 38 shells and 99 basis functions
 A cutoff of  1.0D-14 yielded    719 shell pairs
 There are      4994 function pairs
 Smallest overlap matrix eigenvalue = 5.94E-03
 Guess from superposition of atomic densities
 Warning:  Energy on first SCF cycle will be non-variational
 SAD guess density has 42.000000 electrons

 -----------------------------------------------------------------------
  General SCF calculation program by
  Eric Jon Sundstrom, Paul Horn, Yuezhi Mao, Dmitri Zuev, Alec White,
  David Stuck, Shaama M.S., Shane Yost, Joonho Lee, David Small,
  Daniel Levine, Susi Lehtola, Hugh Burton, Evgeny Epifanovsky
 -----------------------------------------------------------------------
 Exchange:     0.2000 Hartree-Fock + 0.0800 Slater + 0.7200 B88
 Correlation:  0.1900 VWN1RPA + 0.8100 LYP
 Using SG-1 standard quadrature grid
 using 12 threads for integral computing
 -------------------------------------------------------
 OpenMP Integral computing Module                
 Release: version 1.0, May 2013, Q-Chem Inc. Pittsburgh 
 -------------------------------------------------------
 -------------------------------------------------------
 OpenMP BLAS3 based DFT computing Module                
 Release: version 1.0, May 2013, Q-Chem Inc. Pittsburgh 
 -------------------------------------------------------
 A unrestricted SCF calculation will be
 performed using DIIS
 SCF converges when DIIS error is below 1.0e-06
 Alpha HF Exchange    Energy =  -4.55062391220685
 Beta HF Exchange     Energy =  -4.55062391220685
 DFT Correlation      Energy =  -1.89439045316879
 DFT Exchange         Energy = -35.71597242961597
 One-Electron (alpha) Energy = -543.26071518829121
 One-Electron (beta)  Energy = -543.26071518829121
 Total Coulomb        Energy = 404.94919292647972
 ---------------------------------------
  Cycle       Energy         DIIS error
 ---------------------------------------
    1    -578.9109728444      2.88e-02  
 Alpha HF Exchange    Energy =  -4.57612402711687
 Beta HF Exchange     Energy =  -4.57612402711687
 DFT Correlation      Energy =  -1.92085369537979
 DFT Exchange         Energy = -36.30614090236345
 One-Electron (alpha) Energy = -547.06989055940312
 One-Electron (beta)  Energy = -547.06989055940335
 Total Coulomb        Energy = 413.51357392070184
    2    -578.6325745371      3.64e-03  
 Alpha HF Exchange    Energy =  -4.51383755328519
 Beta HF Exchange     Energy =  -4.51383755328519
 DFT Correlation      Energy =  -1.89815469319592
 DFT Exchange         Energy = -35.81574295034780
 One-Electron (alpha) Energy = -542.89964218041098
 One-Electron (beta)  Energy = -542.89964218041098
 Total Coulomb        Energy = 404.59125774106849
    3    -578.5767240569      4.80e-03  
 Alpha HF Exchange    Energy =  -4.54387100979009
 Beta HF Exchange     Energy =  -4.54387100979009
 DFT Correlation      Energy =  -1.90733148441318
 DFT Exchange         Energy = -36.03869709667526
 One-Electron (alpha) Energy = -545.07863826021298
 One-Electron (beta)  Energy = -545.07863826021344
 Total Coulomb        Energy = 409.12033929388178
    4    -578.6978325143      1.40e-03  
 Alpha HF Exchange    Energy =  -4.54403655425670
 Beta HF Exchange     Energy =  -4.54403655425670
 DFT Correlation      Energy =  -1.90936590798253
 DFT Exchange         Energy = -36.05214275360166
 One-Electron (alpha) Energy = -545.11065574823783
 One-Electron (beta)  Energy = -545.11065574823783
 Total Coulomb        Energy = 409.18851942955399
    5    -578.7094985241      3.04e-04  
 Alpha HF Exchange    Energy =  -4.54486283495512
 Beta HF Exchange     Energy =  -4.54486283495513
 DFT Correlation      Energy =  -1.90926084244905
 DFT Exchange         Energy = -36.05687655298285
 One-Electron (alpha) Energy = -545.15191602356583
 One-Electron (beta)  Energy = -545.15191602356617
 Total Coulomb        Energy = 409.27675934391260
    6    -578.7100604556      6.29e-05  
 Alpha HF Exchange    Energy =  -4.54456628629358
 Beta HF Exchange     Energy =  -4.54456628629358
 DFT Correlation      Energy =  -1.90918742593820
 DFT Exchange         Energy = -36.05447768473361
 One-Electron (alpha) Energy = -545.13122527110818
 One-Electron (beta)  Energy = -545.13122527110829
 Total Coulomb        Energy = 409.23229305642337
    7    -578.7100798561      1.47e-05  
 Alpha HF Exchange    Energy =  -4.54463444019842
 Beta HF Exchange     Energy =  -4.54463444019842
 DFT Correlation      Energy =  -1.90920720555381
 DFT Exchange         Energy = -36.05499905626264
 One-Electron (alpha) Energy = -545.13761500848045
 One-Electron (beta)  Energy = -545.13761500848045
 Total Coulomb        Energy = 409.24574877903990
    8    -578.7100810672      2.19e-06  
 Alpha HF Exchange    Energy =  -4.54463475166806
 Beta HF Exchange     Energy =  -4.54463475166807
 DFT Correlation      Energy =  -1.90920731833544
 DFT Exchange         Energy = -36.05499869711183
 One-Electron (alpha) Energy = -545.13745256306322
 One-Electron (beta)  Energy = -545.13745256306356
 Total Coulomb        Energy = 409.24542424085752
    9    -578.7100810911      6.74e-07  Convergence criterion met
 ---------------------------------------
 SCF time:   CPU 21.30s  wall 1.00s 
<S^2> =         -0.000000000
 Alpha HF Exchange    Energy =  -4.54463475166806
 Beta HF Exchange     Energy =  -4.54463475166807
 DFT Correlation      Energy =  -1.90920731833544
 DFT Exchange         Energy = -36.05499869711183
 One-Electron (alpha) Energy = -545.13745256306322
 One-Electron (beta)  Energy = -545.13745256306356
 Total Coulomb        Energy = 409.24542424085752
 Nuclear repulsion Energy = 149.37287531293597
 SCF   energy in the final basis set =     -578.7100810911
 Total energy in the final basis set =     -578.7100810911
 
 --------------------------------------------------------------
 
                    Orbital Energies (a.u.)
 --------------------------------------------------------------
 
 Alpha MOs
 -- Occupied --
******* -10.286 -10.225 -10.193  -9.409  -7.173  -7.164  -7.164
 -0.826  -0.743  -0.704  -0.614  -0.495  -0.473  -0.446  -0.388
 -0.379  -0.373  -0.305  -0.267  -0.266
 -- Virtual --
 -0.095   0.077   0.115   0.122   0.134   0.152   0.166   0.179
  0.206   0.247   0.413   0.448   0.458   0.484   0.503   0.513
  0.560   0.579   0.599   0.640   0.670   0.724   0.752   0.770
  0.828   0.851   0.874   0.885   0.892   0.901   0.914   0.934
  0.954   0.972   0.988   1.085   1.272   1.337   1.365   1.470
  1.509   1.642   1.713   1.786   1.829   1.876   1.967   2.011
  2.036   2.050   2.082   2.092   2.207   2.237   2.258   2.351
  2.376   2.403   2.495   2.585   2.632   2.682   2.744   2.786
  2.834   2.866   2.893   3.174   3.228   3.265   3.379   3.414
  3.472   3.509   4.238   4.283   4.416   4.600
 
 Beta MOs
 -- Occupied --
******* -10.286 -10.225 -10.193  -9.409  -7.173  -7.164  -7.164
 -0.826  -0.743  -0.704  -0.614  -0.495  -0.473  -0.446  -0.388
 -0.379  -0.373  -0.305  -0.267  -0.266
 -- Virtual --
 -0.095   0.077   0.115   0.122   0.134   0.152   0.166   0.179
  0.206   0.247   0.413   0.448   0.458   0.484   0.503   0.513
  0.560   0.579   0.599   0.640   0.670   0.724   0.752   0.770
  0.828   0.851   0.874   0.885   0.892   0.901   0.914   0.934
  0.954   0.972   0.988   1.085   1.272   1.337   1.365   1.470
  1.509   1.642   1.713   1.786   1.829   1.876   1.967   2.011
  2.036   2.050   2.082   2.092   2.207   2.237   2.258   2.351
  2.376   2.403   2.495   2.585   2.632   2.682   2.744   2.786
  2.834   2.866   2.893   3.174   3.228   3.265   3.379   3.414
  3.472   3.509   4.238   4.283   4.416   4.600
 --------------------------------------------------------------
 
          Ground-State Mulliken Net Atomic Charges

     Atom                 Charge (a.u.)    Spin (a.u.)
  --------------------------------------------------------
      1 Cl                   -0.360492       0.000000
      2 C                    -0.197159      -0.000000
      3 C                    -0.136153      -0.000000
      4 C                    -0.321593       0.000000
      5 H                     0.150859       0.000000
      6 H                     0.131990       0.000000
      7 H                     0.176550       0.000000
      8 H                     0.176844      -0.000000
      9 H                     0.108941      -0.000000
     10 H                     0.113046      -0.000000
     11 H                     0.157167      -0.000000
  --------------------------------------------------------
  Sum of atomic charges =    -0.000000
  Sum of spin   charges =    -0.000000

 -----------------------------------------------------------------
                    Cartesian Multipole Moments
 -----------------------------------------------------------------
    Charge (ESU x 10^10)
                 0.0000
    Dipole Moment (Debye)
         X      -3.4868      Y       2.9699      Z       0.8996
       Tot       4.6677
    Quadrupole Moments (Debye-Ang)
        XX     -38.8796     XY       3.2954     YY     -31.9813
        XZ       1.4130     YZ       0.0998     ZZ     -32.4125
    Octopole Moments (Debye-Ang^2)
       XXX     -51.9678    XXY      11.2225    XYY     -12.3497
       YYY      22.7068    XXZ       3.2350    XYZ       0.1159
       YYZ       2.1617    XZZ     -13.4279    YZZ       7.6020
       ZZZ       9.2921
    Hexadecapole Moments (Debye-Ang^3)
      XXXX    -533.1457   XXXY      47.9894   XXYY    -112.0475
      XYYY      44.2081   YYYY    -174.3324   XXXZ      23.7038
      XXYZ      -1.6264   XYYZ       5.6764   YYYZ      -8.1367
      XXZZ     -99.0112   XYZZ      15.2937   YYZZ     -43.1402
      XZZZ      22.4199   YZZZ      -8.9502   ZZZZ     -69.2784
 -----------------------------------------------------------------
 Calculating analytic gradient of the SCF energy
 Gradient of SCF Energy
            1           2           3           4           5           6
    1   0.0289758   0.0000702  -0.0291519  -0.0000199   0.0000310   0.0001480
    2  -0.0332750  -0.0001335   0.0328868   0.0000604  -0.0001112   0.0001421
    3  -0.0124227  -0.0000172   0.0120700   0.0000042   0.0000068   0.0001096
            7           8           9          10          11
    1   0.0000347  -0.0000048  -0.0000738  -0.0000233   0.0000138
    2   0.0001247   0.0001411   0.0000374   0.0000324   0.0000948
    3   0.0000721   0.0002007   0.0000003  -0.0000240   0.0000002
 Max gradient component =       3.327E-02
 RMS gradient           =       1.125E-02
 Gradient time:  CPU 8.05 s  wall 0.87 s
 Geometry Optimization Parameters
   NAtoms,    NIC,     NZ,  NCons,   NDum,   NFix, NCnnct, MaxDiis
       11      68       0       1       0       0       0       0

 Cartesian Hessian Update
 Hessian Updated using BFGS Update


** CONSTRAINED OPTIMIZATION IN DELOCALIZED INTERNAL COORDINATES **
   Searching for a Minimum

   Optimization Cycle:   4

                       Coordinates (Angstroms)
     ATOM                X               Y               Z
      1  Cl        1.9862747710   -0.8527551565   -0.3069973039
      2  C        -0.8330929884    0.5898412372   -0.3146070929
      3  C         0.4639354264    0.8858034921    0.3409965735
      4  C        -1.5374161592   -0.6770782662    0.1709143920
      5  H        -0.7059374172    0.5878609297   -1.4016400539
      6  H        -1.4544017423    1.4786251764   -0.0883761926
      7  H         0.5637197007    0.7070204290    1.4074949519
      8  H         1.0736485879    1.6934317360   -0.0499820631
      9  H        -1.6994191594   -0.6514292102    1.2536705115
     10  H        -2.5117561957   -0.7852074815   -0.3135331074
     11  H        -0.9299508237   -1.5545128859   -0.0632376151
   Point Group: c1    Number of degrees of freedom:    27


   Energy is   -578.710081091

              Constraints and their Current Values
                                        Value     Constraint
   Distance(Angs):        1   3             2.400000     2.400000
 Hessian Updated using BFGS Update

 25 Hessian modes will be used to form the next step
  Hessian Eigenvalues:
     0.032387    0.045004    0.046572    0.066259    0.078202    0.083109
     0.083636    0.086216    0.108620    0.137421    0.159679    0.160000
     0.160206    0.161348    0.219508    0.226944    0.295593    0.329386
     0.342074    0.342438    0.343902    0.344658    0.345905    0.352970
     0.355941

 Minimum Search - Taking Simple RFO Step
 Searching for Lamda that Minimizes Along All modes
 Value Taken    Lamda =  -0.00000266
 Step Taken.  Stepsize is  0.007283

                             Maximum     Tolerance    Cnvgd?
         Gradient           0.000265      0.000300     YES
         Displacement       0.005017      0.001200      NO
         Energy change     -0.000107      0.000001      NO


 New Cartesian Coordinates Obtained by Inverse Iteration

 Displacement from previous Coordinates is:  0.006378
 ----------------------------------------------------------------
             Standard Nuclear Orientation (Angstroms)
    I     Atom           X                Y                Z
 ----------------------------------------------------------------
    1      Cl      1.9867708956    -0.8520632365    -0.3055614992
    2      C      -0.8332927918     0.5901734384    -0.3146233120
    3      C       0.4637381337     0.8863432012     0.3412101636
    4      C      -1.5373419594    -0.6771360154     0.1708216433
    5      H      -0.7062246725     0.5889724515    -1.4016724196
    6      H      -1.4555982840     1.4782677744    -0.0886085200
    7      H       0.5641642145     0.7060997120     1.4073184390
    8      H       1.0745329973     1.6924273259    -0.0510717061
    9      H      -1.6988191515    -0.6515417365     1.2536375024
   10      H      -2.5118827305    -0.7849598558    -0.3132397791
   11      H      -0.9304426513    -1.5549830592    -0.0635075124
 ----------------------------------------------------------------
 Nuclear Repulsion Energy =   149.3671667053 hartrees
 There are       21 alpha and       21 beta electrons

                       Distance Matrix (Angstroms)
             Cl(  1)   C (  2)   C (  3)   C (  4)   H (  5)   H (  6)
   C (  2)  3.167473
   C (  3)  2.400000  1.483281
   C (  4)  3.560465  1.528861  2.545156
   H (  5)  3.245037  1.094451  2.120114  2.183237
   H (  6)  4.162621  1.107727  2.054013  2.172499  1.754008
   H (  7)  2.717653  2.220677  1.085891  2.803318  3.085131  2.629350
   H (  8)  2.715028  2.219059  1.084771  3.533547  2.492555  2.539456
   H (  9)  4.006855  2.179549  2.806113  1.095089  3.094316  2.529203
   H ( 10)  4.499161  2.169944  3.475036  1.093467  2.516501  2.507667
   H ( 11)  3.010452  2.161988  2.840354  1.092636  2.537224  3.078478
             H (  7)   H (  8)   H (  9)   H ( 10)
   H (  8)  1.833090
   H (  9)  2.643464  3.858489
   H ( 10)  3.826963  4.366756  1.770304
   H ( 11)  3.083776  3.816511  1.772422  1.776585
 
 Applying Cartesian multipole field
    Component          Value
    ---------          -----
     (2,0,0)        1.00000E-11
     (0,2,0)        2.00000E-11
     (0,0,2)       -3.00000E-10
 Nucleus-field energy     =    -0.0000000035 hartrees
 Requested basis set is 6-31G(d,p)
 There are 38 shells and 99 basis functions
 A cutoff of  1.0D-14 yielded    719 shell pairs
 There are      4994 function pairs
 Smallest overlap matrix eigenvalue = 5.95E-03
 Guess from superposition of atomic densities
 Warning:  Energy on first SCF cycle will be non-variational
 SAD guess density has 42.000000 electrons

 -----------------------------------------------------------------------
  General SCF calculation program by
  Eric Jon Sundstrom, Paul Horn, Yuezhi Mao, Dmitri Zuev, Alec White,
  David Stuck, Shaama M.S., Shane Yost, Joonho Lee, David Small,
  Daniel Levine, Susi Lehtola, Hugh Burton, Evgeny Epifanovsky
 -----------------------------------------------------------------------
 Exchange:     0.2000 Hartree-Fock + 0.0800 Slater + 0.7200 B88
 Correlation:  0.1900 VWN1RPA + 0.8100 LYP
 Using SG-1 standard quadrature grid
 using 12 threads for integral computing
 -------------------------------------------------------
 OpenMP Integral computing Module                
 Release: version 1.0, May 2013, Q-Chem Inc. Pittsburgh 
 -------------------------------------------------------
 -------------------------------------------------------
 OpenMP BLAS3 based DFT computing Module                
 Release: version 1.0, May 2013, Q-Chem Inc. Pittsburgh 
 -------------------------------------------------------
 A unrestricted SCF calculation will be
 performed using DIIS
 SCF converges when DIIS error is below 1.0e-06
 Alpha HF Exchange    Energy =  -4.55059457893347
 Beta HF Exchange     Energy =  -4.55059457893347
 DFT Correlation      Energy =  -1.89438481614637
 DFT Exchange         Energy = -35.71592212269470
 One-Electron (alpha) Energy = -543.25505906984176
 One-Electron (beta)  Energy = -543.25505906984176
 Total Coulomb        Energy = 404.94376466189124
 ---------------------------------------
  Cycle       Energy         DIIS error
 ---------------------------------------
    1    -578.9106828727      2.88e-02  
 Alpha HF Exchange    Energy =  -4.57612553280645
 Beta HF Exchange     Energy =  -4.57612553280645
 DFT Correlation      Energy =  -1.92084783826572
 DFT Exchange         Energy = -36.30613590095464
 One-Electron (alpha) Energy = -547.06468611427192
 One-Electron (beta)  Energy = -547.06468611427192
 Total Coulomb        Energy = 413.50887527786483
    2    -578.6325650537      3.64e-03  
 Alpha HF Exchange    Energy =  -4.51382559606354
 Beta HF Exchange     Energy =  -4.51382559606353
 DFT Correlation      Energy =  -1.89815330097733
 DFT Exchange         Energy = -35.81568489721167
 One-Electron (alpha) Energy = -542.89339602502150
 One-Electron (beta)  Energy = -542.89339602502127
 Total Coulomb        Energy = 404.58461864683278
    3    -578.5764960917      4.80e-03  
 Alpha HF Exchange    Energy =  -4.54386190780449
 Beta HF Exchange     Energy =  -4.54386190780449
 DFT Correlation      Energy =  -1.90732234210728
 DFT Exchange         Energy = -36.03860730537632
 One-Electron (alpha) Energy = -545.07294830053706
 One-Electron (beta)  Energy = -545.07294830053740
 Total Coulomb        Energy = 409.11458614355524
    4    -578.6977972188      1.40e-03  
 Alpha HF Exchange    Energy =  -4.54403080632919
 Beta HF Exchange     Energy =  -4.54403080632919
 DFT Correlation      Energy =  -1.90936132759965
 DFT Exchange         Energy = -36.05210332952148
 One-Electron (alpha) Energy = -545.10520527543054
 One-Electron (beta)  Energy = -545.10520527543065
 Total Coulomb        Energy = 409.18326991887881
    5    -578.7095001999      3.04e-04  
 Alpha HF Exchange    Energy =  -4.54485820032475
 Beta HF Exchange     Energy =  -4.54485820032475
 DFT Correlation      Energy =  -1.90925653366395
 DFT Exchange         Energy = -36.05684537239349
 One-Electron (alpha) Energy = -545.14653455841460
 One-Electron (beta)  Energy = -545.14653455841449
 Total Coulomb        Energy = 409.27165854052743
    6    -578.7100621812      6.30e-05  
 Alpha HF Exchange    Energy =  -4.54456149173958
 Beta HF Exchange     Energy =  -4.54456149173958
 DFT Correlation      Energy =  -1.90918305791690
 DFT Exchange         Energy = -36.05444496893863
 One-Electron (alpha) Energy = -545.12583365971477
 One-Electron (beta)  Energy = -545.12583365971489
 Total Coulomb        Energy = 409.22717001215767
    7    -578.7100816158      1.47e-05  
 Alpha HF Exchange    Energy =  -4.54462968881824
 Beta HF Exchange     Energy =  -4.54462968881824
 DFT Correlation      Energy =  -1.90920284297562
 DFT Exchange         Energy = -36.05496657414614
 One-Electron (alpha) Energy = -545.13222690940074
 One-Electron (beta)  Energy = -545.13222690940052
 Total Coulomb        Energy = 409.24063308319563
    8    -578.7100828285      2.18e-06  
 Alpha HF Exchange    Energy =  -4.54463001506939
 Beta HF Exchange     Energy =  -4.54463001506938
 DFT Correlation      Energy =  -1.90920295733174
 DFT Exchange         Energy = -36.05496630561830
 One-Electron (alpha) Energy = -545.13206562571384
 One-Electron (beta)  Energy = -545.13206562571361
 Total Coulomb        Energy = 409.24031099025592
    9    -578.7100828524      6.74e-07  Convergence criterion met
 ---------------------------------------
 SCF time:   CPU 21.60s  wall 2.00s 
<S^2> =          0.000000000
 Alpha HF Exchange    Energy =  -4.54463001506939
 Beta HF Exchange     Energy =  -4.54463001506938
 DFT Correlation      Energy =  -1.90920295733174
 DFT Exchange         Energy = -36.05496630561830
 One-Electron (alpha) Energy = -545.13206562571384
 One-Electron (beta)  Energy = -545.13206562571361
 Total Coulomb        Energy = 409.24031099025592
 Nuclear repulsion Energy = 149.36716670182398
 SCF   energy in the final basis set =     -578.7100828524
 Total energy in the final basis set =     -578.7100828524
 
 --------------------------------------------------------------
 
                    Orbital Energies (a.u.)
 --------------------------------------------------------------
 
 Alpha MOs
 -- Occupied --
******* -10.286 -10.225 -10.193  -9.409  -7.173  -7.164  -7.164
 -0.826  -0.743  -0.704  -0.614  -0.495  -0.473  -0.446  -0.388
 -0.379  -0.373  -0.305  -0.267  -0.266
 -- Virtual --
 -0.095   0.077   0.115   0.122   0.134   0.152   0.166   0.179
  0.206   0.247   0.413   0.448   0.458   0.484   0.503   0.513
  0.560   0.578   0.599   0.640   0.670   0.724   0.752   0.770
  0.828   0.851   0.874   0.885   0.892   0.901   0.914   0.934
  0.954   0.972   0.988   1.085   1.272   1.338   1.365   1.469
  1.510   1.642   1.713   1.786   1.828   1.876   1.967   2.010
  2.036   2.050   2.082   2.092   2.208   2.237   2.258   2.351
  2.377   2.403   2.495   2.585   2.632   2.682   2.744   2.786
  2.834   2.866   2.893   3.174   3.228   3.265   3.379   3.414
  3.472   3.509   4.238   4.283   4.416   4.600
 
 Beta MOs
 -- Occupied --
******* -10.286 -10.225 -10.193  -9.409  -7.173  -7.164  -7.164
 -0.826  -0.743  -0.704  -0.614  -0.495  -0.473  -0.446  -0.388
 -0.379  -0.373  -0.305  -0.267  -0.266
 -- Virtual --
 -0.095   0.077   0.115   0.122   0.134   0.152   0.166   0.179
  0.206   0.247   0.413   0.448   0.458   0.484   0.503   0.513
  0.560   0.578   0.599   0.640   0.670   0.724   0.752   0.770
  0.828   0.851   0.874   0.885   0.892   0.901   0.914   0.934
  0.954   0.972   0.988   1.085   1.272   1.338   1.365   1.469
  1.510   1.642   1.713   1.786   1.828   1.876   1.967   2.010
  2.036   2.050   2.082   2.092   2.208   2.237   2.258   2.351
  2.377   2.403   2.495   2.585   2.632   2.682   2.744   2.786
  2.834   2.866   2.893   3.174   3.228   3.265   3.379   3.414
  3.472   3.509   4.238   4.283   4.416   4.600
 --------------------------------------------------------------
 
          Ground-State Mulliken Net Atomic Charges

     Atom                 Charge (a.u.)    Spin (a.u.)
  --------------------------------------------------------
      1 Cl                   -0.360729       0.000000
      2 C                    -0.197228      -0.000000
      3 C                    -0.136283       0.000000
      4 C                    -0.321600      -0.000000
      5 H                     0.150825      -0.000000
      6 H                     0.132061       0.000000
      7 H                     0.176743      -0.000000
      8 H                     0.177032       0.000000
      9 H                     0.108966       0.000000
     10 H                     0.113043       0.000000
     11 H                     0.157169       0.000000
  --------------------------------------------------------
  Sum of atomic charges =     0.000000
  Sum of spin   charges =    -0.000000

 -----------------------------------------------------------------
                    Cartesian Multipole Moments
[...]
      7  H         0.5641642145    0.7060997120    1.4073184390
      8  H         1.0745329973    1.6924273259   -0.0510717061
      9  H        -1.6988191515   -0.6515417365    1.2536375024
     10  H        -2.5118827305   -0.7849598558   -0.3132397791
     11  H        -0.9304426513   -1.5549830592   -0.0635075124
   Point Group: c1    Number of degrees of freedom:    27


   Energy is   -578.710082852

              Constraints and their Current Values
                                        Value     Constraint
   Distance(Angs):        1   3             2.400000     2.400000
 Hessian Updated using BFGS Update

 26 Hessian modes will be used to form the next step
  Hessian Eigenvalues:
     0.024697    0.045002    0.050652    0.066078    0.077138    0.082952
     0.083594    0.086166    0.106638    0.133445    0.153589    0.159883
     0.160000    0.160193    0.162478    0.208422    0.219855    0.297261
     0.326667    0.339516    0.342274    0.343526    0.344387    0.345693
     0.352374    0.354087

 Minimum Search - Taking Simple RFO Step
 Searching for Lamda that Minimizes Along All modes
 Value Taken    Lamda =   0.00000000
 Step Taken.  Stepsize is  0.004798

                             Maximum     Tolerance    Cnvgd?
         Gradient           0.000135      0.000300     YES
         Displacement       0.003304      0.001200      NO
         Energy change     -0.000002      0.000001      NO


 New Cartesian Coordinates Obtained by Inverse Iteration

 Displacement from previous Coordinates is:  0.005553
 ----------------------------------------------------------------
             Standard Nuclear Orientation (Angstroms)
    I     Atom           X                Y                Z
 ----------------------------------------------------------------
    1      Cl      1.9873224674    -0.8520465414    -0.3040211785
    2      C      -0.8334614183     0.5904227295    -0.3145923209
    3      C       0.4637727186     0.8864869101     0.3411895784
    4      C      -1.5372321245    -0.6771577295     0.1706468728
    5      H      -0.7065829150     0.5897680615    -1.4016787805
    6      H      -1.4564452972     1.4779285023    -0.0885626113
    7      H       0.5640961816     0.7060628451     1.4072165463
    8      H       1.0749994747     1.6917458180    -0.0519876515
    9      H      -1.6978514042    -0.6519215822     1.2536066622
   10      H      -2.5121932389    -0.7845503675    -0.3126857999
   11      H      -0.9308204441    -1.5551386458    -0.0644283171
 ----------------------------------------------------------------
 Nuclear Repulsion Energy =   149.3601294431 hartrees
 There are       21 alpha and       21 beta electrons

                       Distance Matrix (Angstroms)
             Cl(  1)   C (  2)   C (  3)   C (  4)   H (  5)   H (  6)
   C (  2)  3.168225
   C (  3)  2.400000  1.483415
   C (  4)  3.560671  1.528892  2.545209
   H (  5)  3.246661  1.094466  2.120227  2.183412
   H (  6)  4.163501  1.107639  2.054684  2.172122  1.753681
   H (  7)  2.716912  2.220623  1.085832  2.803210  3.085133  2.629776
   H (  8)  2.714173  2.219031  1.084725  3.533415  2.491999  2.540722
   H (  9)  4.005841  2.179412  2.805677  1.095097  3.094341  2.529023
   H ( 10)  4.500030  2.169953  3.475096  1.093477  2.516920  2.506720
   H ( 11)  3.011196  2.162289  2.840942  1.092633  2.537547  3.078370
             H (  7)   H (  8)   H (  9)   H ( 10)
   H (  8)  1.833540
   H (  9)  2.642749  3.858245
   H ( 10)  3.826689  4.366687  1.770315
   H ( 11)  3.084404  3.816507  1.772386  1.776564
 
 Applying Cartesian multipole field
    Component          Value
    ---------          -----
     (2,0,0)        1.00000E-11
     (0,2,0)        2.00000E-11
     (0,0,2)       -3.00000E-10
 Nucleus-field energy     =    -0.0000000034 hartrees
 Requested basis set is 6-31G(d,p)
 There are 38 shells and 99 basis functions
 A cutoff of  1.0D-14 yielded    719 shell pairs
 There are      4994 function pairs
 Smallest overlap matrix eigenvalue = 5.95E-03
 Guess from superposition of atomic densities
 Warning:  Energy on first SCF cycle will be non-variational
 SAD guess density has 42.000000 electrons

 -----------------------------------------------------------------------
  General SCF calculation program by
  Eric Jon Sundstrom, Paul Horn, Yuezhi Mao, Dmitri Zuev, Alec White,
  David Stuck, Shaama M.S., Shane Yost, Joonho Lee, David Small,
  Daniel Levine, Susi Lehtola, Hugh Burton, Evgeny Epifanovsky
 -----------------------------------------------------------------------
 Exchange:     0.2000 Hartree-Fock + 0.0800 Slater + 0.7200 B88
 Correlation:  0.1900 VWN1RPA + 0.8100 LYP
 Using SG-1 standard quadrature grid
 using 12 threads for integral computing
 -------------------------------------------------------
 OpenMP Integral computing Module                
 Release: version 1.0, May 2013, Q-Chem Inc. Pittsburgh 
 -------------------------------------------------------
 -------------------------------------------------------
 OpenMP BLAS3 based DFT computing Module                
 Release: version 1.0, May 2013, Q-Chem Inc. Pittsburgh 
 -------------------------------------------------------
 A unrestricted SCF calculation will be
 performed using DIIS
 SCF converges when DIIS error is below 1.0e-06
 Alpha HF Exchange    Energy =  -4.55058294754013
 Beta HF Exchange     Energy =  -4.55058294754013
 DFT Correlation      Energy =  -1.89438133892450
 DFT Exchange         Energy = -35.71590351204897
 One-Electron (alpha) Energy = -543.24801802335810
 One-Electron (beta)  Energy = -543.24801802335810
 Total Coulomb        Energy = 404.93680370218254
 ---------------------------------------
  Cycle       Energy         DIIS error
 ---------------------------------------
    1    -578.9105536509      2.88e-02  
 Alpha HF Exchange    Energy =  -4.57612553518616
 Beta HF Exchange     Energy =  -4.57612553518615
 DFT Correlation      Energy =  -1.92084429721515
 DFT Exchange         Energy = -36.30613428040392
 One-Electron (alpha) Energy = -547.05752412107029
 One-Electron (beta)  Energy = -547.05752412106995
 Total Coulomb        Energy = 413.50158150716675
    2    -578.6325669433      3.64e-03  
 Alpha HF Exchange    Energy =  -4.51382490244821
 Beta HF Exchange     Energy =  -4.51382490244821
 DFT Correlation      Energy =  -1.89815195658414
 DFT Exchange         Energy = -35.81568885563697
 One-Electron (alpha) Energy = -542.88651205350368
 One-Electron (beta)  Energy = -542.88651205350391
 Total Coulomb        Energy = 404.57792799893934
    3    -578.5764572855      4.80e-03  
 Alpha HF Exchange    Energy =  -4.54386011213034
 Beta HF Exchange     Energy =  -4.54386011213034
 DFT Correlation      Energy =  -1.90731853693164
 DFT Exchange         Energy = -36.03859034554166
 One-Electron (alpha) Energy = -545.06586549443136
 One-Electron (beta)  Energy = -545.06586549443159
 Total Coulomb        Energy = 409.10744181972291
    4    -578.6977888362      1.40e-03  
 Alpha HF Exchange    Energy =  -4.54402937687437
 Beta HF Exchange     Energy =  -4.54402937687437
 DFT Correlation      Energy =  -1.90935844238469
 DFT Exchange         Energy = -36.05209518563812
 One-Electron (alpha) Energy = -545.09815551556449
 One-Electron (beta)  Energy = -545.09815551556449
 Total Coulomb        Energy = 409.17619351730332
    5    -578.7095004559      3.04e-04  
 Alpha HF Exchange    Energy =  -4.54485736629359
 Beta HF Exchange     Energy =  -4.54485736629359
 DFT Correlation      Energy =  -1.90925377421797
 DFT Exchange         Energy = -36.05684154584138
 One-Electron (alpha) Energy = -545.13952902569213
 One-Electron (beta)  Energy = -545.13952902569213
 Total Coulomb        Energy = 409.26467596991017
    6    -578.7100626944      6.30e-05  
 Alpha HF Exchange    Energy =  -4.54456047933345
 Beta HF Exchange     Energy =  -4.54456047933345
 DFT Correlation      Energy =  -1.90918023704375
 DFT Exchange         Energy = -36.05443964584787
 One-Electron (alpha) Energy = -545.11881263405314
 One-Electron (beta)  Energy = -545.11881263405326
 Total Coulomb        Energy = 409.22015452398466
    7    -578.7100821460      1.47e-05  
 Alpha HF Exchange    Energy =  -4.54462870795816
 Beta HF Exchange     Energy =  -4.54462870795816
 DFT Correlation      Energy =  -1.90920003094221
 DFT Exchange         Energy = -36.05496147945331
 One-Electron (alpha) Energy = -545.12520854769764
 One-Electron (beta)  Energy = -545.12520854769741
 Total Coulomb        Energy = 409.23362322293616
    8    -578.7100833591      2.18e-06  
 Alpha HF Exchange    Energy =  -4.54462903362008
 Beta HF Exchange     Energy =  -4.54462903362008
 DFT Correlation      Energy =  -1.90920014478620
 DFT Exchange         Energy = -36.05496120486987
 One-Electron (alpha) Energy = -545.12504711182692
 One-Electron (beta)  Energy = -545.12504711182680
 Total Coulomb        Energy = 409.23330081788515
    9    -578.7100833830      6.75e-07  Convergence criterion met
 ---------------------------------------
 SCF time:   CPU 22.05s  wall 2.00s 
<S^2> =         -0.000000000
 Alpha HF Exchange    Energy =  -4.54462903362008
 Beta HF Exchange     Energy =  -4.54462903362008
 DFT Correlation      Energy =  -1.90920014478620
 DFT Exchange         Energy = -36.05496120486987
 One-Electron (alpha) Energy = -545.12504711182692
 One-Electron (beta)  Energy = -545.12504711182680
 Total Coulomb        Energy = 409.23330081788515
 Nuclear repulsion Energy = 149.36012943969433
 SCF   energy in the final basis set =     -578.7100833830
 Total energy in the final basis set =     -578.7100833830
 
 --------------------------------------------------------------
 
                    Orbital Energies (a.u.)
 --------------------------------------------------------------
 
 Alpha MOs
 -- Occupied --
******* -10.286 -10.225 -10.193  -9.409  -7.173  -7.164  -7.164
 -0.826  -0.743  -0.704  -0.614  -0.496  -0.473  -0.446  -0.388
 -0.379  -0.373  -0.305  -0.267  -0.266
 -- Virtual --
 -0.095   0.077   0.115   0.122   0.134   0.152   0.166   0.179
  0.206   0.247   0.413   0.448   0.458   0.484   0.503   0.513
  0.560   0.578   0.599   0.640   0.670   0.724   0.752   0.770
  0.828   0.851   0.874   0.885   0.893   0.901   0.914   0.934
  0.954   0.972   0.989   1.085   1.273   1.338   1.365   1.469
  1.510   1.642   1.712   1.787   1.828   1.876   1.966   2.010
  2.036   2.050   2.082   2.092   2.208   2.237   2.259   2.351
  2.377   2.403   2.495   2.585   2.632   2.682   2.744   2.786
  2.834   2.866   2.893   3.174   3.228   3.265   3.379   3.414
  3.472   3.509   4.238   4.283   4.416   4.600
 
 Beta MOs
 -- Occupied --
******* -10.286 -10.225 -10.193  -9.409  -7.173  -7.164  -7.164
 -0.826  -0.743  -0.704  -0.614  -0.496  -0.473  -0.446  -0.388
 -0.379  -0.373  -0.305  -0.267  -0.266
 -- Virtual --
 -0.095   0.077   0.115   0.122   0.134   0.152   0.166   0.179
  0.206   0.247   0.413   0.448   0.458   0.484   0.503   0.513
  0.560   0.578   0.599   0.640   0.670   0.724   0.752   0.770
  0.828   0.851   0.874   0.885   0.893   0.901   0.914   0.934
  0.954   0.972   0.989   1.085   1.273   1.338   1.365   1.469
  1.510   1.642   1.712   1.787   1.828   1.876   1.966   2.010
  2.036   2.050   2.082   2.092   2.208   2.237   2.259   2.351
  2.377   2.403   2.495   2.585   2.632   2.682   2.744   2.786
  2.834   2.866   2.893   3.174   3.228   3.265   3.379   3.414
  3.472   3.509   4.238   4.283   4.416   4.600
 --------------------------------------------------------------
 
          Ground-State Mulliken Net Atomic Charges

     Atom                 Charge (a.u.)    Spin (a.u.)
  --------------------------------------------------------
      1 Cl                   -0.360748       0.000000
      2 C                    -0.197308      -0.000000
      3 C                    -0.136324      -0.000000
      4 C                    -0.321578       0.000000
      5 H                     0.150753       0.000000
      6 H                     0.132126       0.000000
      7 H                     0.176810       0.000000
      8 H                     0.177107       0.000000
      9 H                     0.108974      -0.000000
     10 H                     0.113024       0.000000
     11 H                     0.157163       0.000000
  --------------------------------------------------------
  Sum of atomic charges =    -0.000000
  Sum of spin   charges =    -0.000000

 -----------------------------------------------------------------
                    Cartesian Multipole Moments
 -----------------------------------------------------------------
    Charge (ESU x 10^10)
                 0.0000
    Dipole Moment (Debye)
         X      -3.4903      Y       2.9701      Z       0.8948
       Tot       4.6695
    Quadrupole Moments (Debye-Ang)
        XX     -38.8831     XY       3.2966     YY     -31.9835
        XZ       1.4048     YZ       0.0954     ZZ     -32.4097
    Octopole Moments (Debye-Ang^2)
       XXX     -52.0306    XXY      11.2230    XYY     -12.3677
       YYY      22.6514    XXZ       3.1814    XYZ       0.1158
       YYZ       2.1139    XZZ     -13.4356    YZZ       7.5914
       ZZZ       9.1830
    Hexadecapole Moments (Debye-Ang^3)
      XXXX    -533.5356   XXXY      47.9747   XXYY    -112.0883
      XYYY      44.2113   YYYY    -174.3058   XXXZ      23.4537
      XXYZ      -1.5999   XYYZ       5.5982   YYYZ      -8.0379
      XXZZ     -99.0579   XYZZ      15.2962   YYZZ     -43.1080
      XZZZ      22.1876   YZZZ      -8.8426   ZZZZ     -69.1246
 -----------------------------------------------------------------
 Calculating analytic gradient of the SCF energy
 Gradient of SCF Energy
            1           2           3           4           5           6
    1   0.0289960   0.0000135  -0.0290060  -0.0000358  -0.0000089   0.0000544
    2  -0.0331657  -0.0000110   0.0331331   0.0000506  -0.0000031   0.0000405
    3  -0.0122937  -0.0000227   0.0123146   0.0000344   0.0000005  -0.0000093
            7           8           9          10          11
    1   0.0000375   0.0000329  -0.0000451  -0.0000051  -0.0000332
    2  -0.0000917  -0.0000330   0.0000455   0.0000328   0.0000020
    3  -0.0000159   0.0000086  -0.0000090  -0.0000318   0.0000244
 Max gradient component =       3.317E-02
 RMS gradient           =       1.126E-02
 Gradient time:  CPU 7.91 s  wall 0.85 s
 Geometry Optimization Parameters
   NAtoms,    NIC,     NZ,  NCons,   NDum,   NFix, NCnnct, MaxDiis
       11      68       0       1       0       0       0       0

 Cartesian Hessian Update
 Hessian Updated using BFGS Update


** CONSTRAINED OPTIMIZATION IN DELOCALIZED INTERNAL COORDINATES **
   Searching for a Minimum

   Optimization Cycle:   6

                       Coordinates (Angstroms)
     ATOM                X               Y               Z
      1  Cl        1.9873224674   -0.8520465414   -0.3040211785
      2  C        -0.8334614183    0.5904227295   -0.3145923209
      3  C         0.4637727186    0.8864869101    0.3411895784
      4  C        -1.5372321245   -0.6771577295    0.1706468728
      5  H        -0.7065829150    0.5897680615   -1.4016787805
      6  H        -1.4564452972    1.4779285023   -0.0885626113
      7  H         0.5640961816    0.7060628451    1.4072165463
      8  H         1.0749994747    1.6917458180   -0.0519876515
      9  H        -1.6978514042   -0.6519215822    1.2536066622
     10  H        -2.5121932389   -0.7845503675   -0.3126857999
     11  H        -0.9308204441   -1.5551386458   -0.0644283171
   Point Group: c1    Number of degrees of freedom:    27


   Energy is   -578.710083383

              Constraints and their Current Values
                                        Value     Constraint
   Distance(Angs):        1   3             2.400000     2.400000
 Hessian Updated using BFGS Update

 26 Hessian modes will be used to form the next step
  Hessian Eigenvalues:
     0.014638    0.044957    0.045732    0.066354    0.078862    0.083135
     0.083549    0.086163    0.108680    0.138846    0.159039    0.159935
     0.160087    0.161465    0.164277    0.219400    0.224595    0.297284
     0.329366    0.341860    0.342459    0.344011    0.345537    0.346721
     0.353226    0.356655

 Minimum Search - Taking Simple RFO Step
 Searching for Lamda that Minimizes Along All modes
 Value Taken    Lamda =   0.00000000
 Step Taken.  Stepsize is  0.004831

                             Maximum     Tolerance    Cnvgd?
         Gradient           0.000071      0.000300     YES
         Displacement       0.003827      0.001200      NO
         Energy change     -0.000001      0.000001     YES


                       Distance Matrix (Angstroms)
             Cl(  1)   C (  2)   C (  3)   C (  4)   H (  5)   H (  6)
   C (  2)  3.168225
   C (  3)  2.400000  1.483415
   C (  4)  3.560671  1.528892  2.545209
   H (  5)  3.246661  1.094466  2.120227  2.183412
   H (  6)  4.163501  1.107639  2.054684  2.172122  1.753681
   H (  7)  2.716912  2.220623  1.085832  2.803210  3.085133  2.629776
   H (  8)  2.714173  2.219031  1.084725  3.533415  2.491999  2.540722
   H (  9)  4.005841  2.179412  2.805677  1.095097  3.094341  2.529023
   H ( 10)  4.500030  2.169953  3.475096  1.093477  2.516920  2.506720
   H ( 11)  3.011196  2.162289  2.840942  1.092633  2.537547  3.078370
             H (  7)   H (  8)   H (  9)   H ( 10)
   H (  8)  1.833540
   H (  9)  2.642749  3.858245
   H ( 10)  3.826689  4.366687  1.770315
   H ( 11)  3.084404  3.816507  1.772386  1.776564
 
 Final energy is   -578.710083382970     


 ******************************
 **  OPTIMIZATION CONVERGED  **
 ******************************

                       Coordinates (Angstroms)
     ATOM                X               Y               Z
      1  Cl        1.9873224674   -0.8520465414   -0.3040211785
      2  C        -0.8334614183    0.5904227295   -0.3145923209
      3  C         0.4637727186    0.8864869101    0.3411895784
      4  C        -1.5372321245   -0.6771577295    0.1706468728
      5  H        -0.7065829150    0.5897680615   -1.4016787805
      6  H        -1.4564452972    1.4779285023   -0.0885626113
      7  H         0.5640961816    0.7060628451    1.4072165463
      8  H         1.0749994747    1.6917458180   -0.0519876515
      9  H        -1.6978514042   -0.6519215822    1.2536066622
     10  H        -2.5121932389   -0.7845503675   -0.3126857999
     11  H        -0.9308204441   -1.5551386458   -0.0644283171

Z-matrix Print:
$molecule
0 1
Cl
C  1 2.400000
H  2 1.084725 1 94.738408
H  2 1.085832 1 94.871199 3 -115.927213 0
C  2 1.483415 1 106.960712 3 121.975033 0
H  5 1.094466 2 109.745147 1 -60.770898 0
H  5 1.107639 2 103.988210 1 -173.306933 0
C  5 1.528892 2 115.322072 1 66.279257 0
H  8 1.092633 5 110.026226 2 -63.696798 0
H  8 1.093477 5 110.582938 2 176.194500 0
H  8 1.095097 5 111.239731 2 56.218858 0
$end

PES scan, value:    2.4000 energy: -578.7100833830
------- Summary of potential scan: ------ 
    2.4000      -578.7100833830
----------------------------------------- 
Archival summary:
1\1\hpc0332\JobtypUnspecified\ProcedureUnspecified\6-31G**\l137\knomura\MonMar1119:05:572019MonMar1119:05:572019\0\\#,JobtypUnspecified,ProcedureUnspecified,6-31G**,\\0,1\Cl\C,1,2.4\H,2,1.08473,1,94.7384\H,2,1.08583,1,94.8712,3,-115.927,0\C,2,1.48342,1,106.961,3,121.975,0\H,5,1.09447,2,109.745,1,-60.7709,0\H,5,1.10764,2,103.988,1,-173.307,0\C,5,1.52889,2,115.322,1,66.2793,0\H,8,1.09263,5,110.026,2,-63.6968,0\H,8,1.09348,5,110.583,2,176.195,0\H,8,1.0951,5,111.24,2,56.2189,0\\\@

 Total job time:  20.48s(wall), 212.99s(cpu) 
 Mon Mar 11 19:05:57 2019

        *************************************************************
        *                                                           *
        *  Thank you very much for using Q-Chem.  Have a nice day.  *
        *                                                           *
        *************************************************************


