
Running Job 1 of 1 ruruma/CH3CH2CH2Cl_afterGeo_singlet.xyz.data/inputs/bond_singlet_3.8.in
qchem ruruma/CH3CH2CH2Cl_afterGeo_singlet.xyz.data/inputs/bond_singlet_3.8.in_13335.0 /staging/scratch/2858534/qchem13335/ 1
/usr/usc/qchem/5.1.1/exe/qcprog.exe_s ruruma/CH3CH2CH2Cl_afterGeo_singlet.xyz.data/inputs/bond_singlet_3.8.in_13335.0 /staging/scratch/2858534/qchem13335/
Check license passed

                  Welcome to Q-Chem
     A Quantum Leap Into The Future Of Chemistry


 Q-Chem 5.1, Q-Chem, Inc., Pleasanton, CA (2018)

 Yihan Shao,  Zhengting Gan,  E. Epifanovsky,  A. T. B. Gilbert,  M. Wormit,  
 J. Kussmann,  A. W. Lange,  A. Behn,  Jia Deng,  Xintian Feng,  D. Ghosh,  
 M. Goldey,  P. R. Horn,  L. D. Jacobson,  I. Kaliman,  T. Kus,  A. Landau,  
 Jie Liu,  E. I. Proynov,  R. M. Richard,  R. P. Steele,  E. J. Sundstrom,  
 H. L. Woodcock III,  P. M. Zimmerman,  D. Zuev,  B. Albrecht,  E. Alguire,  
 S. A. Baeppler,  D. Barton,  Z. Benda,  Y. A. Bernard,  E. J. Berquist,  
 K. B. Bravaya,  H. Burton,  D. Casanova,  Chun-Min Chang,  Yunqing Chen,  
 A. Chien,  K. D. Closser,  M. P. Coons,  S. Coriani,  S. Dasgupta,  
 A. L. Dempwolff,  M. Diedenhofen,  Hainam Do,  R. G. Edgar,  Po-Tung Fang,  
 S. Faraji,  S. Fatehi,  Qingguo Feng,  K. D. Fenk,  J. Fosso-Tande,  
 Qinghui Ge,  A. Ghysels,  G. Gidofalvi,  J. Gomes,  J. Gonthier,  A. Gunina,  
 D. Hait,  M. W. D. Hanson-Heine,  P. H. P. Harbach,  A. W. Hauser,  
 J. E. Herr,  E. G. Hohenstein,  Z. C. Holden,  Kerwin Hui,  B. C. Huynh,  
 T.-C. Jagau,  Hyunjun Ji,  B. Kaduk,  K. Khistyaev,  Jaehoon Kim,  
 P. Klunzinger,  K. Koh,  D. Kosenkov,  L. Koulias,  T. Kowalczyk,  
 C. M. Krauter,  A. Kunitsa,  Ka Un Lao,  A. Laurent,  K. V. Lawler,  
 Joonho Lee,  D. Lefrancois,  S. Lehtola,  D. S. Levine,  Yi-Pei Li,  
 You-Sheng Lin,  Fenglai Liu,  E. Livshits,  A. Luenser,  P. Manohar,  
 E. Mansoor,  S. F. Manzer,  Shan-Ping Mao,  Yuezhi Mao,  N. Mardirossian,  
 A. V. Marenich,  T. Markovich,  L. A. Martinez-Martinez,  S. A. Maurer,  
 N. J. Mayhall,  S. C. McKenzie,  J.-M. Mewes,  A. F. Morrison,  
 J. W. Mullinax,  K. Nanda,  T. S. Nguyen-Beck,  R. Olivares-Amaya,  
 J. A. Parkhill,  T. M. Perrine,  F. Plasser,  P. Pokhilko,  S. Prager,  
 A. Prociuk,  E. Ramos,  D. R. Rehn,  F. Rob,  M. Schneider,  N. Sergueev,  
 S. M. Sharada,  S. Sharma,  D. W. Small,  T. Stauch,  T. Stein,  
 Yu-Chuan Su,  A. J. W. Thom,  A. Tkatchenko,  T. Tsuchimochi,  N. M. Tubman,  
 L. Vogt,  M. L. Vidal,  O. Vydrov,  M. A. Watson,  J. Wenzel,  
 M. de Wergifosse,  T. A. Wesolowski,  A. White,  J. Witte,  A. Yamada,  
 Jun Yang,  K. Yao,  S. Yeganeh,  S. R. Yost,  Zhi-Qiang You,  A. Zech,  
 Igor Ying Zhang,  Xing Zhang,  Yan Zhao,  Ying Zhu,  B. R. Brooks,  
 G. K. L. Chan,  C. J. Cramer,  M. S. Gordon,  W. J. Hehre,  A. Klamt,  
 M. W. Schmidt,  C. D. Sherrill,  D. G. Truhlar,  A. Aspuru-Guzik,  R. Baer,  
 A. T. Bell,  N. A. Besley,  Jeng-Da Chai,  A. E. DePrince, III,  
 R. A. DiStasio Jr.,  A. Dreuw,  B. D. Dunietz,  T. R. Furlani,  
 Chao-Ping Hsu,  Yousung Jung,  Jing Kong,  D. S. Lambrecht,  WanZhen Liang,  
 C. Ochsenfeld,  V. A. Rassolov,  L. V. Slipchenko,  J. E. Subotnik,  
 T. Van Voorhis,  J. M. Herbert,  A. I. Krylov,  P. M. W. Gill,  M. Head-Gordon

 Contributors to earlier versions of Q-Chem not listed above: 
 R. D. Adamson,  B. Austin,  J. Baker,  G. J. O. Beran,  K. Brandhorst,  
 S. T. Brown,  E. F. C. Byrd,  A. K. Chakraborty,  C.-L. Cheng,  
 Siu Hung Chien,  D. M. Chipman,  D. L. Crittenden,  H. Dachsel,  
 R. J. Doerksen,  A. D. Dutoi,  L. Fusti-Molnar,  W. A. Goddard III,  
 A. Golubeva-Zadorozhnaya,  S. R. Gwaltney,  G. Hawkins,  A. Heyden,  
 S. Hirata,  G. Kedziora,  F. J. Keil,  C. Kelley,  Jihan Kim,  R. A. King,  
 R. Z. Khaliullin,  P. P. Korambath,  W. Kurlancheek,  A. M. Lee,  M. S. Lee,  
 S. V. Levchenko,  Ching Yeh Lin,  D. Liotard,  R. C. Lochan,  I. Lotan,  
 P. E. Maslen,  N. Nair,  D. P. O'Neill,  D. Neuhauser,  E. Neuscamman,  
 C. M. Oana,  R. Olson,  B. Peters,  R. Peverati,  P. A. Pieniazek,  
 Y. M. Rhee,  J. Ritchie,  M. A. Rohrdanz,  E. Rosta,  N. J. Russ,  
 H. F. Schaefer III,  N. E. Schultz,  N. Shenvi,  A. C. Simmonett,  A. Sodt,  
 D. Stuck,  K. S. Thanthiriwatte,  V. Vanovschi,  Tao Wang,  A. Warshel,  
 C. F. Williams,  Q. Wu,  X. Xu,  W. Zhang

 Please cite Q-Chem as follows:
 Y. Shao et al., Mol. Phys. 113, 184-215 (2015)
 DOI: 10.1080/00268976.2014.952696

 Q-Chem 5.1.1 for Intel X86 EM64T Linux

 Parts of Q-Chem use Armadillo 8.300.2 (Tropical Shenanigans).
 http://arma.sourceforge.net/

 Q-Chem begins on Mon Mar 11 19:48:47 2019  

Host: 
0

     Scratch files written to /staging/scratch/2858534/qchem13335//
 Aug318 |scratch|qcdevops|jenkins|workspace|build_RNUM 6013   
Processing $rem in /usr/usc/qchem/5.1.1/config/preferences.
 MEM_TOTAL  2000 
Input Ideriv = 2
Curr. Ideriv = -1
Max.  Ideriv = 2

Checking the input file for inconsistencies... 	...done.

--------------------------------------------------------------
User input:
--------------------------------------------------------------

$comment
potential surface scanner
$end

$rem
JOBTYPE  PES_SCAN
UNRESTRICTED TRUE
SYM_IGNORE  TRUE
GEOM_OPT_MAX_CYCLES 400
SCF_MAX_CYCLES 400
METHOD   B3LYP
BASIS   6-31G**
PDB_PRINT 2
SCF_CONVERGENCE 6
THRESH 14
SCF_PRINT 1
$end
$molecule
0 1
Cl 1.759445 -0.576646 -0.207865
C -0.787170 0.556755 -0.324447
C 0.595837 0.741625 0.285548
C -1.534253 -0.685854 0.163299
H -0.697481 0.544007 -1.416574
H -1.360732 1.459349 -0.069835
H 0.565226 0.717231 1.377000
H 1.057152 1.675548 -0.038205
H -1.660479 -0.669448 1.251751
H -2.529632 -0.742170 -0.287655
H -0.992314 -1.598796 -0.098317
$end
$scan
stre 1 3 3.800000 3.801000 0.100000
$end
--------------------------------------------------------------
 ----------------------------------------------------------------
             Standard Nuclear Orientation (Angstroms)
    I     Atom           X                Y                Z
 ----------------------------------------------------------------
    1      Cl      1.7594450000    -0.5766460000    -0.2078650000
    2      C      -0.7871700000     0.5567550000    -0.3244470000
    3      C       0.5958370000     0.7416250000     0.2855480000
    4      C      -1.5342530000    -0.6858540000     0.1632990000
    5      H      -0.6974810000     0.5440070000    -1.4165740000
    6      H      -1.3607320000     1.4593490000    -0.0698350000
    7      H       0.5652260000     0.7172310000     1.3770000000
    8      H       1.0571520000     1.6755480000    -0.0382050000
    9      H      -1.6604790000    -0.6694480000     1.2517510000
   10      H      -2.5296320000    -0.7421700000    -0.2876550000
   11      H      -0.9923140000    -1.5987960000    -0.0983170000
 ----------------------------------------------------------------
 Nuclear Repulsion Energy =   161.2764764632 hartrees
 There are       21 alpha and       21 beta electrons
 Requested basis set is 6-31G(d,p)
 There are 38 shells and 99 basis functions

 Total QAlloc Memory Limit   2000 MB
 Mega-Array Size       188 MB
 MEM_STATIC part       192 MB
A total of 1 constraints
  
            1
    1   1.0100000
    2   1.0100000
    3   3.0100000
    4   3.8000000
    5   3.8010000
    6   0.1000000
    7   0.0000000
    8   0.0000000
    9   0.0000000
   10   0.0000000

                       Distance Matrix (Angstroms)
             Cl(  1)   C (  2)   C (  3)   C (  4)   H (  5)   H (  6)
   C (  2)  2.789881
   C (  3)  1.826274  1.522819
   C (  4)  3.316344  1.529741  2.567085
   H (  5)  2.958602  1.095878  2.146845  2.169964
   H (  6)  3.728248  1.099307  2.114140  2.164800  1.758254
   H (  7)  2.368982  2.179369  1.092154  2.801701  3.070585  2.520592
   H (  8)  2.365244  2.176041  1.090798  3.511724  2.501804  2.427737
   H (  9)  3.719539  2.179597  2.831190  1.095869  3.085417  2.523532
   H ( 10)  4.293011  2.173645  3.506960  1.094217  2.507087  2.502091
   H ( 11)  2.937511  2.177067  2.854321  1.093437  2.533048  3.080389
             H (  7)   H (  8)   H (  9)   H ( 10)
   H (  8)  1.778530
   H (  9)  2.625324  3.814251
   H ( 10)  3.805138  4.332736  1.769318
   H ( 11)  3.156972  3.863321  1.769976  1.770029
 
 A cutoff of  1.0D-14 yielded    724 shell pairs
 There are      5008 function pairs
 
 -------------------------------------------------------
 OpenMP Integral Computing Module                       
 Release: version 1.0, May 2013, Q-Chem Inc. Pittsburgh 
 -------------------------------------------------------
 Integral Job Info:
 Integral job number is                      11
 Integral operator is                         1
 short-range coefficients                     0
 long-range coefficients              100000000
 Omega coefficients                           0
 if combine SR and LR in K                    0
 Integral screening is                        0
 Integral computing path is                   2
 max size of driver memory is            800000
 size of driver memory is                593474
 size of scratch memory is             15267112
 max col of scratch BK array               1296
 max len of scratch array in speh3          155
 max len of scratch index in speh4           18
 max int batch size is                      520
 min int batch size is                       52
 fixed nKL is                                52
 max L of basis functions is                  2
 order of int derivative is                   0
 number of shells is                         38
 number of basis is                          99
 number of cartesian basis is                99
 number of contracted shell pairs           724
 number of primitive shell pairs           2744
 maxK2 (contraction) of shell pair           36
 max number of K2 of shell pair               1
 max number of CS2 of shell pair             57
 max number of PS2 of shell pair            240
 mem total for path MDJ                  514716
 -------------------------------------------------------
 Smallest overlap matrix eigenvalue = 5.85E-03

 Scale SEOQF with 1.000000e-01/1.000000e-01/1.000000e+00

 Standard Electronic Orientation quadrupole field applied
 Nucleus-field energy     =    -0.0000000034 hartrees
 Guess from superposition of atomic densities
 Warning:  Energy on first SCF cycle will be non-variational
 SAD guess density has 42.000000 electrons

 -----------------------------------------------------------------------
  General SCF calculation program by
  Eric Jon Sundstrom, Paul Horn, Yuezhi Mao, Dmitri Zuev, Alec White,
  David Stuck, Shaama M.S., Shane Yost, Joonho Lee, David Small,
  Daniel Levine, Susi Lehtola, Hugh Burton, Evgeny Epifanovsky
 -----------------------------------------------------------------------
 Exchange:     0.2000 Hartree-Fock + 0.0800 Slater + 0.7200 B88
 Correlation:  0.1900 VWN1RPA + 0.8100 LYP
 Using SG-1 standard quadrature grid
 using 12 threads for integral computing
 -------------------------------------------------------
 OpenMP Integral computing Module                
 Release: version 1.0, May 2013, Q-Chem Inc. Pittsburgh 
 -------------------------------------------------------
 -------------------------------------------------------
 OpenMP BLAS3 based DFT computing Module                
 Release: version 1.0, May 2013, Q-Chem Inc. Pittsburgh 
 -------------------------------------------------------
 A unrestricted SCF calculation will be
 performed using DIIS
 SCF converges when DIIS error is below 1.0e-06
 Alpha HF Exchange    Energy =  -4.57612480939718
 Beta HF Exchange     Energy =  -4.57612480939718
 DFT Correlation      Energy =  -1.90416247159996
 DFT Exchange         Energy = -35.76536384508940
 One-Electron (alpha) Energy = -555.13329807109005
 One-Electron (beta)  Energy = -555.13329807109005
 Total Coulomb        Energy = 416.66807427376642
 ---------------------------------------
  Cycle       Energy         DIIS error
 ---------------------------------------
    1    -579.1438213441      3.09e-02  
 Alpha HF Exchange    Energy =  -4.58286473418888
 Beta HF Exchange     Energy =  -4.58286473418887
 DFT Correlation      Energy =  -1.93045169893006
 DFT Exchange         Energy = -36.34888470444345
 One-Electron (alpha) Energy = -558.57793033101655
 One-Electron (beta)  Energy = -558.57793033101643
 Total Coulomb        Energy = 424.64404557702028
    2    -578.6804044969      3.58e-03  
 Alpha HF Exchange    Energy =  -4.53216937082897
 Beta HF Exchange     Energy =  -4.53216937082898
 DFT Correlation      Energy =  -1.90672395428372
 DFT Exchange         Energy = -35.92140169522713
 One-Electron (alpha) Energy = -555.25653670217741
 One-Electron (beta)  Energy = -555.25653670217764
 Total Coulomb        Energy = 417.45986801598451
    3    -578.6691933197      3.92e-03  
 Alpha HF Exchange    Energy =  -4.55503995965512
 Beta HF Exchange     Energy =  -4.55503995965512
 DFT Correlation      Energy =  -1.91866416511612
 DFT Exchange         Energy = -36.11538671061841
 One-Electron (alpha) Energy = -556.91005878187377
 One-Electron (beta)  Energy = -556.91005878187445
 Total Coulomb        Energy = 420.93884071875726
    4    -578.7489311802      3.46e-04  
 Alpha HF Exchange    Energy =  -4.55631552086367
 Beta HF Exchange     Energy =  -4.55631552086367
 DFT Correlation      Energy =  -1.91868870010811
 DFT Exchange         Energy = -36.12457436619259
 One-Electron (alpha) Energy = -556.95857948518017
 One-Electron (beta)  Energy = -556.95857948518017
 Total Coulomb        Energy = 421.04711330853621
    5    -578.7494633100      1.33e-04  
 Alpha HF Exchange    Energy =  -4.55598948224686
 Beta HF Exchange     Energy =  -4.55598948224685
 DFT Correlation      Energy =  -1.91867765391452
 DFT Exchange         Energy = -36.12232802995305
 One-Electron (alpha) Energy = -556.93848721411541
 One-Electron (beta)  Energy = -556.93848721411507
 Total Coulomb        Energy = 421.00393642253312
    6    -578.7495461942      4.85e-05  
 Alpha HF Exchange    Energy =  -4.55594953305557
 Beta HF Exchange     Energy =  -4.55594953305556
 DFT Correlation      Energy =  -1.91864693247070
 DFT Exchange         Energy = -36.12189705495538
 One-Electron (alpha) Energy = -556.93541161590815
 One-Electron (beta)  Energy = -556.93541161590781
 Total Coulomb        Energy = 420.99723228472436
    7    -578.7495575408      7.20e-06  
 Alpha HF Exchange    Energy =  -4.55598710978242
 Beta HF Exchange     Energy =  -4.55598710978241
 DFT Correlation      Energy =  -1.91866102208652
 DFT Exchange         Energy = -36.12220464259126
 One-Electron (alpha) Energy = -556.93887166193167
 One-Electron (beta)  Energy = -556.93887166193144
 Total Coulomb        Energy = 421.00454896193287
    8    -578.7495577863      1.68e-06  
 Alpha HF Exchange    Energy =  -4.55598184244676
 Beta HF Exchange     Energy =  -4.55598184244676
 DFT Correlation      Energy =  -1.91865928444389
 DFT Exchange         Energy = -36.12216127071467
 One-Electron (alpha) Energy = -556.93835675499463
 One-Electron (beta)  Energy = -556.93835675499429
 Total Coulomb        Energy = 421.00346349023346
    9    -578.7495578000      3.58e-07  Convergence criterion met
 ---------------------------------------
 SCF time:   CPU 20.74s  wall 2.00s 
<S^2> =         -0.000000000
 Alpha HF Exchange    Energy =  -4.55598184244676
 Beta HF Exchange     Energy =  -4.55598184244676
 DFT Correlation      Energy =  -1.91865928444389
 DFT Exchange         Energy = -36.12216127071467
 One-Electron (alpha) Energy = -556.93835675499463
 One-Electron (beta)  Energy = -556.93835675499429
 Total Coulomb        Energy = 421.00346349023346
 Nuclear repulsion Energy = 161.27647645983910
 SCF   energy in the final basis set =     -578.7495578000
 Total energy in the final basis set =     -578.7495578000
 
 --------------------------------------------------------------
 
                    Orbital Energies (a.u.)
 --------------------------------------------------------------
 
 Alpha MOs
 -- Occupied --
******* -10.246 -10.200 -10.181  -9.444  -7.208  -7.198  -7.198
 -0.851  -0.770  -0.679  -0.592  -0.474  -0.465  -0.426  -0.398
 -0.367  -0.358  -0.345  -0.292  -0.290
 -- Virtual --
  0.029   0.089   0.129   0.135   0.156   0.160   0.177   0.183
  0.209   0.246   0.407   0.441   0.460   0.472   0.499   0.519
  0.548   0.569   0.584   0.656   0.687   0.692   0.738   0.825
  0.838   0.863   0.878   0.887   0.893   0.916   0.922   0.956
  0.977   1.009   1.048   1.122   1.326   1.359   1.428   1.530
  1.554   1.661   1.758   1.828   1.850   1.903   2.039   2.049
  2.067   2.094   2.106   2.107   2.223   2.247   2.286   2.349
  2.371   2.450   2.547   2.589   2.652   2.691   2.766   2.810
  2.847   2.881   2.900   3.179   3.243   3.292   3.371   3.434
  3.482   3.534   4.203   4.327   4.462   4.615
 
 Beta MOs
 -- Occupied --
******* -10.246 -10.200 -10.181  -9.444  -7.208  -7.198  -7.198
 -0.851  -0.770  -0.679  -0.592  -0.474  -0.465  -0.426  -0.398
 -0.367  -0.358  -0.345  -0.292  -0.290
 -- Virtual --
  0.029   0.089   0.129   0.135   0.156   0.160   0.177   0.183
  0.209   0.246   0.407   0.441   0.460   0.472   0.499   0.519
  0.548   0.569   0.584   0.656   0.687   0.692   0.738   0.825
  0.838   0.863   0.878   0.887   0.893   0.916   0.922   0.956
  0.977   1.009   1.048   1.122   1.326   1.359   1.428   1.530
  1.554   1.661   1.758   1.828   1.850   1.903   2.039   2.049
  2.067   2.094   2.106   2.107   2.223   2.247   2.286   2.349
  2.371   2.450   2.547   2.589   2.652   2.691   2.766   2.810
  2.847   2.881   2.900   3.179   3.243   3.292   3.371   3.434
  3.482   3.534   4.203   4.327   4.462   4.615
 --------------------------------------------------------------
 
          Ground-State Mulliken Net Atomic Charges

     Atom                 Charge (a.u.)    Spin (a.u.)
  --------------------------------------------------------
      1 Cl                   -0.109619       0.000000
      2 C                    -0.176662      -0.000000
      3 C                    -0.271616       0.000000
      4 C                    -0.317775       0.000000
      5 H                     0.120752      -0.000000
      6 H                     0.108169       0.000000
      7 H                     0.151027      -0.000000
      8 H                     0.152155      -0.000000
      9 H                     0.104165      -0.000000
     10 H                     0.107766      -0.000000
     11 H                     0.131639       0.000000
  --------------------------------------------------------
  Sum of atomic charges =     0.000000
  Sum of spin   charges =     0.000000

 -----------------------------------------------------------------
                    Cartesian Multipole Moments
 -----------------------------------------------------------------
    Charge (ESU x 10^10)
                 0.0000
    Dipole Moment (Debye)
         X      -1.6496      Y       1.4574      Z       0.4628
       Tot       2.2493
    Quadrupole Moments (Debye-Ang)
        XX     -35.7220     XY       1.3070     YY     -32.0867
        XZ       0.5708     YZ       0.2821     ZZ     -32.6051
    Octopole Moments (Debye-Ang^2)
       XXX     -34.2201    XXY       4.3067    XYY      -7.7487
       YYY      11.4142    XXZ       1.0353    XYZ       0.3621
       YYZ       0.8688    XZZ      -9.8914    YZZ       3.9562
       ZZZ       5.7305
    Hexadecapole Moments (Debye-Ang^3)
      XXXX    -442.9954   XXXY      10.5089   XXYY     -92.4801
      XYYY      11.7358   YYYY    -137.4306   XXXZ      10.8021
      XXYZ       1.3060   XYYZ       1.9599   YYYZ      -1.2579
      XXZZ     -85.3486   XYZZ       4.5857   YYZZ     -35.9817
      XZZZ      10.9617   YZZZ      -2.1976   ZZZZ     -66.0046
 -----------------------------------------------------------------
 Calculating analytic gradient of the SCF energy
 Gradient of SCF Energy
            1           2           3           4           5           6
    1   0.0000197   0.0000413  -0.0000584   0.0000070  -0.0000015   0.0000051
    2  -0.0000746   0.0000073   0.0000556   0.0000279   0.0000086   0.0000008
    3  -0.0000319   0.0000146   0.0000416   0.0000100  -0.0000037  -0.0000044
            7           8           9          10          11
    1   0.0000222   0.0000343  -0.0000075  -0.0000212  -0.0000408
    2  -0.0000342  -0.0000395   0.0000124   0.0000320   0.0000036
    3  -0.0000078  -0.0000075  -0.0000010   0.0000027  -0.0000125
 Max gradient component =       7.459E-05
 RMS gradient           =       2.823E-05
 Gradient time:  CPU 8.50 s  wall 0.88 s
 Geometry Optimization Parameters
   NAtoms,    NIC,     NZ,  NCons,   NDum,   NFix, NCnnct, MaxDiis
       11      68       0       1       0       0       0       0


** CONSTRAINED OPTIMIZATION IN DELOCALIZED INTERNAL COORDINATES **
   Searching for a Minimum

   Optimization Cycle:   1

                       Coordinates (Angstroms)
     ATOM                X               Y               Z
      1  Cl        1.7594450000   -0.5766460000   -0.2078650000
      2  C        -0.7871700000    0.5567550000   -0.3244470000
      3  C         0.5958370000    0.7416250000    0.2855480000
      4  C        -1.5342530000   -0.6858540000    0.1632990000
      5  H        -0.6974810000    0.5440070000   -1.4165740000
      6  H        -1.3607320000    1.4593490000   -0.0698350000
      7  H         0.5652260000    0.7172310000    1.3770000000
      8  H         1.0571520000    1.6755480000   -0.0382050000
      9  H        -1.6604790000   -0.6694480000    1.2517510000
     10  H        -2.5296320000   -0.7421700000   -0.2876550000
     11  H        -0.9923140000   -1.5987960000   -0.0983170000
   Point Group: c1    Number of degrees of freedom:    27


   Energy is   -578.749557800

              Constraints and their Current Values
                                        Value     Constraint
   Distance(Angs):        1   3             1.826274     3.800000

 Attempting to Generate Delocalized Internal Coordinates
**WARNING** Constraint Gradient Reduced for constraint   1

   Using Lagrange Multiplier Algorithm


 28 Hessian modes will be used to form the next step
  Hessian Eigenvalues:
    -0.886507    0.045000    0.045000    0.067013    0.077964    0.081930
     0.082783    0.083075    0.083641    0.105895    0.133708    0.160000
     0.160000    0.160000    0.160000    0.160000    0.219721    0.222671
     0.294474    0.300966    0.337588    0.341421    0.341431    0.343298
     0.344185    0.345649    0.347206    1.128023

 Minimum Search - Taking P-RFO Step
 Searching for Lamda that Maximizes Along the Constraint modes Only
 Value Taken    Lamda =   0.05362159


 ********************************************
 ** ERROR IN DETERMINING Lamda IN CONFormD **
 ********************************************


 ** Scaling Hessian by  2.383182 **


 28 Hessian modes will be used to form the next step
  Hessian Eigenvalues:
    -0.752799    0.107243    0.107243    0.159705    0.185802    0.195253
     0.197287    0.197983    0.199333    0.252366    0.318651    0.381309
     0.381309    0.381309    0.381309    0.381309    0.523634    0.530666
     0.701785    0.717257    0.804534    0.813669    0.813691    0.818143
     0.820255    0.823745    0.827455    1.328375

 Minimum Search - Taking P-RFO Step
 Searching for Lamda that Maximizes Along the Constraint modes Only
 Value Taken    Lamda =   0.06984892
 Searching for Lamda that Minimizes Along All other modes
 Value Taken    Lamda =  -0.02405951
 Step Taken.  Stepsize is  0.281809

                             Maximum     Tolerance    Cnvgd?
         Gradient            0.300000       0.000300      NO
         Displacement        0.281809       0.001200      NO
         Energy change     *********       0.000001      NO


 New Cartesian Coordinates Obtained by Inverse Iteration

 Displacement from previous Coordinates is:  0.259937
 ----------------------------------------------------------------
             Standard Nuclear Orientation (Angstroms)
    I     Atom           X                Y                Z
 ----------------------------------------------------------------
    1      Cl      1.8517379267    -0.6600536027    -0.2367068827
    2      C      -0.7973709106     0.5644845720    -0.3219652143
    3      C       0.5826024210     0.7583427867     0.2921200826
    4      C      -1.5382100156    -0.6824261798     0.1643349540
    5      H      -0.7042586269     0.5515806086    -1.4138001501
    6      H      -1.3772560683     1.4636943275    -0.0696961755
    7      H       0.5487664532     0.7345073627     1.3834932063
    8      H       1.0390550299     1.6949289414    -0.0308434530
    9      H      -1.6678612243    -0.6660918470     1.2523865545
   10      H      -2.5318309496    -0.7452323063    -0.2896197319
   11      H      -0.9897750354    -1.5921336631    -0.0950031898
 ----------------------------------------------------------------
 Nuclear Repulsion Energy =   156.9544563758 hartrees
 There are       21 alpha and       21 beta electrons

                       Distance Matrix (Angstroms)
             Cl(  1)   C (  2)   C (  3)   C (  4)   H (  5)   H (  6)
   C (  2)  2.919682
   C (  3)  1.975402  1.522829
   C (  4)  3.413661  1.529744  2.567098
   H (  5)  3.063776  1.095874  2.146841  2.169967
   H (  6)  3.868411  1.099311  2.114114  2.164835  1.758264
   H (  7)  2.503514  2.179354  1.092158  2.801699  3.070567  2.520523
   H (  8)  2.499755  2.176032  1.090802  3.511724  2.501791  2.427661
   H (  9)  3.821651  2.179600  2.831203  1.095871  3.085419  2.523558
   H ( 10)  4.384716  2.173650  3.506972  1.094213  2.507095  2.502152
   H ( 11)  2.993835  2.177047  2.854291  1.093437  2.533033  3.080400
             H (  7)   H (  8)   H (  9)   H ( 10)
   H (  8)  1.778522
   H (  9)  2.625320  3.814249
   H ( 10)  3.805130  4.332733  1.769319
   H ( 11)  3.156948  3.863295  1.769976  1.770043
 
 Applying Cartesian multipole field
    Component          Value
    ---------          -----
     (2,0,0)        1.00000E-11
     (0,2,0)        2.00000E-11
     (0,0,2)       -3.00000E-10
 Nucleus-field energy     =    -0.0000000033 hartrees
 Requested basis set is 6-31G(d,p)
 There are 38 shells and 99 basis functions
 A cutoff of  1.0D-14 yielded    722 shell pairs
 There are      5004 function pairs
 Smallest overlap matrix eigenvalue = 5.92E-03
 Guess from superposition of atomic densities
 Warning:  Energy on first SCF cycle will be non-variational
 SAD guess density has 42.000000 electrons

 -----------------------------------------------------------------------
  General SCF calculation program by
  Eric Jon Sundstrom, Paul Horn, Yuezhi Mao, Dmitri Zuev, Alec White,
  David Stuck, Shaama M.S., Shane Yost, Joonho Lee, David Small,
  Daniel Levine, Susi Lehtola, Hugh Burton, Evgeny Epifanovsky
 -----------------------------------------------------------------------
 Exchange:     0.2000 Hartree-Fock + 0.0800 Slater + 0.7200 B88
 Correlation:  0.1900 VWN1RPA + 0.8100 LYP
 Using SG-1 standard quadrature grid
 using 12 threads for integral computing
 -------------------------------------------------------
 OpenMP Integral computing Module                
 Release: version 1.0, May 2013, Q-Chem Inc. Pittsburgh 
 -------------------------------------------------------
 -------------------------------------------------------
 OpenMP BLAS3 based DFT computing Module                
 Release: version 1.0, May 2013, Q-Chem Inc. Pittsburgh 
 -------------------------------------------------------
 A unrestricted SCF calculation will be
 performed using DIIS
 SCF converges when DIIS error is below 1.0e-06
 Alpha HF Exchange    Energy =  -4.56403661534804
 Beta HF Exchange     Energy =  -4.56403661534804
 DFT Correlation      Energy =  -1.90045338519357
 DFT Exchange         Energy = -35.74147480674075
 One-Electron (alpha) Energy = -550.83960380641179
 One-Electron (beta)  Energy = -550.83960380641179
 Total Coulomb        Energy = 412.46658824928102
 ---------------------------------------
  Cycle       Energy         DIIS error
 ---------------------------------------
    1    -579.0281644136      2.97e-02  
 Alpha HF Exchange    Energy =  -4.57788856292175
 Beta HF Exchange     Energy =  -4.57788856292175
 DFT Correlation      Energy =  -1.92649477801443
 DFT Exchange         Energy = -36.31568407139977
 One-Electron (alpha) Energy = -554.27446678741694
 One-Electron (beta)  Energy = -554.27446678741660
 Total Coulomb        Energy = 420.31577513035950
    2    -578.6766580472      3.52e-03  
 Alpha HF Exchange    Energy =  -4.52725516039833
 Beta HF Exchange     Energy =  -4.52725516039833
 DFT Correlation      Energy =  -1.90344686703795
 DFT Exchange         Energy = -35.89088338953010
 One-Electron (alpha) Energy = -551.00420465857155
 One-Electron (beta)  Energy = -551.00420465857167
 Total Coulomb        Energy = 413.23397578039226
    3    -578.6688177416      3.78e-03  
 Alpha HF Exchange    Energy =  -4.55000759396053
 Beta HF Exchange     Energy =  -4.55000759396053
 DFT Correlation      Energy =  -1.91489416266965
 DFT Exchange         Energy = -36.08256849892506
 One-Electron (alpha) Energy = -552.60623610763309
 One-Electron (beta)  Energy = -552.60623610763309
 Total Coulomb        Energy = 416.61251788605841
    4    -578.7429758062      3.16e-04  
 Alpha HF Exchange    Energy =  -4.55144795523035
 Beta HF Exchange     Energy =  -4.55144795523034
 DFT Correlation      Energy =  -1.91498606740469
 DFT Exchange         Energy = -36.09304726737497
 One-Electron (alpha) Energy = -552.67590275030386
 One-Electron (beta)  Energy = -552.67590275030329
 Total Coulomb        Energy = 416.76487178591549
    5    -578.7434065874      1.39e-04  
 Alpha HF Exchange    Energy =  -4.55098194555519
 Beta HF Exchange     Energy =  -4.55098194555519
 DFT Correlation      Energy =  -1.91496397251442
 DFT Exchange         Energy = -36.08984746184434
 One-Electron (alpha) Energy = -552.64396553569850
 One-Electron (beta)  Energy = -552.64396553569827
 Total Coulomb        Energy = 416.69674972945023
    6    -578.7435002949      5.64e-05  
 Alpha HF Exchange    Energy =  -4.55096032458378
 Beta HF Exchange     Energy =  -4.55096032458378
 DFT Correlation      Energy =  -1.91492262723682
 DFT Exchange         Energy = -36.08947608275635
 One-Electron (alpha) Energy = -552.64229644705472
 One-Electron (beta)  Energy = -552.64229644705472
 Total Coulomb        Energy = 416.69293932436415
    7    -578.7435165564      9.39e-06  
 Alpha HF Exchange    Energy =  -4.55100169741011
 Beta HF Exchange     Energy =  -4.55100169741011
 DFT Correlation      Energy =  -1.91494021138047
 DFT Exchange         Energy = -36.08982549273306
 One-Electron (alpha) Energy = -552.64623162436874
 One-Electron (beta)  Energy = -552.64623162436851
 Total Coulomb        Energy = 416.70125900111850
    8    -578.7435169740      1.88e-06  
 Alpha HF Exchange    Energy =  -4.55099723725306
 Beta HF Exchange     Energy =  -4.55099723725307
 DFT Correlation      Energy =  -1.91493865067217
 DFT Exchange         Energy = -36.08978782015772
 One-Electron (alpha) Energy = -552.64575899724480
 One-Electron (beta)  Energy = -552.64575899724480
 Total Coulomb        Energy = 416.70026557592405
    9    -578.7435169914      4.18e-07  Convergence criterion met
 ---------------------------------------
 SCF time:   CPU 20.42s  wall 2.00s 
<S^2> =          0.000000000
 Alpha HF Exchange    Energy =  -4.55099723725306
 Beta HF Exchange     Energy =  -4.55099723725307
 DFT Correlation      Energy =  -1.91493865067217
 DFT Exchange         Energy = -36.08978782015772
 One-Electron (alpha) Energy = -552.64575899724480
 One-Electron (beta)  Energy = -552.64575899724480
 Total Coulomb        Energy = 416.70026557592405
 Nuclear repulsion Energy = 156.95445637252627
 SCF   energy in the final basis set =     -578.7435169914
 Total energy in the final basis set =     -578.7435169914
 
 --------------------------------------------------------------
 
                    Orbital Energies (a.u.)
 --------------------------------------------------------------
 
 Alpha MOs
 -- Occupied --
******* -10.258 -10.206 -10.183  -9.439  -7.203  -7.194  -7.193
 -0.828  -0.771  -0.686  -0.596  -0.474  -0.464  -0.425  -0.388
 -0.367  -0.359  -0.345  -0.291  -0.289
 -- Virtual --
 -0.016   0.085   0.128   0.133   0.152   0.157   0.175   0.183
  0.206   0.244   0.407   0.449   0.457   0.474   0.500   0.519
  0.552   0.577   0.579   0.653   0.685   0.690   0.743   0.818
  0.832   0.859   0.881   0.890   0.893   0.916   0.920   0.943
  0.958   0.989   1.026   1.100   1.308   1.334   1.426   1.524
  1.548   1.657   1.743   1.820   1.829   1.896   1.985   2.045
  2.063   2.083   2.100   2.103   2.213   2.241   2.277   2.343
  2.363   2.443   2.538   2.583   2.646   2.689   2.762   2.805
  2.839   2.878   2.897   3.174   3.235   3.287   3.365   3.430
  3.479   3.530   4.214   4.297   4.448   4.611
 
 Beta MOs
 -- Occupied --
******* -10.258 -10.206 -10.183  -9.439  -7.203  -7.194  -7.193
 -0.828  -0.771  -0.686  -0.596  -0.474  -0.464  -0.425  -0.388
 -0.367  -0.359  -0.345  -0.291  -0.289
 -- Virtual --
 -0.016   0.085   0.128   0.133   0.152   0.157   0.175   0.183
  0.206   0.244   0.407   0.449   0.457   0.474   0.500   0.519
  0.552   0.577   0.579   0.653   0.685   0.690   0.743   0.818
  0.832   0.859   0.881   0.890   0.893   0.916   0.920   0.943
  0.958   0.989   1.026   1.100   1.308   1.334   1.426   1.524
  1.548   1.657   1.743   1.820   1.829   1.896   1.985   2.045
  2.063   2.083   2.100   2.103   2.213   2.241   2.277   2.343
  2.363   2.443   2.538   2.583   2.646   2.689   2.762   2.805
  2.839   2.878   2.897   3.174   3.235   3.287   3.365   3.430
  3.479   3.530   4.214   4.297   4.448   4.611
 --------------------------------------------------------------
 
          Ground-State Mulliken Net Atomic Charges

     Atom                 Charge (a.u.)    Spin (a.u.)
  --------------------------------------------------------
      1 Cl                   -0.166909      -0.000000
      2 C                    -0.179537       0.000000
      3 C                    -0.237463       0.000000
      4 C                    -0.317427       0.000000
      5 H                     0.126726       0.000000
      6 H                     0.114215      -0.000000
      7 H                     0.155323      -0.000000
      8 H                     0.156055      -0.000000
      9 H                     0.104679      -0.000000
     10 H                     0.108240      -0.000000
     11 H                     0.136099      -0.000000
  --------------------------------------------------------
  Sum of atomic charges =     0.000000
  Sum of spin   charges =    -0.000000

 -----------------------------------------------------------------
                    Cartesian Multipole Moments
 -----------------------------------------------------------------
    Charge (ESU x 10^10)
                 0.0000
    Dipole Moment (Debye)
         X      -2.0446      Y       1.7562      Z       0.5434
       Tot       2.7495
    Quadrupole Moments (Debye-Ang)
        XX     -36.4389     XY       1.5503     YY     -31.9681
        XZ       0.6835     YZ       0.3384     ZZ     -32.6515
    Octopole Moments (Debye-Ang^2)
       XXX     -39.6270    XXY       5.6708    XYY      -9.1820
       YYY      14.7956    XXZ       1.4532    XYZ       0.4226
       YYZ       1.2921    XZZ     -11.2925    YZZ       5.0659
       ZZZ       6.7725
    Hexadecapole Moments (Debye-Ang^3)
      XXXX    -473.7769   XXXY      19.1577   XXYY     -98.3578
      XYYY      20.4078   YYYY    -145.4335   XXXZ      13.8308
      XXYZ       0.8873   XYYZ       2.9239   YYYZ      -2.6895
      XXZZ     -90.4336   XYZZ       7.4922   YYZZ     -37.5850
      XZZZ      13.9568   YZZZ      -3.6546   ZZZZ     -66.8765
 -----------------------------------------------------------------
 Calculating analytic gradient of the SCF energy
 Gradient of SCF Energy
            1           2           3           4           5           6
    1   0.0240849  -0.0055558  -0.0093113   0.0004012   0.0004689  -0.0010946
    2  -0.0270031   0.0061531   0.0134032   0.0001065  -0.0003383  -0.0010153
    3  -0.0101609   0.0018926   0.0061030  -0.0001905  -0.0000882  -0.0007835
            7           8           9          10          11
    1  -0.0040933  -0.0045841  -0.0000176   0.0000511  -0.0003494
    2   0.0049557   0.0040545   0.0000453  -0.0000590  -0.0003026
    3   0.0009326   0.0022254   0.0000444  -0.0000471   0.0000721
 Max gradient component =       2.700E-02
 RMS gradient           =       7.541E-03
 Gradient time:  CPU 8.11 s  wall 0.85 s
 Geometry Optimization Parameters
   NAtoms,    NIC,     NZ,  NCons,   NDum,   NFix, NCnnct, MaxDiis
       11      68       0       1       0       0       0       0

 Cartesian Hessian Update
 Hessian Updated using BFGS Update


** CONSTRAINED OPTIMIZATION IN DELOCALIZED INTERNAL COORDINATES **
   Searching for a Minimum

   Optimization Cycle:   2

                       Coordinates (Angstroms)
     ATOM                X               Y               Z
      1  Cl        1.8517379267   -0.6600536027   -0.2367068827
      2  C        -0.7973709106    0.5644845720   -0.3219652143
      3  C         0.5826024210    0.7583427867    0.2921200826
      4  C        -1.5382100156   -0.6824261798    0.1643349540
      5  H        -0.7042586269    0.5515806086   -1.4138001501
      6  H        -1.3772560683    1.4636943275   -0.0696961755
      7  H         0.5487664532    0.7345073627    1.3834932063
      8  H         1.0390550299    1.6949289414   -0.0308434530
      9  H        -1.6678612243   -0.6660918470    1.2523865545
     10  H        -2.5318309496   -0.7452323063   -0.2896197319
     11  H        -0.9897750354   -1.5921336631   -0.0950031898
   Point Group: c1    Number of degrees of freedom:    27


   Energy is   -578.743516991

              Constraints and their Current Values
                                        Value     Constraint
   Distance(Angs):        1   3             1.975402     3.800000
 Hessian Updated using BFGS Update
**WARNING** Constraint Gradient Reduced for constraint   1

   Using Lagrange Multiplier Algorithm


 25 Hessian modes will be used to form the next step
  Hessian Eigenvalues:
    -0.936363    0.107243    0.107244    0.159788    0.185803    0.195265
     0.197287    0.197983    0.205597    0.252500    0.318912    0.381309
     0.385836    0.523669    0.531189    0.701786    0.718950    0.804548
     0.813670    0.813691    0.818143    0.820255    0.823811    0.827518
     1.070396

 Minimum Search - Taking P-RFO Step
 Searching for Lamda that Maximizes Along the Constraint modes Only
 Value Taken    Lamda =   0.02049720
 Searching for Lamda that Minimizes Along All other modes
 Value Taken    Lamda =  -0.07455694
 Step Taken.  Stepsize is  0.293250

                             Maximum     Tolerance    Cnvgd?
         Gradient            0.300000       0.000300      NO
         Displacement        0.284756       0.001200      NO
         Energy change      0.006041       0.000001      NO


 New Cartesian Coordinates Obtained by Inverse Iteration

 Displacement from previous Coordinates is:  0.238128
 ----------------------------------------------------------------
             Standard Nuclear Orientation (Angstroms)
    I     Atom           X                Y                Z
 ----------------------------------------------------------------
    1      Cl      1.9260462590    -0.7407425602    -0.2655973516
    2      C      -0.8092293383     0.5723437356    -0.3199338961
    3      C       0.5580691643     0.7847666359     0.3015971379
    4      C      -1.5410102474    -0.6801813777     0.1651581043
    5      H      -0.7107331656     0.5580391538    -1.4111304357
    6      H      -1.3944693077     1.4698187408    -0.0716866620
    7      H       0.5423799060     0.7482207846     1.3919422006
    8      H       1.0331522033     1.7099167600    -0.0239197409
    9      H      -1.6767075024    -0.6633040035     1.2524072572
   10      H      -2.5314950719    -0.7537637965    -0.2940945160
   11      H      -0.9804038994    -1.5835130729    -0.0900420977
 ----------------------------------------------------------------
 Nuclear Repulsion Energy =   153.4018653655 hartrees
 There are       21 alpha and       21 beta electrons

                       Distance Matrix (Angstroms)
             Cl(  1)   C (  2)   C (  3)   C (  4)   H (  5)   H (  6)
   C (  2)  3.034614
   C (  3)  2.126088  1.516882
   C (  4)  3.494238  1.529587  2.563362
   H (  5)  3.154629  1.095726  2.143525  2.169616
   H (  6)  3.993746  1.099815  2.102628  2.167965  1.758678
   H (  7)  2.622781  2.188218  1.091070  2.808175  3.076309  2.532646
   H (  8)  2.619427  2.185421  1.089756  3.517759  2.508448  2.439933
   H (  9)  3.910265  2.179817  2.827574  1.095814  3.085323  2.526479
   H ( 10)  4.457651  2.173805  3.502475  1.094252  2.506745  2.507312
   H ( 11)  3.031260  2.174826  2.851145  1.093350  2.530661  3.081334
             H (  7)   H (  8)   H (  9)   H ( 10)
   H (  8)  1.780557
   H (  9)  2.633671  3.821587
   H ( 10)  3.814103  4.341593  1.769325
   H ( 11)  3.154700  3.860759  1.770252  1.770877
 
 Applying Cartesian multipole field
    Component          Value
    ---------          -----
     (2,0,0)        1.00000E-11
     (0,2,0)        2.00000E-11
     (0,0,2)       -3.00000E-10
 Nucleus-field energy     =    -0.0000000033 hartrees
 Requested basis set is 6-31G(d,p)
 There are 38 shells and 99 basis functions
 A cutoff of  1.0D-14 yielded    720 shell pairs
 There are      5000 function pairs
 Smallest overlap matrix eigenvalue = 5.98E-03
 Guess from superposition of atomic densities
 Warning:  Energy on first SCF cycle will be non-variational
 SAD guess density has 42.000000 electrons

 -----------------------------------------------------------------------
  General SCF calculation program by
  Eric Jon Sundstrom, Paul Horn, Yuezhi Mao, Dmitri Zuev, Alec White,
  David Stuck, Shaama M.S., Shane Yost, Joonho Lee, David Small,
  Daniel Levine, Susi Lehtola, Hugh Burton, Evgeny Epifanovsky
 -----------------------------------------------------------------------
 Exchange:     0.2000 Hartree-Fock + 0.0800 Slater + 0.7200 B88
 Correlation:  0.1900 VWN1RPA + 0.8100 LYP
 Using SG-1 standard quadrature grid
 using 12 threads for integral computing
 -------------------------------------------------------
 OpenMP Integral computing Module                
 Release: version 1.0, May 2013, Q-Chem Inc. Pittsburgh 
 -------------------------------------------------------
 -------------------------------------------------------
 OpenMP BLAS3 based DFT computing Module                
 Release: version 1.0, May 2013, Q-Chem Inc. Pittsburgh 
 -------------------------------------------------------
 A unrestricted SCF calculation will be
 performed using DIIS
 SCF converges when DIIS error is below 1.0e-06
 Alpha HF Exchange    Energy =  -4.55610283167958
 Beta HF Exchange     Energy =  -4.55610283167958
 DFT Correlation      Energy =  -1.89750609672354
 DFT Exchange         Energy = -35.72610124498249
 One-Electron (alpha) Energy = -547.29796426351231
 One-Electron (beta)  Energy = -547.29796426351231
 Total Coulomb        Energy = 408.97413502136192
 ---------------------------------------
  Cycle       Energy         DIIS error
 ---------------------------------------
    1    -578.9557411486      2.90e-02  
 Alpha HF Exchange    Energy =  -4.57503857239959
 Beta HF Exchange     Energy =  -4.57503857239959
 DFT Correlation      Energy =  -1.92352532245409
 DFT Exchange         Energy = -36.29812779272558
 One-Electron (alpha) Energy = -550.79010286539892
 One-Electron (beta)  Energy = -550.79010286539881
 Total Coulomb        Energy = 416.88489571236386
    2    -578.6651749162      3.49e-03  
 Alpha HF Exchange    Energy =  -4.52260682013029
 Beta HF Exchange     Energy =  -4.52260682013029
 DFT Correlation      Energy =  -1.90082196835063
 DFT Exchange         Energy = -35.86357296412702
 One-Electron (alpha) Energy = -547.41098929866382
 One-Electron (beta)  Energy = -547.41098929866348
 Total Coulomb        Energy = 409.57067116459996
    3    -578.6590506433      3.73e-03  
 Alpha HF Exchange    Energy =  -4.54663201870976
 Beta HF Exchange     Energy =  -4.54663201870976
 DFT Correlation      Energy =  -1.91186291774955
 DFT Exchange         Energy = -36.06170258920635
 One-Electron (alpha) Energy = -549.07844604410502
 One-Electron (beta)  Energy = -549.07844604410514
 Total Coulomb        Energy = 413.09066029238443
    4    -578.7311959780      2.80e-04  
 Alpha HF Exchange    Energy =  -4.54779498481892
 Beta HF Exchange     Energy =  -4.54779498481892
 DFT Correlation      Energy =  -1.91220662025352
 DFT Exchange         Energy = -36.07155834934686
 One-Electron (alpha) Energy = -549.14067304532080
 One-Electron (beta)  Energy = -549.14067304532068
 Total Coulomb        Energy = 413.22730437249146
    5    -578.7315312952      1.01e-04  
 Alpha HF Exchange    Energy =  -4.54743869595755
 Beta HF Exchange     Energy =  -4.54743869595755
 DFT Correlation      Energy =  -1.91201106420001
 DFT Exchange         Energy = -36.06818712681520
 One-Electron (alpha) Energy = -549.10981430583035
 One-Electron (beta)  Energy = -549.10981430583035
 Total Coulomb        Energy = 413.16126766123909
    6    -578.7315711712      4.49e-05  
 Alpha HF Exchange    Energy =  -4.54739885213854
 Beta HF Exchange     Energy =  -4.54739885213854
 DFT Correlation      Energy =  -1.91204864435073
 DFT Exchange         Energy = -36.06809511236126
 One-Electron (alpha) Energy = -549.10984186034204
 One-Electron (beta)  Energy = -549.10984186034204
 Total Coulomb        Energy = 413.16117881171704
    7    -578.7315810078      1.34e-05  
 Alpha HF Exchange    Energy =  -4.54745124267364
 Beta HF Exchange     Energy =  -4.54745124267364
 DFT Correlation      Energy =  -1.91205450687208
 DFT Exchange         Energy = -36.06845920254363
 One-Electron (alpha) Energy = -549.11404807632459
 One-Electron (beta)  Energy = -549.11404807632414
 Total Coulomb        Energy = 413.17006491433494
    8    -578.7315820709      2.42e-06  
 Alpha HF Exchange    Energy =  -4.54744606044539
 Beta HF Exchange     Energy =  -4.54744606044538
 DFT Correlation      Energy =  -1.91205400940915
 DFT Exchange         Energy = -36.06842189926260
 One-Electron (alpha) Energy = -549.11353735210571
 One-Electron (beta)  Energy = -549.11353735210571
 Total Coulomb        Energy = 413.16899526749398
    9    -578.7315821041      4.88e-07  Convergence criterion met
 ---------------------------------------
 SCF time:   CPU 20.58s  wall 2.00s 
<S^2> =          0.000000000
 Alpha HF Exchange    Energy =  -4.54744606044539
 Beta HF Exchange     Energy =  -4.54744606044538
 DFT Correlation      Energy =  -1.91205400940915
 DFT Exchange         Energy = -36.06842189926260
 One-Electron (alpha) Energy = -549.11353735210571
 One-Electron (beta)  Energy = -549.11353735210571
 Total Coulomb        Energy = 413.16899526749398
 Nuclear repulsion Energy = 153.40186536217792
 SCF   energy in the final basis set =     -578.7315821041
 Total energy in the final basis set =     -578.7315821041
 
 --------------------------------------------------------------
 
                    Orbital Energies (a.u.)
 --------------------------------------------------------------
 
 Alpha MOs
 -- Occupied --
******* -10.269 -10.212 -10.186  -9.432  -7.196  -7.187  -7.187
 -0.819  -0.765  -0.693  -0.601  -0.477  -0.466  -0.429  -0.381
 -0.370  -0.361  -0.338  -0.286  -0.285
 -- Virtual --
 -0.053   0.082   0.125   0.131   0.147   0.155   0.173   0.182
  0.204   0.243   0.408   0.449   0.455   0.481   0.502   0.518
  0.556   0.576   0.588   0.649   0.678   0.698   0.749   0.794
  0.834   0.855   0.883   0.891   0.896   0.913   0.916   0.921
  0.956   0.975   1.005   1.092   1.294   1.322   1.416   1.517
  1.536   1.653   1.729   1.798   1.822   1.887   1.962   2.043
  2.059   2.071   2.094   2.099   2.207   2.236   2.267   2.340
  2.360   2.433   2.525   2.588   2.636   2.687   2.760   2.798
  2.838   2.875   2.893   3.171   3.229   3.281   3.361   3.425
  3.477   3.523   4.233   4.271   4.442   4.608
 
 Beta MOs
 -- Occupied --
******* -10.269 -10.212 -10.186  -9.432  -7.196  -7.187  -7.187
 -0.819  -0.765  -0.693  -0.601  -0.477  -0.466  -0.429  -0.381
 -0.370  -0.361  -0.338  -0.286  -0.285
 -- Virtual --
 -0.053   0.082   0.125   0.131   0.147   0.155   0.173   0.182
  0.204   0.243   0.408   0.449   0.455   0.481   0.502   0.518
  0.556   0.576   0.588   0.649   0.678   0.698   0.749   0.794
  0.834   0.855   0.883   0.891   0.896   0.913   0.916   0.921
  0.956   0.975   1.005   1.092   1.294   1.322   1.416   1.517
  1.536   1.653   1.729   1.798   1.822   1.887   1.962   2.043
  2.059   2.071   2.094   2.099   2.207   2.236   2.267   2.340
  2.360   2.433   2.525   2.588   2.636   2.687   2.760   2.798
  2.838   2.875   2.893   3.171   3.229   3.281   3.361   3.425
  3.477   3.523   4.233   4.271   4.442   4.608
 --------------------------------------------------------------
 
          Ground-State Mulliken Net Atomic Charges

     Atom                 Charge (a.u.)    Spin (a.u.)
  --------------------------------------------------------
      1 Cl                   -0.228848       0.000000
      2 C                    -0.184894      -0.000000
      3 C                    -0.198960      -0.000000
      4 C                    -0.318034      -0.000000
      5 H                     0.133832       0.000000
      6 H                     0.120514       0.000000
      7 H                     0.159570      -0.000000
      8 H                     0.159957       0.000000
      9 H                     0.105709       0.000000
     10 H                     0.109282       0.000000
     11 H                     0.141873       0.000000
  --------------------------------------------------------
  Sum of atomic charges =     0.000000
  Sum of spin   charges =     0.000000

 -----------------------------------------------------------------
                    Cartesian Multipole Moments
 -----------------------------------------------------------------
    Charge (ESU x 10^10)
                 0.0000
    Dipole Moment (Debye)
         X      -2.4934      Y       2.1140      Z       0.6461
       Tot       3.3322
    Quadrupole Moments (Debye-Ang)
        XX     -37.2383     XY       1.9771     YY     -31.8933
        XZ       0.8769     YZ       0.3550     ZZ     -32.6432
    Octopole Moments (Debye-Ang^2)
       XXX     -44.7156    XXY       7.3828    XYY     -10.4955
       YYY      18.1284    XXZ       2.0217    XYZ       0.4306
       YYZ       1.7332    XZZ     -12.4339    YZZ       6.1547
       ZZZ       7.8461
    Hexadecapole Moments (Debye-Ang^3)
      XXXX    -501.6574   XXXY      29.0514   XXYY    -104.0542
      XYYY      29.4319   YYYY    -155.0180   XXXZ      17.2776
      XXYZ       0.2525   XYYZ       3.9637   YYYZ      -4.4186
      XXZZ     -94.8282   XYZZ      10.5092   YYZZ     -39.4629
      XZZZ      17.1500   YZZZ      -5.4266   ZZZZ     -67.8367
 -----------------------------------------------------------------
 Calculating analytic gradient of the SCF energy
 Gradient of SCF Energy
            1           2           3           4           5           6
    1   0.0327493  -0.0083618  -0.0127474   0.0007750   0.0005601  -0.0009991
    2  -0.0369182   0.0089497   0.0176401   0.0001119  -0.0008211  -0.0015981
    3  -0.0136754   0.0025936   0.0076479  -0.0005714  -0.0001802  -0.0010772
            7           8           9          10          11
    1  -0.0051775  -0.0062475  -0.0000485  -0.0000340  -0.0004685
    2   0.0076341   0.0056054   0.0000685  -0.0001862  -0.0004860
    3   0.0010708   0.0040394   0.0000875  -0.0000535   0.0001185
 Max gradient component =       3.692E-02
 RMS gradient           =       1.029E-02
 Gradient time:  CPU 8.00 s  wall 0.84 s
 Geometry Optimization Parameters
   NAtoms,    NIC,     NZ,  NCons,   NDum,   NFix, NCnnct, MaxDiis
       11      68       0       1       0       0       0       0

 Cartesian Hessian Update
 Hessian Updated using BFGS Update


** CONSTRAINED OPTIMIZATION IN DELOCALIZED INTERNAL COORDINATES **
   Searching for a Minimum

   Optimization Cycle:   3

                       Coordinates (Angstroms)
     ATOM                X               Y               Z
      1  Cl        1.9260462590   -0.7407425602   -0.2655973516
      2  C        -0.8092293383    0.5723437356   -0.3199338961
      3  C         0.5580691643    0.7847666359    0.3015971379
      4  C        -1.5410102474   -0.6801813777    0.1651581043
      5  H        -0.7107331656    0.5580391538   -1.4111304357
      6  H        -1.3944693077    1.4698187408   -0.0716866620
      7  H         0.5423799060    0.7482207846    1.3919422006
      8  H         1.0331522033    1.7099167600   -0.0239197409
      9  H        -1.6767075024   -0.6633040035    1.2524072572
     10  H        -2.5314950719   -0.7537637965   -0.2940945160
     11  H        -0.9804038994   -1.5835130729   -0.0900420977
   Point Group: c1    Number of degrees of freedom:    27


   Energy is   -578.731582104

              Constraints and their Current Values
                                        Value     Constraint
   Distance(Angs):        1   3             2.126088     3.800000
 Hessian Updated using BFGS Update
**WARNING** Constraint Gradient Reduced for constraint   1

   Using Lagrange Multiplier Algorithm


 26 Hessian modes will be used to form the next step
  Hessian Eigenvalues:
    -0.969450    0.107243    0.107247    0.159840    0.185808    0.195267
     0.197288    0.197983    0.207472    0.252495    0.318775    0.381309
     0.381326    0.383168    0.523658    0.530729    0.701786    0.717106
     0.804580    0.813669    0.813691    0.818145    0.820256    0.823697
     0.827411    1.040972

 Minimum Search - Taking P-RFO Step
 Searching for Lamda that Maximizes Along the Constraint modes Only
 Value Taken    Lamda =   0.03642599
 Searching for Lamda that Minimizes Along All other modes
 Value Taken    Lamda =  -0.05394801
 Calculated Step too Large.  Step scaled by  0.959025
 Step Taken.  Stepsize is  0.300000

                             Maximum     Tolerance    Cnvgd?
         Gradient            0.300000       0.000300      NO
         Displacement        0.274833       0.001200      NO
         Energy change      0.011935       0.000001      NO


 New Cartesian Coordinates Obtained by Inverse Iteration

 Displacement from previous Coordinates is:  0.219849
 ----------------------------------------------------------------
             Standard Nuclear Orientation (Angstroms)
    I     Atom           X                Y                Z
 ----------------------------------------------------------------
    1      Cl      1.9857694400    -0.8148932530    -0.2944524400
    2      C      -0.8206594356     0.5795898620    -0.3177962867
    3      C       0.5263274226     0.8163890722     0.3128077125
    4      C      -1.5425995603    -0.6785549497     0.1664212377
    5      H      -0.7143996711     0.5642825895    -1.4079365058
    6      H      -1.4116893930     1.4764193887    -0.0749106977
    7      H       0.5411587598     0.7564588528     1.4006622992
    8      H       1.0335661915     1.7202446493    -0.0192762522
    9      H      -1.6868435151    -0.6602028331     1.2524142587
   10      H      -2.5284427466    -0.7645586775    -0.3005024663
   11      H      -0.9665884921    -1.5735737011    -0.0827308595
 ----------------------------------------------------------------
 Nuclear Repulsion Energy =   150.5600949359 hartrees
 There are       21 alpha and       21 beta electrons

                       Distance Matrix (Angstroms)
             Cl(  1)   C (  2)   C (  3)   C (  4)   H (  5)   H (  6)
   C (  2)  3.133875
   C (  3)  2.271523  1.506024
   C (  4)  3.560952  1.529246  2.556706
   H (  5)  3.229998  1.095414  2.136334  2.170060
   H (  6)  4.103783  1.101187  2.083717  2.172393  1.759308
   H (  7)  2.725704  2.199757  1.089605  2.815078  3.082464  2.551328
   H (  8)  2.722010  2.197353  1.088359  3.524961  2.513963  2.458012
   H (  9)  3.988084  2.180120  2.821579  1.095684  3.085851  2.530347
   H ( 10)  4.514497  2.173375  3.493875  1.094213  2.506588  2.513963
   H ( 11)  3.055624  2.170867  2.845553  1.093126  2.527884  3.082310
             H (  7)   H (  8)   H (  9)   H ( 10)
   H (  8)  1.785378
   H (  9)  2.644410  3.832017
   H ( 10)  3.824906  4.352154  1.769387
   H ( 11)  3.146873  3.854074  1.770770  1.772377
 
 Applying Cartesian multipole field
    Component          Value
    ---------          -----
     (2,0,0)        1.00000E-11
     (0,2,0)        2.00000E-11
     (0,0,2)       -3.00000E-10
 Nucleus-field energy     =    -0.0000000033 hartrees
 Requested basis set is 6-31G(d,p)
 There are 38 shells and 99 basis functions
 A cutoff of  1.0D-14 yielded    719 shell pairs
 There are      4994 function pairs
 Smallest overlap matrix eigenvalue = 6.01E-03
 Guess from superposition of atomic densities
 Warning:  Energy on first SCF cycle will be non-variational
 SAD guess density has 42.000000 electrons

 -----------------------------------------------------------------------
  General SCF calculation program by
  Eric Jon Sundstrom, Paul Horn, Yuezhi Mao, Dmitri Zuev, Alec White,
  David Stuck, Shaama M.S., Shane Yost, Joonho Lee, David Small,
  Daniel Levine, Susi Lehtola, Hugh Burton, Evgeny Epifanovsky
 -----------------------------------------------------------------------
 Exchange:     0.2000 Hartree-Fock + 0.0800 Slater + 0.7200 B88
 Correlation:  0.1900 VWN1RPA + 0.8100 LYP
 Using SG-1 standard quadrature grid
 using 12 threads for integral computing
 -------------------------------------------------------
 OpenMP Integral computing Module                
 Release: version 1.0, May 2013, Q-Chem Inc. Pittsburgh 
 -------------------------------------------------------
 -------------------------------------------------------
 OpenMP BLAS3 based DFT computing Module                
 Release: version 1.0, May 2013, Q-Chem Inc. Pittsburgh 
 -------------------------------------------------------
 A unrestricted SCF calculation will be
 performed using DIIS
 SCF converges when DIIS error is below 1.0e-06
 Alpha HF Exchange    Energy =  -4.55148513034006
 Beta HF Exchange     Energy =  -4.55148513034006
 DFT Correlation      Energy =  -1.89528486232728
 DFT Exchange         Energy = -35.71727469450148
 One-Electron (alpha) Energy = -544.45722924286781
 One-Electron (beta)  Energy = -544.45722924286781
 Total Coulomb        Energy = 406.15395014282041
 ---------------------------------------
  Cycle       Energy         DIIS error
 ---------------------------------------
    1    -578.9159432279      2.88e-02  
 Alpha HF Exchange    Energy =  -4.57410828170387
 Beta HF Exchange     Energy =  -4.57410828170387
 DFT Correlation      Energy =  -1.92143709393955
 DFT Exchange         Energy = -36.29307629988475
 One-Electron (alpha) Energy = -548.05693144016243
 One-Electron (beta)  Energy = -548.05693144016254
 Total Coulomb        Energy = 414.26683916927720
    2    -578.6496587357      3.52e-03  
 Alpha HF Exchange    Energy =  -4.51803682319629
 Beta HF Exchange     Energy =  -4.51803682319629
 DFT Correlation      Energy =  -1.89883522659877
 DFT Exchange         Energy = -35.83783603260021
 One-Electron (alpha) Energy = -544.41412657941964
 One-Electron (beta)  Energy = -544.41412657941953
 Total Coulomb        Energy = 406.40482838152229
    3    -578.6360747503      3.93e-03  
 Alpha HF Exchange    Energy =  -4.54465414992142
 Beta HF Exchange     Energy =  -4.54465414992142
 DFT Correlation      Energy =  -1.90927516287150
 DFT Exchange         Energy = -36.04852073843500
 One-Electron (alpha) Energy = -546.26663766805143
 One-Electron (beta)  Energy = -546.26663766805177
 Total Coulomb        Energy = 410.30378592769199
    4    -578.7164986770      6.41e-04  
 Alpha HF Exchange    Energy =  -4.54488556442906
 Beta HF Exchange     Energy =  -4.54488556442905
 DFT Correlation      Energy =  -1.91017694679989
 DFT Exchange         Energy = -36.05540059271726
 One-Electron (alpha) Energy = -546.28110715696732
 One-Electron (beta)  Energy = -546.28110715696698
 Total Coulomb        Energy = 410.33919491756097
    5    -578.7182731322      3.05e-04  
 Alpha HF Exchange    Energy =  -4.54535433358250
 Beta HF Exchange     Energy =  -4.54535433358251
 DFT Correlation      Energy =  -1.90996892633436
 DFT Exchange         Energy = -36.05735985193266
 One-Electron (alpha) Energy = -546.30171938139654
 One-Electron (beta)  Energy = -546.30171938139677
 Total Coulomb        Energy = 410.38256083649890
    6    -578.7188204392      5.55e-05  
 Alpha HF Exchange    Energy =  -4.54507664064305
 Beta HF Exchange     Energy =  -4.54507664064305
 DFT Correlation      Energy =  -1.90992013319583
 DFT Exchange         Energy = -36.05524723970706
 One-Electron (alpha) Energy = -546.28272737873147
 One-Electron (beta)  Energy = -546.28272737873112
 Total Coulomb        Energy = 410.34184294368606
    7    -578.7188375354      1.21e-05  
 Alpha HF Exchange    Energy =  -4.54513851943612
 Beta HF Exchange     Energy =  -4.54513851943612
 DFT Correlation      Energy =  -1.90993848234325
 DFT Exchange         Energy = -36.05573159213082
 One-Electron (alpha) Energy = -546.28840866088024
 One-Electron (beta)  Energy = -546.28840866088001
 Total Coulomb        Energy = 410.35383119002250
    8    -578.7188383125      2.27e-06  
 Alpha HF Exchange    Energy =  -4.54513553833656
 Beta HF Exchange     Energy =  -4.54513553833656
 DFT Correlation      Energy =  -1.90993793166184
 DFT Exchange         Energy = -36.05570826405030
 One-Electron (alpha) Energy = -546.28801297657787
 One-Electron (beta)  Energy = -546.28801297657742
 Total Coulomb        Energy = 410.35300995273894
    9    -578.7188383402      5.82e-07  Convergence criterion met
 ---------------------------------------
 SCF time:   CPU 20.49s  wall 2.00s 
<S^2> =          0.000000000
 Alpha HF Exchange    Energy =  -4.54513553833656
 Beta HF Exchange     Energy =  -4.54513553833656
 DFT Correlation      Energy =  -1.90993793166184
 DFT Exchange         Energy = -36.05570826405030
 One-Electron (alpha) Energy = -546.28801297657787
 One-Electron (beta)  Energy = -546.28801297657742
 Total Coulomb        Energy = 410.35300995273894
 Nuclear repulsion Energy = 150.56009493257238
 SCF   energy in the final basis set =     -578.7188383402
 Total energy in the final basis set =     -578.7188383402
 
 --------------------------------------------------------------
 
                    Orbital Energies (a.u.)
 --------------------------------------------------------------
 
 Alpha MOs
 -- Occupied --
******* -10.278 -10.218 -10.189  -9.424  -7.188  -7.178  -7.178
 -0.819  -0.756  -0.699  -0.607  -0.483  -0.470  -0.435  -0.381
 -0.375  -0.365  -0.326  -0.279  -0.278
 -- Virtual --
 -0.080   0.079   0.121   0.129   0.141   0.152   0.170   0.180
  0.202   0.243   0.409   0.448   0.453   0.485   0.504   0.517
  0.559   0.579   0.596   0.645   0.672   0.708   0.751   0.778
  0.833   0.852   0.880   0.890   0.896   0.902   0.911   0.923
  0.955   0.965   0.988   1.086   1.282   1.319   1.390   1.507
  1.520   1.649   1.719   1.784   1.819   1.878   1.963   2.039
  2.053   2.058   2.088   2.095   2.204   2.233   2.257   2.342
  2.361   2.419   2.512   2.599   2.621   2.685   2.758   2.790
  2.840   2.872   2.892   3.169   3.223   3.275   3.360   3.421
  3.475   3.516   4.239   4.266   4.432   4.604
 
 Beta MOs
 -- Occupied --
******* -10.278 -10.218 -10.189  -9.424  -7.188  -7.178  -7.178
 -0.819  -0.756  -0.699  -0.607  -0.483  -0.470  -0.435  -0.381
 -0.375  -0.365  -0.326  -0.279  -0.278
 -- Virtual --
 -0.080   0.079   0.121   0.129   0.141   0.152   0.170   0.180
  0.202   0.243   0.409   0.448   0.453   0.485   0.504   0.517
  0.559   0.579   0.596   0.645   0.672   0.708   0.751   0.778
  0.833   0.852   0.880   0.890   0.896   0.902   0.911   0.923
  0.955   0.965   0.988   1.086   1.282   1.319   1.390   1.507
  1.520   1.649   1.719   1.784   1.819   1.878   1.963   2.039
  2.053   2.058   2.088   2.095   2.204   2.233   2.257   2.342
  2.361   2.419   2.512   2.599   2.621   2.685   2.758   2.790
  2.840   2.872   2.892   3.169   3.223   3.275   3.360   3.421
  3.475   3.516   4.239   4.266   4.432   4.604
 --------------------------------------------------------------
 
          Ground-State Mulliken Net Atomic Charges

     Atom                 Charge (a.u.)    Spin (a.u.)
  --------------------------------------------------------
      1 Cl                   -0.288345      -0.000000
      2 C                    -0.191818      -0.000000
      3 C                    -0.162062       0.000000
      4 C                    -0.319240       0.000000
      5 H                     0.141385      -0.000000
      6 H                     0.126632       0.000000
      7 H                     0.163626      -0.000000
      8 H                     0.163869       0.000000
      9 H                     0.107031      -0.000000
     10 H                     0.110722      -0.000000
     11 H                     0.148201       0.000000
  --------------------------------------------------------
  Sum of atomic charges =     0.000000
  Sum of spin   charges =     0.000000

 -----------------------------------------------------------------
                    Cartesian Multipole Moments
 -----------------------------------------------------------------
    Charge (ESU x 10^10)
                 0.0000
    Dipole Moment (Debye)
         X      -2.9665      Y       2.5037      Z       0.7634
       Tot       3.9562
    Quadrupole Moments (Debye-Ang)
        XX     -38.0799     XY       2.5260     YY     -31.8736
        XZ       1.1214     YZ       0.3257     ZZ     -32.5966
    Octopole Moments (Debye-Ang^2)
       XXX     -49.4791    XXY       9.3307    XYY     -11.7553
       YYY      21.3077    XXZ       2.7119    XYZ       0.3686
       YYZ       2.1872    XZZ     -13.3654    YZZ       7.1753
       ZZZ       8.9326
    Hexadecapole Moments (Debye-Ang^3)
      XXXX    -526.5694   XXXY      39.5865   XXYY    -109.5757
      XYYY      38.4181   YYYY    -165.4100   XXXZ      21.1176
      XXYZ      -0.5940   XYYZ       5.0970   YYYZ      -6.3873
      XXZZ     -98.5849   XYZZ      13.4828   YYZZ     -41.4795
      XZZZ      20.5031   YZZZ      -7.4150   ZZZZ     -68.9075
 -----------------------------------------------------------------
 Calculating analytic gradient of the SCF energy
 Gradient of SCF Energy
            1           2           3           4           5           6
    1   0.0344847  -0.0086149  -0.0159460   0.0010941   0.0005196  -0.0003534
    2  -0.0389888   0.0093457   0.0188282   0.0000551  -0.0012323  -0.0016744
    3  -0.0145514   0.0026839   0.0075061  -0.0008942  -0.0001639  -0.0009426
            7           8           9          10          11
    1  -0.0045064  -0.0059659  -0.0000961  -0.0001467  -0.0004689
    2   0.0085636   0.0057371   0.0000757  -0.0002402  -0.0004698
    3   0.0009959   0.0051558   0.0001097  -0.0000427   0.0001435
 Max gradient component =       3.899E-02
 RMS gradient           =       1.094E-02
 Gradient time:  CPU 7.99 s  wall 0.83 s
 Geometry Optimization Parameters
   NAtoms,    NIC,     NZ,  NCons,   NDum,   NFix, NCnnct, MaxDiis
       11      68       0       1       0       0       0       0

 Cartesian Hessian Update
 Hessian Updated using BFGS Update


** CONSTRAINED OPTIMIZATION IN DELOCALIZED INTERNAL COORDINATES **
   Searching for a Minimum

   Optimization Cycle:   4

                       Coordinates (Angstroms)
     ATOM                X               Y               Z
      1  Cl        1.9857694400   -0.8148932530   -0.2944524400
      2  C        -0.8206594356    0.5795898620   -0.3177962867
      3  C         0.5263274226    0.8163890722    0.3128077125
      4  C        -1.5425995603   -0.6785549497    0.1664212377
      5  H        -0.7143996711    0.5642825895   -1.4079365058
      6  H        -1.4116893930    1.4764193887   -0.0749106977
      7  H         0.5411587598    0.7564588528    1.4006622992
      8  H         1.0335661915    1.7202446493   -0.0192762522
      9  H        -1.6868435151   -0.6602028331    1.2524142587
     10  H        -2.5284427466   -0.7645586775   -0.3005024663
     11  H        -0.9665884921   -1.5735737011   -0.0827308595
   Point Group: c1    Number of degrees of freedom:    27


   Energy is   -578.718838340

              Constraints and their Current Values
                                        Value     Constraint
   Distance(Angs):        1   3             2.271523     3.800000
 Hessian Updated using BFGS Update
**WARNING** Constraint Gradient Reduced for constraint   1

   Using Lagrange Multiplier Algorithm


 27 Hessian modes will be used to form the next step
  Hessian Eigenvalues:
    -0.977438    0.107243    0.107253    0.159717    0.185877    0.195136
     0.195557    0.197291    0.197985    0.252272    0.319132    0.378687
     0.381309    0.381310    0.381691    0.523504    0.530127    0.701779
     0.708837    0.804499    0.813658    0.813691    0.818155    0.820251
     0.823788    0.827502    1.037768

 Minimum Search - Taking P-RFO Step
 Searching for Lamda that Maximizes Along the Constraint modes Only
 Value Taken    Lamda =   0.04172765
 Searching for Lamda that Minimizes Along All other modes
 Value Taken    Lamda =  -0.04985547
 Calculated Step too Large.  Step scaled by  0.912419
 Step Taken.  Stepsize is  0.300000

                             Maximum     Tolerance    Cnvgd?
         Gradient            0.300000       0.000300      NO
         Displacement        0.261235       0.001200      NO
         Energy change      0.012744       0.000001      NO


 New Cartesian Coordinates Obtained by Inverse Iteration

 Displacement from previous Coordinates is:  0.206491
 ----------------------------------------------------------------
             Standard Nuclear Orientation (Angstroms)
    I     Atom           X                Y                Z
 ----------------------------------------------------------------
    1      Cl      2.0361480724    -0.8836761463    -0.3216541154
    2      C      -0.8308372015     0.5866296705    -0.3152370984
    3      C       0.4918617281     0.8497125055     0.3244880194
    4      C      -1.5429036310    -0.6769551754     0.1683318543
    5      H      -0.7153863769     0.5717720854    -1.4040418027
    6      H      -1.4292903867     1.4829648825    -0.0784747032
    7      H       0.5405557610     0.7595338470     1.4078851559
    8      H       1.0355281901     1.7266434749    -0.0177437694
    9      H      -1.6969163925    -0.6569110236     1.2527414823
   10      H      -2.5230414395    -0.7755976946    -0.3075955651
   11      H      -0.9501193235    -1.5625154259    -0.0739994577
 ----------------------------------------------------------------
 Nuclear Repulsion Energy =   148.2447295034 hartrees
 There are       21 alpha and       21 beta electrons

                       Distance Matrix (Angstroms)
             Cl(  1)   C (  2)   C (  3)   C (  4)   H (  5)   H (  6)
   C (  2)  3.222025
   C (  3)  2.409763  1.492646
   C (  4)  3.618346  1.528896  2.548601
   H (  5)  3.295578  1.095009  2.126620  2.171742
   H (  6)  4.203497  1.103458  2.062574  2.176942  1.759846
   H (  7)  2.815713  2.209019  1.088234  2.817942  3.085381  2.571558
   H (  8)  2.812005  2.207137  1.087062  3.529904  2.514210  2.477579
   H (  9)  4.057821  2.180606  2.814661  1.095475  3.087323  2.534330
   H ( 10)  4.560492  2.172390  3.482930  1.094033  2.507033  2.519899
   H ( 11)  3.072450  2.165929  2.838476  1.092856  2.525727  3.082949
             H (  7)   H (  8)   H (  9)   H ( 10)
   H (  8)  1.792405
   H (  9)  2.652672  3.842098
   H ( 10)  3.832118  4.359890  1.769526
   H ( 11)  3.132093  3.842464  1.771459  1.774230
 
 Applying Cartesian multipole field
    Component          Value
    ---------          -----
     (2,0,0)        1.00000E-11
     (0,2,0)        2.00000E-11
     (0,0,2)       -3.00000E-10
 Nucleus-field energy     =    -0.0000000034 hartrees
 Requested basis set is 6-31G(d,p)
 There are 38 shells and 99 basis functions
 A cutoff of  1.0D-14 yielded    717 shell pairs
 There are      4972 function pairs
 Smallest overlap matrix eigenvalue = 6.00E-03
 Guess from superposition of atomic densities
 Warning:  Energy on first SCF cycle will be non-variational
 SAD guess density has 42.000000 electrons

 -----------------------------------------------------------------------
  General SCF calculation program by
  Eric Jon Sundstrom, Paul Horn, Yuezhi Mao, Dmitri Zuev, Alec White,
  David Stuck, Shaama M.S., Shane Yost, Joonho Lee, David Small,
  Daniel Levine, Susi Lehtola, Hugh Burton, Evgeny Epifanovsky
 -----------------------------------------------------------------------
 Exchange:     0.2000 Hartree-Fock + 0.0800 Slater + 0.7200 B88
 Correlation:  0.1900 VWN1RPA + 0.8100 LYP
 Using SG-1 standard quadrature grid
 using 12 threads for integral computing
 -------------------------------------------------------
 OpenMP Integral computing Module                
 Release: version 1.0, May 2013, Q-Chem Inc. Pittsburgh 
 -------------------------------------------------------
 -------------------------------------------------------
 OpenMP BLAS3 based DFT computing Module                
 Release: version 1.0, May 2013, Q-Chem Inc. Pittsburgh 
 -------------------------------------------------------
 A unrestricted SCF calculation will be
 performed using DIIS
 SCF converges when DIIS error is below 1.0e-06
 Alpha HF Exchange    Energy =  -4.54905135979675
 Beta HF Exchange     Energy =  -4.54905135979675
 DFT Correlation      Energy =  -1.89363528124464
 DFT Exchange         Energy = -35.71284261289132
 One-Electron (alpha) Energy = -542.13824359807222
 One-Electron (beta)  Energy = -542.13824359807222
 Total Coulomb        Energy = 403.83939289133707
 ---------------------------------------
  Cycle       Energy         DIIS error
 ---------------------------------------
    1    -578.8969454186      2.87e-02  
 Alpha HF Exchange    Energy =  -4.57461379211338
 Beta HF Exchange     Energy =  -4.57461379211338
 DFT Correlation      Energy =  -1.92001408519214
 DFT Exchange         Energy = -36.29653553794163
 One-Electron (alpha) Energy = -545.87365406538049
 One-Electron (beta)  Energy = -545.87365406538072
 Total Coulomb        Energy = 412.23722631082342
    2    -578.6311295273      3.61e-03  
 Alpha HF Exchange    Energy =  -4.51364649757721
 Beta HF Exchange     Energy =  -4.51364649757720
 DFT Correlation      Energy =  -1.89738757489675
 DFT Exchange         Energy = -35.81400264273630
 One-Electron (alpha) Energy = -541.82795960794704
 One-Electron (beta)  Energy = -541.82795960794624
 Total Coulomb        Energy = 403.56724668164748
    3    -578.5826262471      4.65e-03  
 Alpha HF Exchange    Energy =  -4.54307678567683
 Beta HF Exchange     Energy =  -4.54307678567683
 DFT Correlation      Energy =  -1.90668610393580
 DFT Exchange         Energy = -36.03446166704403
 One-Electron (alpha) Energy = -543.93739056908612
 One-Electron (beta)  Energy = -543.93739056908612
 Total Coulomb        Energy = 407.96168974389127
    4    -578.6956632366      1.35e-03  
 Alpha HF Exchange    Energy =  -4.54310507697978
 Beta HF Exchange     Energy =  -4.54310507697978
 DFT Correlation      Energy =  -1.90857529081404
 DFT Exchange         Energy = -36.04612603477491
 One-Electron (alpha) Energy = -543.96089833907081
 One-Electron (beta)  Energy = -543.96089833907104
 Total Coulomb        Energy = 408.01149815028913
    5    -578.7064805074      3.10e-04  
 Alpha HF Exchange    Energy =  -4.54391366477307
 Beta HF Exchange     Energy =  -4.54391366477308
 DFT Correlation      Energy =  -1.90846430275027
 DFT Exchange         Energy = -36.05073140892044
 One-Electron (alpha) Energy = -544.00131564046364
 One-Electron (beta)  Energy = -544.00131564046387
 Total Coulomb        Energy = 408.09785287667302
    6    -578.7070719455      6.12e-05  
 Alpha HF Exchange    Energy =  -4.54361307323205
 Beta HF Exchange     Energy =  -4.54361307323206
 DFT Correlation      Energy =  -1.90838899558316
 DFT Exchange         Energy = -36.04830397492242
 One-Electron (alpha) Energy = -543.98009686129251
 One-Electron (beta)  Energy = -543.98009686129296
 Total Coulomb        Energy = 408.05229289068177
    7    -578.7070904489      1.48e-05  
 Alpha HF Exchange    Energy =  -4.54368252390057
 Beta HF Exchange     Energy =  -4.54368252390056
 DFT Correlation      Energy =  -1.90840948636229
 DFT Exchange         Energy = -36.04883907071417
 One-Electron (alpha) Energy = -543.98659123857055
 One-Electron (beta)  Energy = -543.98659123857021
 Total Coulomb        Energy = 408.06597491623631
    8    -578.7070916658      2.27e-06  
 Alpha HF Exchange    Energy =  -4.54368261620944
 Beta HF Exchange     Energy =  -4.54368261620944
 DFT Correlation      Energy =  -1.90840965326221
 DFT Exchange         Energy = -36.04883804694061
 One-Electron (alpha) Energy = -543.98641373423277
 One-Electron (beta)  Energy = -543.98641373423300
 Total Coulomb        Energy = 408.06561920933279
    9    -578.7070916918      7.12e-07  Convergence criterion met
 ---------------------------------------
 SCF time:   CPU 19.66s  wall 2.00s 
<S^2> =          0.000000000
 Alpha HF Exchange    Energy =  -4.54368261620944
 Beta HF Exchange     Energy =  -4.54368261620944
 DFT Correlation      Energy =  -1.90840965326221
 DFT Exchange         Energy = -36.04883804694061
 One-Electron (alpha) Energy = -543.98641373423277
 One-Electron (beta)  Energy = -543.98641373423300
 Total Coulomb        Energy = 408.06561920933279
 Nuclear repulsion Energy = 148.24472949997880
 SCF   energy in the final basis set =     -578.7070916918
 Total energy in the final basis set =     -578.7070916918
 
 --------------------------------------------------------------
 
                    Orbital Energies (a.u.)
 --------------------------------------------------------------
 
 Alpha MOs
 -- Occupied --
******* -10.286 -10.224 -10.193  -9.415  -7.179  -7.170  -7.169
 -0.823  -0.745  -0.704  -0.613  -0.490  -0.474  -0.442  -0.385
 -0.379  -0.370  -0.311  -0.271  -0.270
 -- Virtual --
 -0.099   0.077   0.117   0.125   0.135   0.150   0.167   0.179
  0.202   0.244   0.411   0.446   0.452   0.486   0.505   0.515
  0.560   0.581   0.598   0.640   0.667   0.715   0.749   0.776
  0.831   0.849   0.876   0.886   0.893   0.897   0.913   0.929
  0.951   0.963   0.975   1.080   1.272   1.319   1.353   1.492
  1.509   1.644   1.713   1.777   1.819   1.872   1.969   2.035
  2.042   2.051   2.082   2.091   2.201   2.232   2.247   2.345
  2.362   2.405   2.500   2.603   2.613   2.683   2.754   2.784
  2.841   2.869   2.892   3.168   3.217   3.268   3.363   3.417
  3.474   3.509   4.233   4.277   4.417   4.598
 
 Beta MOs
 -- Occupied --
******* -10.286 -10.224 -10.193  -9.415  -7.179  -7.170  -7.169
 -0.823  -0.745  -0.704  -0.613  -0.490  -0.474  -0.442  -0.385
 -0.379  -0.370  -0.311  -0.271  -0.270
 -- Virtual --
 -0.099   0.077   0.117   0.125   0.135   0.150   0.167   0.179
  0.202   0.244   0.411   0.446   0.452   0.486   0.505   0.515
  0.560   0.581   0.598   0.640   0.667   0.715   0.749   0.776
  0.831   0.849   0.876   0.886   0.893   0.897   0.913   0.929
  0.951   0.963   0.975   1.080   1.272   1.319   1.353   1.492
  1.509   1.644   1.713   1.777   1.819   1.872   1.969   2.035
  2.042   2.051   2.082   2.091   2.201   2.232   2.247   2.345
[...]
    4      C      -1.3452528215    -0.6949403153     0.0971027950
    5      H      -0.8709995692     0.9003326035    -1.3528798214
    6      H      -1.7537005345     1.4193531037     0.0830844268
    7      H       0.4047177993     1.0357042541     1.4596703859
    8      H       0.9496340738     1.9157544006    -0.0791438939
    9      H      -1.4541851488    -0.8114250450     1.1792366120
   10      H      -2.2966151139    -0.9434824696    -0.3790388533
   11      H      -0.5534008857    -1.3728209373    -0.2421263394
 ----------------------------------------------------------------
 Nuclear Repulsion Energy =   134.4475413726 hartrees
 There are       21 alpha and       21 beta electrons

                       Distance Matrix (Angstroms)
             Cl(  1)   C (  2)   C (  3)   C (  4)   H (  5)   H (  6)
   C (  2)  4.063115
   C (  3)  3.800000  1.450352
   C (  4)  3.649720  1.542384  2.530957
   H (  5)  4.264132  1.093618  2.111228  2.207320
   H (  6)  5.132223  1.116797  2.025738  2.153430  1.763671
   H (  7)  3.874538  2.209812  1.087063  2.813204  3.091313  2.588618
   H (  8)  4.093154  2.228180  1.086121  3.480416  2.442988  2.753316
   H (  9)  3.966118  2.190749  2.780122  1.093823  3.111564  2.503524
   H ( 10)  4.464719  2.171201  3.446520  1.092508  2.525945  2.468057
   H ( 11)  2.668133  2.153240  2.819885  1.096188  2.549876  3.056586
             H (  7)   H (  8)   H (  9)   H ( 10)
   H (  8)  1.854554
   H (  9)  2.635536  3.846996
   H ( 10)  3.820371  4.336278  1.776330
   H ( 11)  3.100822  3.619448  1.773936  1.800520
 
 Applying Cartesian multipole field
    Component          Value
    ---------          -----
     (2,0,0)        1.00000E-11
     (0,2,0)        2.00000E-11
     (0,0,2)       -3.00000E-10
 Nucleus-field energy     =     0.0000000016 hartrees
 Requested basis set is 6-31G(d,p)
 There are 38 shells and 99 basis functions
 A cutoff of  1.0D-14 yielded    703 shell pairs
 There are      4874 function pairs
 Smallest overlap matrix eigenvalue = 5.82E-03
 Guess from superposition of atomic densities
 Warning:  Energy on first SCF cycle will be non-variational
 SAD guess density has 42.000000 electrons

 -----------------------------------------------------------------------
  General SCF calculation program by
  Eric Jon Sundstrom, Paul Horn, Yuezhi Mao, Dmitri Zuev, Alec White,
  David Stuck, Shaama M.S., Shane Yost, Joonho Lee, David Small,
  Daniel Levine, Susi Lehtola, Hugh Burton, Evgeny Epifanovsky
 -----------------------------------------------------------------------
 Exchange:     0.2000 Hartree-Fock + 0.0800 Slater + 0.7200 B88
 Correlation:  0.1900 VWN1RPA + 0.8100 LYP
 Using SG-1 standard quadrature grid
 using 12 threads for integral computing
 -------------------------------------------------------
 OpenMP Integral computing Module                
 Release: version 1.0, May 2013, Q-Chem Inc. Pittsburgh 
 -------------------------------------------------------
 -------------------------------------------------------
 OpenMP BLAS3 based DFT computing Module                
 Release: version 1.0, May 2013, Q-Chem Inc. Pittsburgh 
 -------------------------------------------------------
 A unrestricted SCF calculation will be
 performed using DIIS
 SCF converges when DIIS error is below 1.0e-06
 Alpha HF Exchange    Energy =  -4.54363936911005
 Beta HF Exchange     Energy =  -4.54363936911005
 DFT Correlation      Energy =  -1.88712508732625
 DFT Exchange         Energy = -35.70444372632849
 One-Electron (alpha) Energy = -528.33279310772809
 One-Electron (beta)  Energy = -528.33279310772809
 Total Coulomb        Energy = 390.03521737101840
 ---------------------------------------
  Cycle       Energy         DIIS error
 ---------------------------------------
    1    -578.8616750221      2.87e-02  
 Alpha HF Exchange    Energy =  -4.58367211822554
 Beta HF Exchange     Energy =  -4.58367211822554
 DFT Correlation      Energy =  -1.91499130259463
 DFT Exchange         Energy = -36.34114962816685
 One-Electron (alpha) Energy = -532.78438038047557
 One-Electron (beta)  Energy = -532.78438038047557
 Total Coulomb        Energy = 400.06895954550890
    2    -578.4757450085      4.21e-03  
 Alpha HF Exchange    Energy =  -4.51899091306436
 Beta HF Exchange     Energy =  -4.51899091306435
 DFT Correlation      Energy =  -1.89517181110486
 DFT Exchange         Energy = -35.82297224180175
 One-Electron (alpha) Energy = -526.19630401992060
 One-Electron (beta)  Energy = -526.19630401991992
 Total Coulomb        Energy = 387.29098574403389
    3    -577.4102068006      1.10e-02  
 Alpha HF Exchange    Energy =  -4.53568149309216
 Beta HF Exchange     Energy =  -4.53568149309215
 DFT Correlation      Energy =  -1.89554997942564
 DFT Exchange         Energy = -35.95413252453800
 One-Electron (alpha) Energy = -529.87507599438015
 One-Electron (beta)  Energy = -529.87507599437981
 Total Coulomb        Energy = 393.68621557085703
    4    -578.5374405339      3.11e-03  
 Alpha HF Exchange    Energy =  -4.53251548044590
 Beta HF Exchange     Energy =  -4.53251548044589
 DFT Correlation      Energy =  -1.90335797136624
 DFT Exchange         Energy = -35.99800496134848
 One-Electron (alpha) Energy = -528.65459399651718
 One-Electron (beta)  Energy = -528.65459399651672
 Total Coulomb        Energy = 391.62450894307580
    5    -578.2035315694      6.54e-03  
 Alpha HF Exchange    Energy =  -4.53648836006044
 Beta HF Exchange     Energy =  -4.53648836006044
 DFT Correlation      Energy =  -1.90244575014415
 DFT Exchange         Energy = -36.02917149715704
 One-Electron (alpha) Energy = -530.20133554271558
 One-Electron (beta)  Energy = -530.20133554271581
 Total Coulomb        Energy = 394.33341131171693
    6    -578.6263123669      3.59e-04  
 Alpha HF Exchange    Energy =  -4.53350617462943
 Beta HF Exchange     Energy =  -4.53350617462943
 DFT Correlation      Energy =  -1.90246604002585
 DFT Exchange         Energy = -36.02254951472133
 One-Electron (alpha) Energy = -529.97792793350038
 One-Electron (beta)  Energy = -529.97792793350084
 Total Coulomb        Energy = 393.88482384144800
    7    -578.6155185554      1.17e-03  
 Alpha HF Exchange    Energy =  -4.53393063045188
 Beta HF Exchange     Energy =  -4.53393063045189
 DFT Correlation      Energy =  -1.90242356293713
 DFT Exchange         Energy = -36.02318229199244
 One-Electron (alpha) Energy = -530.01720204559990
 One-Electron (beta)  Energy = -530.01720204560047
 Total Coulomb        Energy = 393.96106756854817
    8    -578.6192622643      9.59e-04  
 Alpha HF Exchange    Energy =  -4.53597591032653
 Beta HF Exchange     Energy =  -4.53597591032654
 DFT Correlation      Energy =  -1.90250160634198
 DFT Exchange         Energy = -36.03145475247114
 One-Electron (alpha) Energy = -530.16288737584819
 One-Electron (beta)  Energy = -530.16288737584875
 Total Coulomb        Energy = 394.25838755257416
    9    -578.6257540044      4.26e-04  
 Alpha HF Exchange    Energy =  -4.53730575234401
 Beta HF Exchange     Energy =  -4.53730575234404
 DFT Correlation      Energy =  -1.90241371495230
 DFT Exchange         Energy = -36.03465271324053
 One-Electron (alpha) Energy = -530.24522599970726
 One-Electron (beta)  Energy = -530.24522599970896
 Total Coulomb        Energy = 394.42731331449505
   10    -578.6272752436      1.87e-05  
 Alpha HF Exchange    Energy =  -4.53724785515173
 Beta HF Exchange     Energy =  -4.53724785515178
 DFT Correlation      Energy =  -1.90242173493277
 DFT Exchange         Energy = -36.03452532856436
 One-Electron (alpha) Energy = -530.24394555580329
 One-Electron (beta)  Energy = -530.24394555580602
 Total Coulomb        Energy = 394.42451372683666
   11    -578.6272787844      6.47e-06  
 Alpha HF Exchange    Energy =  -4.53727127614855
 Beta HF Exchange     Energy =  -4.53727127614865
 DFT Correlation      Energy =  -1.90242350027530
 DFT Exchange         Energy = -36.03462958485559
 One-Electron (alpha) Energy = -530.24519154084317
 One-Electron (beta)  Energy = -530.24519154084919
 Total Coulomb        Energy = 394.42715780630942
   12    -578.6272795386      1.97e-06  
 Alpha HF Exchange    Energy =  -4.53726728252562
 Beta HF Exchange     Energy =  -4.53726728252583
 DFT Correlation      Energy =  -1.90242191146232
 DFT Exchange         Energy = -36.03459667973911
 One-Electron (alpha) Energy = -530.24483195548021
 One-Electron (beta)  Energy = -530.24483195549180
 Total Coulomb        Energy = 394.42639594412771
   13    -578.6272797489      1.04e-06  
 Alpha HF Exchange    Energy =  -4.53726924282613
 Beta HF Exchange     Energy =  -4.53726924282657
 DFT Correlation      Energy =  -1.90242226620739
 DFT Exchange         Energy = -36.03460794671494
 One-Electron (alpha) Energy = -530.24500408644747
 One-Electron (beta)  Energy = -530.24500408647282
 Total Coulomb        Energy = 394.42675566011656
   14    -578.6272798372      3.92e-07  Convergence criterion met
 ---------------------------------------
 SCF time:   CPU 30.34s  wall 2.00s 
<S^2> =         -0.000000000
 Alpha HF Exchange    Energy =  -4.53726924282613
 Beta HF Exchange     Energy =  -4.53726924282657
 DFT Correlation      Energy =  -1.90242226620739
 DFT Exchange         Energy = -36.03460794671494
 One-Electron (alpha) Energy = -530.24500408644747
 One-Electron (beta)  Energy = -530.24500408647282
 Total Coulomb        Energy = 394.42675566011656
 Nuclear repulsion Energy = 134.44754137419207
 SCF   energy in the final basis set =     -578.6272798372
 Total energy in the final basis set =     -578.6272798372
 
 --------------------------------------------------------------
 
                    Orbital Energies (a.u.)
 --------------------------------------------------------------
 
 Alpha MOs
 -- Occupied --
******* -10.318 -10.256 -10.210  -9.365  -7.128  -7.121  -7.121
 -0.857  -0.731  -0.691  -0.642  -0.535  -0.495  -0.472  -0.412
 -0.400  -0.388  -0.235  -0.227  -0.227
 -- Virtual --
 -0.180   0.057   0.082   0.090   0.126   0.138   0.150   0.184
  0.201   0.231   0.407   0.438   0.465   0.471   0.490   0.514
  0.533   0.550   0.587   0.603   0.650   0.685   0.747   0.757
  0.780   0.838   0.856   0.874   0.884   0.907   0.936   0.960
  0.961   0.970   0.972   1.069   1.176   1.248   1.337   1.396
  1.488   1.610   1.652   1.779   1.810   1.867   1.888   1.955
  2.016   2.039   2.063   2.070   2.168   2.229   2.247   2.282
  2.363   2.417   2.442   2.525   2.623   2.654   2.694   2.763
  2.798   2.850   2.883   3.158   3.186   3.220   3.379   3.403
  3.432   3.512   4.165   4.304   4.372   4.565
 
 Beta MOs
 -- Occupied --
******* -10.318 -10.256 -10.210  -9.365  -7.128  -7.121  -7.121
 -0.857  -0.731  -0.691  -0.642  -0.535  -0.495  -0.472  -0.412
 -0.400  -0.388  -0.235  -0.227  -0.227
 -- Virtual --
 -0.180   0.057   0.082   0.090   0.126   0.138   0.150   0.184
  0.201   0.231   0.407   0.438   0.465   0.471   0.490   0.514
  0.533   0.550   0.587   0.603   0.650   0.685   0.747   0.757
  0.780   0.838   0.856   0.874   0.884   0.907   0.936   0.960
  0.961   0.970   0.972   1.069   1.176   1.248   1.337   1.396
  1.488   1.610   1.652   1.779   1.810   1.867   1.888   1.955
  2.016   2.039   2.063   2.070   2.168   2.229   2.247   2.282
  2.363   2.417   2.442   2.525   2.623   2.654   2.694   2.763
  2.798   2.850   2.883   3.158   3.186   3.220   3.379   3.403
  3.432   3.512   4.165   4.304   4.372   4.565
 --------------------------------------------------------------
 
          Ground-State Mulliken Net Atomic Charges

     Atom                 Charge (a.u.)    Spin (a.u.)
  --------------------------------------------------------
      1 Cl                   -0.515700      -0.000000
      2 C                    -0.242591      -0.000000
      3 C                    -0.068923       0.000000
      4 C                    -0.323211       0.000000
      5 H                     0.162585       0.000000
      6 H                     0.171777       0.000000
      7 H                     0.188780      -0.000000
      8 H                     0.187242      -0.000000
      9 H                     0.121420      -0.000000
     10 H                     0.121347       0.000000
     11 H                     0.197274       0.000000
  --------------------------------------------------------
  Sum of atomic charges =    -0.000000
  Sum of spin   charges =    -0.000000

 -----------------------------------------------------------------
                    Cartesian Multipole Moments
 -----------------------------------------------------------------
    Charge (ESU x 10^10)
                -0.0000
    Dipole Moment (Debye)
         X      -5.4365      Y       7.0488      Z       1.1454
       Tot       8.9751
    Quadrupole Moments (Debye-Ang)
        XX     -40.9259     XY       9.8621     YY     -38.4690
        XZ       1.6090     YZ      -0.4919     ZZ     -32.1726
    Octopole Moments (Debye-Ang^2)
       XXX     -63.9602    XXY      39.7355    XYY     -29.3898
       YYY      83.0333    XXZ       3.6333    XYZ      -1.6394
       YYZ       3.9940    XZZ     -14.9959    YZZ      22.8911
       ZZZ       8.1985
    Hexadecapole Moments (Debye-Ang^3)
      XXXX    -547.2896   XXXY     187.8579   XXYY    -191.9887
      XYYY     186.1588   YYYY    -519.2557   XXXZ      22.5484
      XXYZ     -10.9529   XYYZ       7.6506   YYYZ     -27.5298
      XXZZ     -99.3313   XYZZ      54.2506   YYZZ     -95.7632
      XZZZ      19.2083   YZZZ     -25.8392   ZZZZ     -66.1482
 -----------------------------------------------------------------
 Calculating analytic gradient of the SCF energy
 Gradient of SCF Energy
            1           2           3           4           5           6
    1   0.0074750  -0.0001774  -0.0075033   0.0000010  -0.0000392   0.0001108
    2  -0.0135080  -0.0002789   0.0135237   0.0003073   0.0000674  -0.0000164
    3  -0.0028220   0.0000006   0.0028034   0.0000865  -0.0000061   0.0000410
            7           8           9          10          11
    1   0.0000459  -0.0000145   0.0000463   0.0000064   0.0000489
    2   0.0000244   0.0000620  -0.0000918  -0.0001098   0.0000202
    3   0.0000245  -0.0000528   0.0000016  -0.0000517  -0.0000252
 Max gradient component =       1.352E-02
 RMS gradient           =       3.868E-03
 Gradient time:  CPU 7.63 s  wall 0.82 s
 Geometry Optimization Parameters
   NAtoms,    NIC,     NZ,  NCons,   NDum,   NFix, NCnnct, MaxDiis
       11      68       0       1       0       0       0       0

 Cartesian Hessian Update
 Hessian Updated using BFGS Update


** CONSTRAINED OPTIMIZATION IN DELOCALIZED INTERNAL COORDINATES **
   Searching for a Minimum

   Optimization Cycle:  39

                       Coordinates (Angstroms)
     ATOM                X               Y               Z
      1  Cl        2.0331983573   -2.0269103275   -0.2667380634
      2  C        -0.9368161723    0.7457942986   -0.2722384466
      3  C         0.2390190154    1.2542414341    0.4077711983
      4  C        -1.3452528215   -0.6949403153    0.0971027950
      5  H        -0.8709995692    0.9003326035   -1.3528798214
      6  H        -1.7537005345    1.4193531037    0.0830844268
      7  H         0.4047177993    1.0357042541    1.4596703859
      8  H         0.9496340738    1.9157544006   -0.0791438939
      9  H        -1.4541851488   -0.8114250450    1.1792366120
     10  H        -2.2966151139   -0.9434824696   -0.3790388533
     11  H        -0.5534008857   -1.3728209373   -0.2421263394
   Point Group: c1    Number of degrees of freedom:    27


   Energy is   -578.627279837

              Constraints and their Current Values
                                        Value     Constraint
   Distance(Angs):        1   3             3.800000     3.800000
 Hessian Updated using BFGS Update

 26 Hessian modes will be used to form the next step
  Hessian Eigenvalues:
     0.001675    0.011198    0.022154    0.035999    0.058295    0.078300
     0.138925    0.196024    0.216289    0.223843    0.281238    0.310352
     0.338985    0.363294    0.377941    0.380864    0.533162    0.600221
     0.693972    0.758873    0.810259    0.812977    0.815879    0.819955
     0.821982    0.825791

 Minimum Search - Taking Simple RFO Step
 Searching for Lamda that Minimizes Along All modes
 Value Taken    Lamda =   0.00000000
 Step Taken.  Stepsize is  0.002686

                             Maximum     Tolerance    Cnvgd?
         Gradient           0.000166      0.000300     YES
         Displacement       0.001126      0.001200     YES
         Energy change     -0.000001      0.000001      NO


                       Distance Matrix (Angstroms)
             Cl(  1)   C (  2)   C (  3)   C (  4)   H (  5)   H (  6)
   C (  2)  4.063115
   C (  3)  3.800000  1.450352
   C (  4)  3.649720  1.542384  2.530957
   H (  5)  4.264132  1.093618  2.111228  2.207320
   H (  6)  5.132223  1.116797  2.025738  2.153430  1.763671
   H (  7)  3.874538  2.209812  1.087063  2.813204  3.091313  2.588618
   H (  8)  4.093154  2.228180  1.086121  3.480416  2.442988  2.753316
   H (  9)  3.966118  2.190749  2.780122  1.093823  3.111564  2.503524
   H ( 10)  4.464719  2.171201  3.446520  1.092508  2.525945  2.468057
   H ( 11)  2.668133  2.153240  2.819885  1.096188  2.549876  3.056586
             H (  7)   H (  8)   H (  9)   H ( 10)
   H (  8)  1.854554
   H (  9)  2.635536  3.846996
   H ( 10)  3.820371  4.336278  1.776330
   H ( 11)  3.100822  3.619448  1.773936  1.800520
 
 Final energy is   -578.627279837187     


 ******************************
 **  OPTIMIZATION CONVERGED  **
 ******************************

                       Coordinates (Angstroms)
     ATOM                X               Y               Z
      1  Cl        2.0331983573   -2.0269103275   -0.2667380634
      2  C        -0.9368161723    0.7457942986   -0.2722384466
      3  C         0.2390190154    1.2542414341    0.4077711983
      4  C        -1.3452528215   -0.6949403153    0.0971027950
      5  H        -0.8709995692    0.9003326035   -1.3528798214
      6  H        -1.7537005345    1.4193531037    0.0830844268
      7  H         0.4047177993    1.0357042541    1.4596703859
      8  H         0.9496340738    1.9157544006   -0.0791438939
      9  H        -1.4541851488   -0.8114250450    1.1792366120
     10  H        -2.2966151139   -0.9434824696   -0.3790388533
     11  H        -0.5534008857   -1.3728209373   -0.2421263394

Z-matrix Print:
$molecule
0 1
Cl
H  1 2.668133
C  2 1.096188 1 148.731953
H  3 1.092508 2 110.700796 1 173.345124 0
H  3 1.093823 2 108.194276 1 -67.672946 0
C  3 1.542384 2 108.194837 1 52.988601 0
H  6 1.093618 3 112.615998 2 64.179635 0
H  6 1.116797 3 107.066773 2 -179.878060 0
C  6 1.450352 3 115.459788 2 -65.332099 0
H  9 1.086121 6 122.259598 3 144.305085 0
H  9 1.087063 6 120.450425 3 -39.914682 0
$end

PES scan, value:    3.8000 energy: -578.6272798372
------- Summary of potential scan: ------ 
    3.8000      -578.6272798372
----------------------------------------- 
Archival summary:
1\1\hpc0332\JobtypUnspecified\ProcedureUnspecified\6-31G**\l137\knomura\MonMar1119:51:202019MonMar1119:51:202019\0\\#,JobtypUnspecified,ProcedureUnspecified,6-31G**,\\0,1\Cl\H,1,2.66813\C,2,1.09619,1,148.732\H,3,1.09251,2,110.701,1,173.345,0\H,3,1.09382,2,108.194,1,-67.6729,0\C,3,1.54238,2,108.195,1,52.9886,0\H,6,1.09362,3,112.616,2,64.1796,0\H,6,1.1168,3,107.067,2,-179.878,0\C,6,1.45035,3,115.46,2,-65.3321,0\H,9,1.08612,6,122.26,3,144.305,0\H,9,1.08706,6,120.45,3,-39.9147,0\\\@

 Total job time:  153.47s(wall), 1604.51s(cpu) 
 Mon Mar 11 19:51:20 2019

        *************************************************************
        *                                                           *
        *  Thank you very much for using Q-Chem.  Have a nice day.  *
        *                                                           *
        *************************************************************


