
Running Job 1 of 1 ruruma/CH3CH2CH2Cl_afterGeo_singlet.xyz.data/inputs/bond_triplet_1.9.in
qchem ruruma/CH3CH2CH2Cl_afterGeo_singlet.xyz.data/inputs/bond_triplet_1.9.in_15517.0 /staging/scratch/2858534/qchem15517/ 1
/usr/usc/qchem/5.1.1/exe/qcprog.exe_s ruruma/CH3CH2CH2Cl_afterGeo_singlet.xyz.data/inputs/bond_triplet_1.9.in_15517.0 /staging/scratch/2858534/qchem15517/
Check license passed

                  Welcome to Q-Chem
     A Quantum Leap Into The Future Of Chemistry


 Q-Chem 5.1, Q-Chem, Inc., Pleasanton, CA (2018)

 Yihan Shao,  Zhengting Gan,  E. Epifanovsky,  A. T. B. Gilbert,  M. Wormit,  
 J. Kussmann,  A. W. Lange,  A. Behn,  Jia Deng,  Xintian Feng,  D. Ghosh,  
 M. Goldey,  P. R. Horn,  L. D. Jacobson,  I. Kaliman,  T. Kus,  A. Landau,  
 Jie Liu,  E. I. Proynov,  R. M. Richard,  R. P. Steele,  E. J. Sundstrom,  
 H. L. Woodcock III,  P. M. Zimmerman,  D. Zuev,  B. Albrecht,  E. Alguire,  
 S. A. Baeppler,  D. Barton,  Z. Benda,  Y. A. Bernard,  E. J. Berquist,  
 K. B. Bravaya,  H. Burton,  D. Casanova,  Chun-Min Chang,  Yunqing Chen,  
 A. Chien,  K. D. Closser,  M. P. Coons,  S. Coriani,  S. Dasgupta,  
 A. L. Dempwolff,  M. Diedenhofen,  Hainam Do,  R. G. Edgar,  Po-Tung Fang,  
 S. Faraji,  S. Fatehi,  Qingguo Feng,  K. D. Fenk,  J. Fosso-Tande,  
 Qinghui Ge,  A. Ghysels,  G. Gidofalvi,  J. Gomes,  J. Gonthier,  A. Gunina,  
 D. Hait,  M. W. D. Hanson-Heine,  P. H. P. Harbach,  A. W. Hauser,  
 J. E. Herr,  E. G. Hohenstein,  Z. C. Holden,  Kerwin Hui,  B. C. Huynh,  
 T.-C. Jagau,  Hyunjun Ji,  B. Kaduk,  K. Khistyaev,  Jaehoon Kim,  
 P. Klunzinger,  K. Koh,  D. Kosenkov,  L. Koulias,  T. Kowalczyk,  
 C. M. Krauter,  A. Kunitsa,  Ka Un Lao,  A. Laurent,  K. V. Lawler,  
 Joonho Lee,  D. Lefrancois,  S. Lehtola,  D. S. Levine,  Yi-Pei Li,  
 You-Sheng Lin,  Fenglai Liu,  E. Livshits,  A. Luenser,  P. Manohar,  
 E. Mansoor,  S. F. Manzer,  Shan-Ping Mao,  Yuezhi Mao,  N. Mardirossian,  
 A. V. Marenich,  T. Markovich,  L. A. Martinez-Martinez,  S. A. Maurer,  
 N. J. Mayhall,  S. C. McKenzie,  J.-M. Mewes,  A. F. Morrison,  
 J. W. Mullinax,  K. Nanda,  T. S. Nguyen-Beck,  R. Olivares-Amaya,  
 J. A. Parkhill,  T. M. Perrine,  F. Plasser,  P. Pokhilko,  S. Prager,  
 A. Prociuk,  E. Ramos,  D. R. Rehn,  F. Rob,  M. Schneider,  N. Sergueev,  
 S. M. Sharada,  S. Sharma,  D. W. Small,  T. Stauch,  T. Stein,  
 Yu-Chuan Su,  A. J. W. Thom,  A. Tkatchenko,  T. Tsuchimochi,  N. M. Tubman,  
 L. Vogt,  M. L. Vidal,  O. Vydrov,  M. A. Watson,  J. Wenzel,  
 M. de Wergifosse,  T. A. Wesolowski,  A. White,  J. Witte,  A. Yamada,  
 Jun Yang,  K. Yao,  S. Yeganeh,  S. R. Yost,  Zhi-Qiang You,  A. Zech,  
 Igor Ying Zhang,  Xing Zhang,  Yan Zhao,  Ying Zhu,  B. R. Brooks,  
 G. K. L. Chan,  C. J. Cramer,  M. S. Gordon,  W. J. Hehre,  A. Klamt,  
 M. W. Schmidt,  C. D. Sherrill,  D. G. Truhlar,  A. Aspuru-Guzik,  R. Baer,  
 A. T. Bell,  N. A. Besley,  Jeng-Da Chai,  A. E. DePrince, III,  
 R. A. DiStasio Jr.,  A. Dreuw,  B. D. Dunietz,  T. R. Furlani,  
 Chao-Ping Hsu,  Yousung Jung,  Jing Kong,  D. S. Lambrecht,  WanZhen Liang,  
 C. Ochsenfeld,  V. A. Rassolov,  L. V. Slipchenko,  J. E. Subotnik,  
 T. Van Voorhis,  J. M. Herbert,  A. I. Krylov,  P. M. W. Gill,  M. Head-Gordon

 Contributors to earlier versions of Q-Chem not listed above: 
 R. D. Adamson,  B. Austin,  J. Baker,  G. J. O. Beran,  K. Brandhorst,  
 S. T. Brown,  E. F. C. Byrd,  A. K. Chakraborty,  C.-L. Cheng,  
 Siu Hung Chien,  D. M. Chipman,  D. L. Crittenden,  H. Dachsel,  
 R. J. Doerksen,  A. D. Dutoi,  L. Fusti-Molnar,  W. A. Goddard III,  
 A. Golubeva-Zadorozhnaya,  S. R. Gwaltney,  G. Hawkins,  A. Heyden,  
 S. Hirata,  G. Kedziora,  F. J. Keil,  C. Kelley,  Jihan Kim,  R. A. King,  
 R. Z. Khaliullin,  P. P. Korambath,  W. Kurlancheek,  A. M. Lee,  M. S. Lee,  
 S. V. Levchenko,  Ching Yeh Lin,  D. Liotard,  R. C. Lochan,  I. Lotan,  
 P. E. Maslen,  N. Nair,  D. P. O'Neill,  D. Neuhauser,  E. Neuscamman,  
 C. M. Oana,  R. Olson,  B. Peters,  R. Peverati,  P. A. Pieniazek,  
 Y. M. Rhee,  J. Ritchie,  M. A. Rohrdanz,  E. Rosta,  N. J. Russ,  
 H. F. Schaefer III,  N. E. Schultz,  N. Shenvi,  A. C. Simmonett,  A. Sodt,  
 D. Stuck,  K. S. Thanthiriwatte,  V. Vanovschi,  Tao Wang,  A. Warshel,  
 C. F. Williams,  Q. Wu,  X. Xu,  W. Zhang

 Please cite Q-Chem as follows:
 Y. Shao et al., Mol. Phys. 113, 184-215 (2015)
 DOI: 10.1080/00268976.2014.952696

 Q-Chem 5.1.1 for Intel X86 EM64T Linux

 Parts of Q-Chem use Armadillo 8.300.2 (Tropical Shenanigans).
 http://arma.sourceforge.net/

 Q-Chem begins on Mon Mar 11 20:57:22 2019  

Host: 
0

     Scratch files written to /staging/scratch/2858534/qchem15517//
 Aug318 |scratch|qcdevops|jenkins|workspace|build_RNUM 6013   
Processing $rem in /usr/usc/qchem/5.1.1/config/preferences.
 MEM_TOTAL  2000 
Input Ideriv = 2
Curr. Ideriv = -1
Max.  Ideriv = 2

Checking the input file for inconsistencies... 	...done.

--------------------------------------------------------------
User input:
--------------------------------------------------------------

$comment
potential surface scanner
$end

$rem
JOBTYPE  PES_SCAN
UNRESTRICTED TRUE
SYM_IGNORE  TRUE
GEOM_OPT_MAX_CYCLES 400
SCF_MAX_CYCLES 400
METHOD   B3LYP
BASIS   6-31G**
PDB_PRINT 2
SCF_CONVERGENCE 6
THRESH 14
SCF_PRINT 1
$end
$molecule
0 3
Cl 2.618517 0.102542 0.409203
C -0.870437 0.536764 -0.368452
C 0.674103 0.352780 0.013432
C -1.738919 -0.527811 0.295136
H -0.932146 0.481454 -1.461373
H -1.199570 1.545499 -0.077802
H 0.626617 0.256379 1.095464
H 1.135706 1.070036 -0.663865
H -1.697446 -0.452805 1.387361
H -2.785473 -0.409353 -0.007389
H -1.415352 -1.533887 0.012979
$end
$scan
stre 1 3 1.900000 1.901000 0.100000
$end
--------------------------------------------------------------
 ----------------------------------------------------------------
             Standard Nuclear Orientation (Angstroms)
    I     Atom           X                Y                Z
 ----------------------------------------------------------------
    1      Cl      2.6185170000     0.1025420000     0.4092030000
    2      C      -0.8704370000     0.5367640000    -0.3684520000
    3      C       0.6741030000     0.3527800000     0.0134320000
    4      C      -1.7389190000    -0.5278110000     0.2951360000
    5      H      -0.9321460000     0.4814540000    -1.4613730000
    6      H      -1.1995700000     1.5454990000    -0.0778020000
    7      H       0.6266170000     0.2563790000     1.0954640000
    8      H       1.1357060000     1.0700360000    -0.6638650000
    9      H      -1.6974460000    -0.4528050000     1.3873610000
   10      H      -2.7854730000    -0.4093530000    -0.0073890000
   11      H      -1.4153520000    -1.5338870000     0.0129790000
 ----------------------------------------------------------------
 Nuclear Repulsion Energy =   147.9475392566 hartrees
 There are       22 alpha and       20 beta electrons
 Requested basis set is 6-31G(d,p)
 There are 38 shells and 99 basis functions

 Total QAlloc Memory Limit   2000 MB
 Mega-Array Size       188 MB
 MEM_STATIC part       192 MB
A total of 1 constraints
  
            1
    1   1.0100000
    2   1.0100000
    3   3.0100000
    4   1.9000000
    5   1.9010000
    6   0.1000000
    7   0.0000000
    8   0.0000000
    9   0.0000000
   10   0.0000000

                       Distance Matrix (Angstroms)
             Cl(  1)   C (  2)   C (  3)   C (  4)   H (  5)   H (  6)
   C (  2)  3.600847
   C (  3)  2.000000  1.601652
   C (  4)  4.404271  1.525756  2.584081
   H (  5)  4.031109  1.096058  2.184409  2.180556
   H (  6)  4.110607  1.100160  2.222960  2.174533  1.765779
   H (  7)  2.112412  2.112543  1.087355  2.617487  3.002968  2.524548
   H (  8)  2.070326  2.096725  1.089158  3.425824  2.293133  2.454190
   H (  9)  4.460128  2.178548  2.856728  1.095583  3.094157  2.527410
   H ( 10)  5.444143  2.166303  3.542590  1.095823  2.518418  2.518232
   H ( 11)  4.371155  2.174860  2.815197  1.093845  2.543384  3.088272
             H (  7)   H (  8)   H (  9)   H ( 10)
   H (  8)  2.004108
   H (  9)  2.447328  3.814882
   H ( 10)  3.647169  4.242075  1.769468
   H ( 11)  2.923434  3.707618  1.771226  1.772632
 
 A cutoff of  1.0D-14 yielded    706 shell pairs
 There are      4884 function pairs
 
 -------------------------------------------------------
 OpenMP Integral Computing Module                       
 Release: version 1.0, May 2013, Q-Chem Inc. Pittsburgh 
 -------------------------------------------------------
 Integral Job Info:
 Integral job number is                      11
 Integral operator is                         1
 short-range coefficients                     0
 long-range coefficients              100000000
 Omega coefficients                           0
 if combine SR and LR in K                    0
 Integral screening is                        0
 Integral computing path is                   2
 max size of driver memory is            800000
 size of driver memory is                593474
 size of scratch memory is             15267112
 max col of scratch BK array               1296
 max len of scratch array in speh3          155
 max len of scratch index in speh4           18
 max int batch size is                      520
 min int batch size is                       52
 fixed nKL is                                52
 max L of basis functions is                  2
 order of int derivative is                   0
 number of shells is                         38
 number of basis is                          99
 number of cartesian basis is                99
 number of contracted shell pairs           706
 number of primitive shell pairs           2600
 maxK2 (contraction) of shell pair           36
 max number of K2 of shell pair               1
 max number of CS2 of shell pair             57
 max number of PS2 of shell pair            228
 mem total for path MDJ                  513890
 -------------------------------------------------------
 Smallest overlap matrix eigenvalue = 5.05E-03

 Scale SEOQF with 1.000000e-01/1.000000e-01/1.000000e+00

 Standard Electronic Orientation quadrupole field applied
 Nucleus-field energy     =    -0.0000000042 hartrees
 Guess from superposition of atomic densities
 Warning:  Energy on first SCF cycle will be non-variational
 SAD guess density has 42.000000 electrons

 -----------------------------------------------------------------------
  General SCF calculation program by
  Eric Jon Sundstrom, Paul Horn, Yuezhi Mao, Dmitri Zuev, Alec White,
  David Stuck, Shaama M.S., Shane Yost, Joonho Lee, David Small,
  Daniel Levine, Susi Lehtola, Hugh Burton, Evgeny Epifanovsky
 -----------------------------------------------------------------------
 Exchange:     0.2000 Hartree-Fock + 0.0800 Slater + 0.7200 B88
 Correlation:  0.1900 VWN1RPA + 0.8100 LYP
 Using SG-1 standard quadrature grid
 using 12 threads for integral computing
 -------------------------------------------------------
 OpenMP Integral computing Module                
 Release: version 1.0, May 2013, Q-Chem Inc. Pittsburgh 
 -------------------------------------------------------
 -------------------------------------------------------
 OpenMP BLAS3 based DFT computing Module                
 Release: version 1.0, May 2013, Q-Chem Inc. Pittsburgh 
 -------------------------------------------------------
 A unrestricted SCF calculation will be
 performed using DIIS
 SCF converges when DIIS error is below 1.0e-06
 Alpha HF Exchange    Energy =  -4.56090052762756
 Beta HF Exchange     Energy =  -4.56090052762756
 DFT Correlation      Energy =  -1.89952800628336
 DFT Exchange         Energy = -35.73502349686021
 One-Electron (alpha) Energy = -541.85412475046360
 One-Electron (beta)  Energy = -541.85412475046360
 Total Coulomb        Energy = 403.52545288636696
 ---------------------------------------
  Cycle       Energy         DIIS error
 ---------------------------------------
    1    -578.9916099205      2.94e-02  
 Alpha HF Exchange    Energy =  -4.68425760447470
 Beta HF Exchange     Energy =  -4.46332512869096
 DFT Correlation      Energy =  -1.91832333012541
 DFT Exchange         Energy = -36.30972534281731
 One-Electron (alpha) Energy = -558.30036454688423
 One-Electron (beta)  Energy = -531.73377600300137
 Total Coulomb        Energy = 410.97540882022219
    2    -578.4868238833      3.53e-03  
 Alpha HF Exchange    Energy =  -4.63558699183883
 Beta HF Exchange     Energy =  -4.42055525348624
 DFT Correlation      Energy =  -1.89382912340398
 DFT Exchange         Energy = -35.91569126585241
 One-Electron (alpha) Energy = -555.34253702179387
 One-Electron (beta)  Energy = -529.01478451996604
 Total Coulomb        Energy = 404.81364085612637
    3    -578.4618040678      4.15e-03  
 Alpha HF Exchange    Energy =  -4.65780639610597
 Beta HF Exchange     Energy =  -4.43774946072134
 DFT Correlation      Energy =  -1.90515326519507
 DFT Exchange         Energy = -36.08238182494193
 One-Electron (alpha) Energy = -556.75315113620786
 One-Electron (beta)  Energy = -529.91815330170334
 Total Coulomb        Energy = 407.25457917747542
    4    -578.5522769549      7.89e-04  
 Alpha HF Exchange    Energy =  -4.66168678837058
 Beta HF Exchange     Energy =  -4.44130683065534
 DFT Correlation      Energy =  -1.90552745312608
 DFT Exchange         Energy = -36.11011322875673
 One-Electron (alpha) Energy = -557.00758926843719
 One-Electron (beta)  Energy = -530.19681501010859
 Total Coulomb        Energy = 407.81959657729260
    5    -578.5559027497      2.27e-04  
 Alpha HF Exchange    Energy =  -4.66147900969453
 Beta HF Exchange     Energy =  -4.44073879319737
 DFT Correlation      Energy =  -1.90523499953294
 DFT Exchange         Energy = -36.10613661690545
 One-Electron (alpha) Energy = -556.98601757066967
 One-Electron (beta)  Energy = -530.10985555511797
 Total Coulomb        Energy = 407.70569692821272
    6    -578.5562263644      8.02e-05  
 Alpha HF Exchange    Energy =  -4.66122963524397
 Beta HF Exchange     Energy =  -4.44069565391079
 DFT Correlation      Energy =  -1.90508267186921
 DFT Exchange         Energy = -36.10444277017174
 One-Electron (alpha) Energy = -556.97114887471230
 One-Electron (beta)  Energy = -530.08913355269408
 Total Coulomb        Energy = 407.66792810505558
    7    -578.5562658011      2.38e-05  
 Alpha HF Exchange    Energy =  -4.66137591027038
 Beta HF Exchange     Energy =  -4.44080072337884
 DFT Correlation      Energy =  -1.90508674805144
 DFT Exchange         Energy = -36.10527649840880
 One-Electron (alpha) Energy = -556.98320670651606
 One-Electron (beta)  Energy = -530.09345855364165
 Total Coulomb        Energy = 407.68539507929199
    8    -578.5562708085      8.89e-06  
 Alpha HF Exchange    Energy =  -4.66136173806781
 Beta HF Exchange     Energy =  -4.44083128279529
 DFT Correlation      Energy =  -1.90506701052311
 DFT Exchange         Energy = -36.10524771611492
 One-Electron (alpha) Energy = -556.98219548065686
 One-Electron (beta)  Energy = -530.09164865717889
 Total Coulomb        Energy = 407.68254102001856
    9    -578.5562716129      4.21e-06  
 Alpha HF Exchange    Energy =  -4.66135572040090
 Beta HF Exchange     Energy =  -4.44083141561869
 DFT Correlation      Energy =  -1.90506208517900
 DFT Exchange         Energy = -36.10520459271789
 One-Electron (alpha) Energy = -556.98183810535477
 One-Electron (beta)  Energy = -530.09080740118725
 Total Coulomb        Energy = 407.68128832240467
   10    -578.5562717456      1.18e-06  
 Alpha HF Exchange    Energy =  -4.66135811866697
 Beta HF Exchange     Energy =  -4.44083869797627
 DFT Correlation      Energy =  -1.90506221974757
 DFT Exchange         Energy = -36.10523783461709
 One-Electron (alpha) Energy = -556.98213897991627
 One-Electron (beta)  Energy = -530.09123583117594
 Total Coulomb        Energy = 407.68206066828060
   11    -578.5562717614      3.65e-07  Convergence criterion met
 ---------------------------------------
 SCF time:   CPU 25.04s  wall 3.00s 
<S^2> =          2.003422176
 Alpha HF Exchange    Energy =  -4.66135811866697
 Beta HF Exchange     Energy =  -4.44083869797627
 DFT Correlation      Energy =  -1.90506221974757
 DFT Exchange         Energy = -36.10523783461709
 One-Electron (alpha) Energy = -556.98213897991627
 One-Electron (beta)  Energy = -530.09123583117594
 Total Coulomb        Energy = 407.68206066828060
 Nuclear repulsion Energy = 147.94753925246283
 SCF   energy in the final basis set =     -578.5562717614
 Total energy in the final basis set =     -578.5562717614
 
 --------------------------------------------------------------
 
                    Orbital Energies (a.u.)
 --------------------------------------------------------------
 
 Alpha MOs
 -- Occupied --
******* -10.230 -10.217 -10.192  -9.442  -7.211  -7.197  -7.194
 -0.842  -0.789  -0.691  -0.604  -0.506  -0.464  -0.443  -0.392
 -0.378  -0.369  -0.335  -0.293  -0.266  -0.194
 -- Virtual --
  0.061   0.116   0.128   0.140   0.158   0.173   0.189   0.214
  0.224   0.393   0.456   0.461   0.475   0.509   0.520   0.528
  0.555   0.581   0.656   0.670   0.693   0.747   0.809   0.829
  0.846   0.848   0.865   0.872   0.909   0.913   0.926   0.938
  0.959   1.004   1.147   1.278   1.301   1.338   1.515   1.560
  1.653   1.746   1.774   1.823   1.854   1.910   1.918   2.037
  2.048   2.088   2.094   2.232   2.276   2.332   2.349   2.402
  2.438   2.484   2.542   2.627   2.641   2.695   2.756   2.815
  2.862   2.897   3.172   3.246   3.292   3.363   3.429   3.462
  3.521   4.222   4.259   4.401   4.593
 
 Beta MOs
 -- Occupied --
******* -10.215 -10.213 -10.192  -9.436  -7.195  -7.191  -7.191
 -0.807  -0.772  -0.667  -0.583  -0.486  -0.452  -0.425  -0.379
 -0.363  -0.356  -0.302  -0.279
 -- Virtual --
 -0.155  -0.049   0.073   0.122   0.133   0.144   0.161   0.181
  0.198   0.228   0.237   0.410   0.474   0.480   0.488   0.520
  0.527   0.538   0.584   0.613   0.664   0.684   0.708   0.771
  0.828   0.842   0.855   0.870   0.877   0.885   0.921   0.924
  0.938   0.962   0.987   1.025   1.173   1.295   1.316   1.356
  1.527   1.569   1.657   1.768   1.810   1.848   1.872   1.924
  1.959   2.038   2.050   2.093   2.098   2.236   2.284   2.342
  2.358   2.427   2.463   2.499   2.560   2.647   2.652   2.702
  2.764   2.821   2.865   2.902   3.174   3.260   3.306   3.373
  3.438   3.472   3.531   4.246   4.275   4.417   4.602
 --------------------------------------------------------------
 
          Ground-State Mulliken Net Atomic Charges

     Atom                 Charge (a.u.)    Spin (a.u.)
  --------------------------------------------------------
      1 Cl                   -0.126809       0.703737
      2 C                    -0.212820       0.167126
      3 C                    -0.320677       0.962284
      4 C                    -0.318144       0.010238
      5 H                     0.123506       0.009401
      6 H                     0.119243       0.032916
      7 H                     0.188836       0.043943
      8 H                     0.194258       0.056823
      9 H                     0.111432       0.000255
     10 H                     0.115828       0.010333
     11 H                     0.125346       0.002943
  --------------------------------------------------------
  Sum of atomic charges =     0.000000
  Sum of spin   charges =     2.000000

 -----------------------------------------------------------------
                    Cartesian Multipole Moments
 -----------------------------------------------------------------
    Charge (ESU x 10^10)
                 0.0000
    Dipole Moment (Debye)
         X      -2.8855      Y       0.7526      Z      -0.3453
       Tot       3.0020
    Quadrupole Moments (Debye-Ang)
        XX     -39.7666     XY       0.1497     YY     -32.8329
        XZ      -1.2166     YZ      -0.6305     ZZ     -32.4438
    Octopole Moments (Debye-Ang^2)
       XXX     -77.4398    XXY      -5.6076    XYY     -19.4139
       YYY     -10.8160    XXZ      -8.7614    XYZ      -1.1514
       YYZ      -6.1731    XZZ     -20.2642    YZZ      -3.0999
       ZZZ     -15.5314
    Hexadecapole Moments (Debye-Ang^3)
      XXXX    -801.8447   XXXY     -38.1689   XXYY    -144.6666
      XYYY     -28.2621   YYYY     -83.8926   XXXZ     -40.8979
      XXYZ       0.7181   XYYZ     -13.4336   YYYZ       7.7759
      XXZZ    -145.8017   XYZZ      -8.9827   YYZZ     -28.1656
      XZZZ     -38.0846   YZZZ       7.2307   ZZZZ     -76.3327
 -----------------------------------------------------------------
 Calculating analytic gradient of the SCF energy
 Gradient of SCF Energy
            1           2           3           4           5           6
    1  -0.0817312   0.0000897   0.0817053  -0.0000156  -0.0000201  -0.0000023
    2   0.0106711   0.0002048  -0.0109205  -0.0000093   0.0000049   0.0000004
    3  -0.0166525  -0.0000413   0.0166697   0.0000164  -0.0000040  -0.0000190
            7           8           9          10          11
    1  -0.0000090   0.0000092  -0.0000250  -0.0000005  -0.0000005
    2   0.0000218  -0.0000199   0.0000326   0.0000076   0.0000066
    3   0.0000108   0.0000317  -0.0000047  -0.0000245   0.0000173
 Max gradient component =       8.173E-02
 RMS gradient           =       2.070E-02
 Gradient time:  CPU 7.95 s  wall 0.83 s
 Geometry Optimization Parameters
   NAtoms,    NIC,     NZ,  NCons,   NDum,   NFix, NCnnct, MaxDiis
       11      68       0       1       0       0       0       0


** CONSTRAINED OPTIMIZATION IN DELOCALIZED INTERNAL COORDINATES **
   Searching for a Minimum

   Optimization Cycle:   1

                       Coordinates (Angstroms)
     ATOM                X               Y               Z
      1  Cl        2.6185170000    0.1025420000    0.4092030000
      2  C        -0.8704370000    0.5367640000   -0.3684520000
      3  C         0.6741030000    0.3527800000    0.0134320000
      4  C        -1.7389190000   -0.5278110000    0.2951360000
      5  H        -0.9321460000    0.4814540000   -1.4613730000
      6  H        -1.1995700000    1.5454990000   -0.0778020000
      7  H         0.6266170000    0.2563790000    1.0954640000
      8  H         1.1357060000    1.0700360000   -0.6638650000
      9  H        -1.6974460000   -0.4528050000    1.3873610000
     10  H        -2.7854730000   -0.4093530000   -0.0073890000
     11  H        -1.4153520000   -1.5338870000    0.0129790000
   Point Group: c1    Number of degrees of freedom:    27


   Energy is   -578.556271761

              Constraints and their Current Values
                                        Value     Constraint
   Distance(Angs):        1   3             2.000000     1.900000

 Attempting to Generate Delocalized Internal Coordinates

   Using Lagrange Multiplier Algorithm


 28 Hessian modes will be used to form the next step
  Hessian Eigenvalues:
    -0.927472    0.045000    0.045012    0.072744    0.078616    0.081429
     0.082579    0.083367    0.110311    0.135610    0.160000    0.160000
     0.160000    0.160000    0.160000    0.190954    0.198190    0.219523
     0.236872    0.298189    0.336644    0.341218    0.341482    0.341754
     0.343720    0.349101    0.351201    1.078200

 Minimum Search - Taking P-RFO Step
 Searching for Lamda that Maximizes Along the Constraint modes Only
 Value Taken    Lamda =   0.03961751
 Searching for Lamda that Minimizes Along All other modes
 Value Taken    Lamda =  -0.00412933
 Step Taken.  Stepsize is  0.182930

                             Maximum     Tolerance    Cnvgd?
         Gradient            0.188972       0.000300      NO
         Displacement        0.182920       0.001200      NO
         Energy change     *********       0.000001      NO


 New Cartesian Coordinates Obtained by Inverse Iteration

 Displacement from previous Coordinates is:  0.174108
 ----------------------------------------------------------------
             Standard Nuclear Orientation (Angstroms)
    I     Atom           X                Y                Z
 ----------------------------------------------------------------
    1      Cl      2.5323761967     0.1094242527     0.3943951559
    2      C      -0.8612275981     0.5361131524    -0.3670479245
    3      C       0.6828393399     0.3508568670     0.0161029233
    4      C      -1.7311278315    -0.5276449382     0.2959272072
    5      H      -0.9219803720     0.4807150155    -1.4600193135
    6      H      -1.1896004849     1.5451959182    -0.0767503247
    7      H       0.6343495863     0.2544708862     1.0980870939
    8      H       1.1459439225     1.0674669448    -0.6609047161
    9      H      -1.6903059821    -0.4527182583     1.3881849164
   10      H      -2.7773800097    -0.4082640958    -0.0072690024
   11      H      -1.4082867673    -1.5340177444     0.0139879846
 ----------------------------------------------------------------
 Nuclear Repulsion Energy =   150.5627837295 hartrees
 There are       22 alpha and       20 beta electrons

                       Distance Matrix (Angstroms)
             Cl(  1)   C (  2)   C (  3)   C (  4)   H (  5)   H (  6)
   C (  2)  3.504056
   C (  3)  1.903203  1.601645
   C (  4)  4.311962  1.525727  2.584048
   H (  5)  3.938183  1.096059  2.184318  2.180564
   H (  6)  4.017030  1.100159  2.222858  2.174583  1.765835
   H (  7)  2.029464  2.112509  1.087351  2.617374  3.002875  2.524482
   H (  8)  1.988391  2.097004  1.089190  3.425996  2.293289  2.454430
   H (  9)  4.374319  2.178532  2.856599  1.095585  3.094170  2.527529
   H ( 10)  5.350032  2.166317  3.542588  1.095821  2.518586  2.518308
   H ( 11)  4.286541  2.174834  2.815238  1.093847  2.543293  3.088303
             H (  7)   H (  8)   H (  9)   H ( 10)
   H (  8)  2.004182
   H (  9)  2.447100  3.814976
   H ( 10)  3.647044  4.242345  1.769463
   H ( 11)  2.923410  3.707735  1.771203  1.772622
 
 Applying Cartesian multipole field
    Component          Value
    ---------          -----
     (2,0,0)        1.00000E-11
     (0,2,0)        2.00000E-11
     (0,0,2)       -3.00000E-10
 Nucleus-field energy     =    -0.0000000042 hartrees
 Requested basis set is 6-31G(d,p)
 There are 38 shells and 99 basis functions
 A cutoff of  1.0D-14 yielded    707 shell pairs
 There are      4896 function pairs
 Smallest overlap matrix eigenvalue = 4.91E-03
 Guess from superposition of atomic densities
 Warning:  Energy on first SCF cycle will be non-variational
 SAD guess density has 42.000000 electrons

 -----------------------------------------------------------------------
  General SCF calculation program by
  Eric Jon Sundstrom, Paul Horn, Yuezhi Mao, Dmitri Zuev, Alec White,
  David Stuck, Shaama M.S., Shane Yost, Joonho Lee, David Small,
  Daniel Levine, Susi Lehtola, Hugh Burton, Evgeny Epifanovsky
 -----------------------------------------------------------------------
 Exchange:     0.2000 Hartree-Fock + 0.0800 Slater + 0.7200 B88
 Correlation:  0.1900 VWN1RPA + 0.8100 LYP
 Using SG-1 standard quadrature grid
 using 12 threads for integral computing
 -------------------------------------------------------
 OpenMP Integral computing Module                
 Release: version 1.0, May 2013, Q-Chem Inc. Pittsburgh 
 -------------------------------------------------------
 -------------------------------------------------------
 OpenMP BLAS3 based DFT computing Module                
 Release: version 1.0, May 2013, Q-Chem Inc. Pittsburgh 
 -------------------------------------------------------
 A unrestricted SCF calculation will be
 performed using DIIS
 SCF converges when DIIS error is below 1.0e-06
 Alpha HF Exchange    Energy =  -4.56878823607267
 Beta HF Exchange     Energy =  -4.56878823607267
 DFT Correlation      Energy =  -1.90185260404688
 DFT Exchange         Energy = -35.75049197598022
 One-Electron (alpha) Energy = -544.45246920171610
 One-Electron (beta)  Energy = -544.45246920171610
 Total Coulomb        Energy = 406.06602493603583
 ---------------------------------------
  Cycle       Energy         DIIS error
 ---------------------------------------
    1    -579.0660507942      3.02e-02  
 Alpha HF Exchange    Energy =  -4.68628784864556
 Beta HF Exchange     Energy =  -4.46518835333231
 DFT Correlation      Energy =  -1.92114969906019
 DFT Exchange         Energy = -36.32684289869653
 One-Electron (alpha) Energy = -560.99118250249023
 One-Electron (beta)  Energy = -534.19841405661396
 Total Coulomb        Energy = 413.56064882873534
    2    -578.4656328048      3.62e-03  
 Alpha HF Exchange    Energy =  -4.63684356483886
 Beta HF Exchange     Energy =  -4.42317399175785
 DFT Correlation      Energy =  -1.89614313672939
 DFT Exchange         Energy = -35.93103752025186
 One-Electron (alpha) Energy = -557.97107605484496
 One-Electron (beta)  Energy = -531.51015819299073
 Total Coulomb        Energy = 407.37232273335889
    3    -578.4333260027      4.38e-03  
 Alpha HF Exchange    Energy =  -4.65907121646017
 Beta HF Exchange     Energy =  -4.43926588059546
 DFT Correlation      Energy =  -1.90789396203640
 DFT Exchange         Energy = -36.09588108987374
 One-Electron (alpha) Energy = -559.39261132547824
 One-Electron (beta)  Energy = -532.41961047793586
 Total Coulomb        Energy = 409.81714331264567
    4    -578.5344069144      7.84e-04  
 Alpha HF Exchange    Energy =  -4.66321178957527
 Beta HF Exchange     Energy =  -4.44322561424454
 DFT Correlation      Energy =  -1.90834572025037
 DFT Exchange         Energy = -36.12585666929713
 One-Electron (alpha) Energy = -559.66322000360162
 One-Electron (beta)  Energy = -532.70610972401892
 Total Coulomb        Energy = 410.40928180521627
    5    -578.5379039905      2.38e-04  
 Alpha HF Exchange    Energy =  -4.66291409319838
 Beta HF Exchange     Energy =  -4.44250948504719
 DFT Correlation      Energy =  -1.90806784727397
 DFT Exchange         Energy = -36.12124136141149
 One-Electron (alpha) Energy = -559.63451785090797
 One-Electron (beta)  Energy = -532.61990916088780
 Total Coulomb        Energy = 410.28813898903331
    6    -578.5382370844      7.53e-05  
 Alpha HF Exchange    Energy =  -4.66267103856052
 Beta HF Exchange     Energy =  -4.44245091580971
 DFT Correlation      Energy =  -1.90793616104924
 DFT Exchange         Energy = -36.11959811175317
 One-Electron (alpha) Energy = -559.61909775409981
 One-Electron (beta)  Energy = -532.60054512914701
 Total Coulomb        Energy = 410.25124493325194
    7    -578.5382704518      2.30e-05  
 Alpha HF Exchange    Energy =  -4.66281191581142
 Beta HF Exchange     Energy =  -4.44253885113179
 DFT Correlation      Energy =  -1.90794753460917
 DFT Exchange         Energy = -36.12039249498197
 One-Electron (alpha) Energy = -559.63077736586365
 One-Electron (beta)  Energy = -532.60544777524240
 Total Coulomb        Energy = 410.26885770436047
    8    -578.5382745080      8.11e-06  
 Alpha HF Exchange    Energy =  -4.66279765253675
 Beta HF Exchange     Energy =  -4.44255981576965
 DFT Correlation      Energy =  -1.90793012108925
 DFT Exchange         Energy = -36.12034089279529
 One-Electron (alpha) Energy = -559.62960984084157
 One-Electron (beta)  Energy = -532.60358543132986
 Total Coulomb        Energy = 410.26576488256603
    9    -578.5382751465      3.79e-06  
 Alpha HF Exchange    Energy =  -4.66279157804825
 Beta HF Exchange     Energy =  -4.44255806133370
 DFT Correlation      Energy =  -1.90792595202924
 DFT Exchange         Energy = -36.12029568375146
 One-Electron (alpha) Energy = -559.62922819821392
 One-Electron (beta)  Energy = -532.60276343242845
 Total Coulomb        Energy = 410.26450393454508
   10    -578.5382752459      1.01e-06  
 Alpha HF Exchange    Energy =  -4.66279402109605
 Beta HF Exchange     Energy =  -4.44256411543039
 DFT Correlation      Energy =  -1.90792616849833
 DFT Exchange         Energy = -36.12032535728214
 One-Electron (alpha) Energy = -559.62950625767678
 One-Electron (beta)  Energy = -532.60310589438336
 Total Coulomb        Energy = 410.26516283301225
   11    -578.5382752560      2.98e-07  Convergence criterion met
 ---------------------------------------
 SCF time:   CPU 24.50s  wall 2.00s 
<S^2> =          2.003452560
 Alpha HF Exchange    Energy =  -4.66279402109605
 Beta HF Exchange     Energy =  -4.44256411543039
 DFT Correlation      Energy =  -1.90792616849833
 DFT Exchange         Energy = -36.12032535728214
 One-Electron (alpha) Energy = -559.62950625767678
 One-Electron (beta)  Energy = -532.60310589438336
 Total Coulomb        Energy = 410.26516283301225
 Nuclear repulsion Energy = 150.56278372531915
 SCF   energy in the final basis set =     -578.5382752560
 Total energy in the final basis set =     -578.5382752560
 
 --------------------------------------------------------------
 
                    Orbital Energies (a.u.)
 --------------------------------------------------------------
 
 Alpha MOs
 -- Occupied --
******* -10.230 -10.214 -10.190  -9.443  -7.211  -7.199  -7.196
 -0.860  -0.788  -0.687  -0.603  -0.512  -0.463  -0.446  -0.393
 -0.378  -0.369  -0.344  -0.291  -0.258  -0.177
 -- Virtual --
  0.059   0.115   0.129   0.141   0.159   0.174   0.190   0.217
  0.225   0.396   0.454   0.462   0.475   0.509   0.519   0.531
  0.556   0.578   0.655   0.666   0.691   0.754   0.821   0.828
  0.848   0.854   0.867   0.870   0.909   0.914   0.926   0.946
  0.963   1.000   1.153   1.279   1.309   1.342   1.521   1.567
  1.654   1.750   1.791   1.829   1.859   1.911   1.924   2.038
  2.050   2.090   2.096   2.234   2.282   2.332   2.353   2.403
  2.441   2.494   2.545   2.626   2.645   2.697   2.757   2.816
  2.864   2.898   3.173   3.246   3.293   3.363   3.430   3.463
  3.522   4.207   4.268   4.420   4.601
 
 Beta MOs
 -- Occupied --
******* -10.215 -10.209 -10.190  -9.438  -7.196  -7.192  -7.192
 -0.823  -0.773  -0.663  -0.581  -0.490  -0.451  -0.427  -0.379
 -0.361  -0.360  -0.309  -0.276
 -- Virtual --
 -0.146  -0.040   0.074   0.122   0.134   0.145   0.162   0.182
  0.198   0.230   0.239   0.412   0.472   0.481   0.487   0.521
  0.525   0.541   0.585   0.613   0.664   0.681   0.706   0.775
  0.839   0.844   0.861   0.871   0.877   0.886   0.922   0.925
  0.939   0.968   0.991   1.019   1.180   1.295   1.324   1.361
  1.533   1.575   1.659   1.771   1.822   1.857   1.880   1.926
  1.963   2.039   2.051   2.095   2.100   2.238   2.290   2.343
  2.363   2.430   2.466   2.513   2.563   2.647   2.658   2.705
  2.766   2.823   2.867   2.903   3.175   3.261   3.307   3.374
  3.439   3.472   3.532   4.232   4.283   4.436   4.613
 --------------------------------------------------------------
 
          Ground-State Mulliken Net Atomic Charges

     Atom                 Charge (a.u.)    Spin (a.u.)
  --------------------------------------------------------
      1 Cl                   -0.100850       0.674561
      2 C                    -0.205918       0.197099
      3 C                    -0.340407       0.922285
      4 C                    -0.317662       0.010015
      5 H                     0.121352       0.008825
      6 H                     0.115807       0.032418
      7 H                     0.186270       0.062412
      8 H                     0.191950       0.078069
      9 H                     0.110437       0.000438
     10 H                     0.115169       0.010425
     11 H                     0.123853       0.003453
  --------------------------------------------------------
  Sum of atomic charges =     0.000000
  Sum of spin   charges =     2.000000

 -----------------------------------------------------------------
                    Cartesian Multipole Moments
 -----------------------------------------------------------------
    Charge (ESU x 10^10)
                 0.0000
    Dipole Moment (Debye)
         X      -2.6628      Y       0.7424      Z      -0.3032
       Tot       2.7809
    Quadrupole Moments (Debye-Ang)
        XX     -39.4205     XY       0.2678     YY     -32.8124
        XZ      -1.1514     YZ      -0.5751     ZZ     -32.4172
    Octopole Moments (Debye-Ang^2)
       XXX     -73.5188    XXY      -5.3556    XYY     -18.0831
       YYY     -11.0731    XXZ      -8.4991    XYZ      -1.0686
       YYZ      -5.9306    XZZ     -19.0418    YZZ      -3.1751
       ZZZ     -14.9216
    Hexadecapole Moments (Debye-Ang^3)
      XXXX    -766.2778   XXXY     -36.9930   XXYY    -138.2400
      XYYY     -28.3664   YYYY     -84.0531   XXXZ     -38.1059
      XXYZ       1.0434   XYYZ     -12.3851   YYYZ       7.8256
      XXZZ    -139.3094   XYZZ      -8.9859   YYZZ     -28.0333
      XZZZ     -35.0083   YZZZ       7.2862   ZZZZ     -75.4389
 -----------------------------------------------------------------
 Calculating analytic gradient of the SCF energy
 Gradient of SCF Energy
            1           2           3           4           5           6
    1  -0.1106397   0.0060637   0.0881699  -0.0003151  -0.0003993   0.0006391
    2   0.0163652  -0.0028221  -0.0104644  -0.0001119   0.0000740  -0.0001478
    3  -0.0220085   0.0004057   0.0176846   0.0000095  -0.0000572   0.0000879
            7           8           9          10          11
    1   0.0090057   0.0076646  -0.0000625  -0.0000417  -0.0000849
    2  -0.0000373  -0.0029541   0.0000386  -0.0000212   0.0000810
    3  -0.0010314   0.0049360  -0.0000334  -0.0000006   0.0000074
 Max gradient component =       1.106E-01
 RMS gradient           =       2.547E-02
 Gradient time:  CPU 8.07 s  wall 0.82 s
 Geometry Optimization Parameters
   NAtoms,    NIC,     NZ,  NCons,   NDum,   NFix, NCnnct, MaxDiis
       11      68       0       1       0       0       0       0

 Cartesian Hessian Update
 Hessian Updated using BFGS Update


** CONSTRAINED OPTIMIZATION IN DELOCALIZED INTERNAL COORDINATES **
   Searching for a Minimum

   Optimization Cycle:   2

                       Coordinates (Angstroms)
     ATOM                X               Y               Z
      1  Cl        2.5323761967    0.1094242527    0.3943951559
      2  C        -0.8612275981    0.5361131524   -0.3670479245
      3  C         0.6828393399    0.3508568670    0.0161029233
      4  C        -1.7311278315   -0.5276449382    0.2959272072
      5  H        -0.9219803720    0.4807150155   -1.4600193135
      6  H        -1.1896004849    1.5451959182   -0.0767503247
      7  H         0.6343495863    0.2544708862    1.0980870939
      8  H         1.1459439225    1.0674669448   -0.6609047161
      9  H        -1.6903059821   -0.4527182583    1.3881849164
     10  H        -2.7773800097   -0.4082640958   -0.0072690024
     11  H        -1.4082867673   -1.5340177444    0.0139879846
   Point Group: c1    Number of degrees of freedom:    27


   Energy is   -578.538275256

              Constraints and their Current Values
                                        Value     Constraint
   Distance(Angs):        1   3             1.903203     1.900000
 Hessian Updated using BFGS Update

   Using Lagrange Multiplier Algorithm


 25 Hessian modes will be used to form the next step
  Hessian Eigenvalues:
    -0.925752    0.045000    0.045012    0.072774    0.079711    0.081431
     0.082579    0.083367    0.110314    0.135650    0.160000    0.190945
     0.197756    0.203586    0.219847    0.251614    0.298217    0.336666
     0.341219    0.341483    0.341754    0.343722    0.349666    0.351918
     1.091554

 Minimum Search - Taking P-RFO Step
 Searching for Lamda that Maximizes Along the Constraint modes Only
 Value Taken    Lamda =   0.00007736
 Searching for Lamda that Minimizes Along All other modes
 Value Taken    Lamda =  -0.00160634
 Step Taken.  Stepsize is  0.086882

                             Maximum     Tolerance    Cnvgd?
         Gradient            0.015849       0.000300      NO
         Displacement        0.071160       0.001200      NO
         Energy change      0.017997       0.000001      NO


 New Cartesian Coordinates Obtained by Inverse Iteration

 Displacement from previous Coordinates is:  0.089808
 ----------------------------------------------------------------
             Standard Nuclear Orientation (Angstroms)
    I     Atom           X                Y                Z
 ----------------------------------------------------------------
    1      Cl      2.5411839439     0.0935481286     0.3941913761
    2      C      -0.8574719529     0.5366064503    -0.3665716545
    3      C       0.6957862882     0.3445543851     0.0179917347
    4      C      -1.7267302130    -0.5270752645     0.2964090716
    5      H      -0.9166572992     0.4812567185    -1.4595504764
    6      H      -1.1869968125     1.5457536737    -0.0764815669
    7      H       0.6070089835     0.2616435806     1.1001471701
    8      H       1.1214357578     1.0787859521    -0.6678337295
    9      H      -1.6853088232    -0.4524195936     1.3886943168
   10      H      -2.7730463783    -0.4076769824    -0.0064332987
   11      H      -1.4036034944    -1.5333790485     0.0141310567
 ----------------------------------------------------------------
 Nuclear Repulsion Energy =   150.3485944695 hartrees
 There are       22 alpha and       20 beta electrons

                       Distance Matrix (Angstroms)
             Cl(  1)   C (  2)   C (  3)   C (  4)   H (  5)   H (  6)
   C (  2)  3.510829
   C (  3)  1.900006  1.611640
   C (  4)  4.313911  1.525311  2.589564
   H (  5)  3.942505  1.095979  2.191299  2.180905
   H (  6)  4.028618  1.100508  2.235325  2.174162  1.766102
   H (  7)  2.065832  2.090831  1.088952  2.591218  2.986945  2.500370
   H (  8)  2.028368  2.073835  1.091160  3.408901  2.266645  2.428295
   H (  9)  4.376112  2.178175  2.860700  1.095617  3.094362  2.527400
   H ( 10)  5.352828  2.165825  3.549542  1.095786  2.519510  2.517211
   H ( 11)  4.284003  2.174404  2.816751  1.093956  2.543150  3.088072
             H (  7)   H (  8)   H (  9)   H ( 10)
   H (  8)  2.014476
   H (  9)  2.418236  3.801541
   H ( 10)  3.619017  4.220665  1.769620
   H ( 11)  2.905873  3.696526  1.771230  1.772851
 
 Applying Cartesian multipole field
    Component          Value
    ---------          -----
     (2,0,0)        1.00000E-11
     (0,2,0)        2.00000E-11
     (0,0,2)       -3.00000E-10
 Nucleus-field energy     =    -0.0000000042 hartrees
 Requested basis set is 6-31G(d,p)
 There are 38 shells and 99 basis functions
 A cutoff of  1.0D-14 yielded    707 shell pairs
 There are      4896 function pairs
 Smallest overlap matrix eigenvalue = 4.98E-03
 Guess from superposition of atomic densities
 Warning:  Energy on first SCF cycle will be non-variational
 SAD guess density has 42.000000 electrons

 -----------------------------------------------------------------------
  General SCF calculation program by
  Eric Jon Sundstrom, Paul Horn, Yuezhi Mao, Dmitri Zuev, Alec White,
  David Stuck, Shaama M.S., Shane Yost, Joonho Lee, David Small,
  Daniel Levine, Susi Lehtola, Hugh Burton, Evgeny Epifanovsky
 -----------------------------------------------------------------------
 Exchange:     0.2000 Hartree-Fock + 0.0800 Slater + 0.7200 B88
 Correlation:  0.1900 VWN1RPA + 0.8100 LYP
 Using SG-1 standard quadrature grid
 using 12 threads for integral computing
 -------------------------------------------------------
 OpenMP Integral computing Module                
 Release: version 1.0, May 2013, Q-Chem Inc. Pittsburgh 
 -------------------------------------------------------
 -------------------------------------------------------
 OpenMP BLAS3 based DFT computing Module                
 Release: version 1.0, May 2013, Q-Chem Inc. Pittsburgh 
 -------------------------------------------------------
 A unrestricted SCF calculation will be
 performed using DIIS
 SCF converges when DIIS error is below 1.0e-06
 Alpha HF Exchange    Energy =  -4.56735233809685
 Beta HF Exchange     Energy =  -4.56735233809685
 DFT Correlation      Energy =  -1.90150915116388
 DFT Exchange         Energy = -35.74757659210883
 One-Electron (alpha) Energy = -544.24356804910519
 One-Electron (beta)  Energy = -544.24356804910519
 Total Coulomb        Energy = 405.86894682679088
 ---------------------------------------
  Cycle       Energy         DIIS error
 ---------------------------------------
    1    -579.0533852256      3.00e-02  
 Alpha HF Exchange    Energy =  -4.68538314538030
 Beta HF Exchange     Energy =  -4.46450169716653
 DFT Correlation      Energy =  -1.92079836673089
 DFT Exchange         Energy = -36.32192357391961
 One-Electron (alpha) Energy = -560.74911275827310
 One-Electron (beta)  Energy = -534.03128113389675
 Total Coulomb        Energy = 413.35718148289743
    2    -578.4672247272      3.60e-03  
 Alpha HF Exchange    Energy =  -4.63597436657759
 Beta HF Exchange     Energy =  -4.42280561187924
 DFT Correlation      Energy =  -1.89579943332792
 DFT Exchange         Energy = -35.92680568285331
 One-Electron (alpha) Energy = -557.72755285184599
 One-Electron (beta)  Energy = -531.34053335428769
 Total Coulomb        Energy = 407.16516651796763
    3    -578.4357103175      4.35e-03  
 Alpha HF Exchange    Energy =  -4.65815257197141
 Beta HF Exchange     Energy =  -4.43846749105107
 DFT Correlation      Energy =  -1.90760088162883
 DFT Exchange         Energy = -36.09080586893967
 One-Electron (alpha) Energy = -559.14205102860740
 One-Electron (beta)  Energy = -532.24635982161590
 Total Coulomb        Energy = 409.59997139120725
    4    -578.5348718073      8.04e-04  
 Alpha HF Exchange    Energy =  -4.66228237614203
 Beta HF Exchange     Energy =  -4.44256464992499
 DFT Correlation      Energy =  -1.90802024085948
 DFT Exchange         Energy = -36.12101416434358
 One-Electron (alpha) Energy = -559.41463073626528
 One-Electron (beta)  Energy = -532.54171368935533
 Total Coulomb        Energy = 410.20306327008274
    5    -578.5385681215      2.44e-04  
 Alpha HF Exchange    Energy =  -4.66200435875745
 Beta HF Exchange     Energy =  -4.44182137984046
 DFT Correlation      Energy =  -1.90776284168756
 DFT Exchange         Energy = -36.11648553079603
 One-Electron (alpha) Energy = -559.38637059164535
 One-Electron (beta)  Energy = -532.45607634468081
 Total Coulomb        Energy = 410.08301228415979
    6    -578.5389142980      7.53e-05  
 Alpha HF Exchange    Energy =  -4.66174880857089
 Beta HF Exchange     Energy =  -4.44175197093596
 DFT Correlation      Energy =  -1.90762825188583
 DFT Exchange         Energy = -36.11475165968889
 One-Electron (alpha) Energy = -559.36969657942086
 One-Electron (beta)  Energy = -532.43615043471732
 Total Coulomb        Energy = 410.04418572322567
    7    -578.5389475167      2.35e-05  
 Alpha HF Exchange    Energy =  -4.66188769815543
 Beta HF Exchange     Energy =  -4.44183727165473
 DFT Correlation      Energy =  -1.90764098726719
 DFT Exchange         Energy = -36.11553473116850
 One-Electron (alpha) Energy = -559.38126099884255
 One-Electron (beta)  Energy = -532.44114467274551
 Total Coulomb        Energy = 410.06176024089046
    8    -578.5389516537      8.09e-06  
 Alpha HF Exchange    Energy =  -4.66187515317722
 Beta HF Exchange     Energy =  -4.44185923435165
 DFT Correlation      Energy =  -1.90762430608620
 DFT Exchange         Energy = -36.11549461226204
 One-Electron (alpha) Energy = -559.38016981603130
 One-Electron (beta)  Energy = -532.43946987370475
 Total Coulomb        Energy = 410.05894623306699
    9    -578.5389522973      3.89e-06  
 Alpha HF Exchange    Energy =  -4.66186807726996
 Beta HF Exchange     Energy =  -4.44185731659481
 DFT Correlation      Energy =  -1.90761998846214
 DFT Exchange         Energy = -36.11544446928719
 One-Electron (alpha) Energy = -559.37971651858322
 One-Electron (beta)  Energy = -532.43860956750143
 Total Coulomb        Energy = 410.05756907002740
   10    -578.5389524024      9.96e-07  Convergence criterion met
 ---------------------------------------
 SCF time:   CPU 22.02s  wall 2.00s 
<S^2> =          2.003555599
 Alpha HF Exchange    Energy =  -4.66186807726996
 Beta HF Exchange     Energy =  -4.44185731659481
 DFT Correlation      Energy =  -1.90761998846214
 DFT Exchange         Energy = -36.11544446928719
 One-Electron (alpha) Energy = -559.37971651858322
 One-Electron (beta)  Energy = -532.43860956750143
 Total Coulomb        Energy = 410.05756907002740
 Nuclear repulsion Energy = 150.34859446527119
 SCF   energy in the final basis set =     -578.5389524024
 Total energy in the final basis set =     -578.5389524024
 
 --------------------------------------------------------------
 
                    Orbital Energies (a.u.)
 --------------------------------------------------------------
 
 Alpha MOs
 -- Occupied --
******* -10.232 -10.215 -10.191  -9.442  -7.209  -7.198  -7.194
 -0.856  -0.789  -0.688  -0.603  -0.511  -0.464  -0.445  -0.394
 -0.378  -0.370  -0.344  -0.290  -0.259  -0.175
 -- Virtual --
  0.058   0.114   0.128   0.140   0.159   0.171   0.190   0.213
  0.224   0.397   0.454   0.461   0.475   0.508   0.520   0.530
  0.555   0.581   0.654   0.665   0.689   0.753   0.819   0.827
  0.847   0.855   0.867   0.872   0.910   0.914   0.930   0.946
  0.963   1.006   1.151   1.277   1.306   1.339   1.520   1.568
  1.654   1.748   1.786   1.828   1.854   1.903   1.917   2.038
  2.049   2.089   2.095   2.233   2.284   2.338   2.353   2.405
  2.447   2.493   2.534   2.619   2.640   2.691   2.752   2.817
  2.863   2.899   3.172   3.236   3.293   3.365   3.428   3.465
  3.521   4.208   4.270   4.423   4.601
 
 Beta MOs
 -- Occupied --
******* -10.217 -10.210 -10.191  -9.436  -7.195  -7.191  -7.191
 -0.820  -0.773  -0.664  -0.581  -0.490  -0.452  -0.426  -0.379
 -0.362  -0.360  -0.308  -0.276
 -- Virtual --
 -0.148  -0.039   0.072   0.121   0.134   0.145   0.161   0.181
  0.199   0.230   0.235   0.413   0.472   0.481   0.486   0.520
  0.527   0.541   0.583   0.614   0.663   0.680   0.704   0.774
  0.836   0.843   0.860   0.869   0.876   0.889   0.921   0.926
  0.943   0.969   0.991   1.027   1.178   1.292   1.321   1.357
  1.531   1.576   1.659   1.770   1.819   1.856   1.875   1.927
  1.945   2.039   2.051   2.094   2.099   2.237   2.292   2.348
  2.362   2.436   2.469   2.512   2.555   2.639   2.654   2.699
  2.760   2.824   2.866   2.905   3.175   3.253   3.307   3.375
  3.437   3.476   3.531   4.232   4.284   4.439   4.613
 --------------------------------------------------------------
 
          Ground-State Mulliken Net Atomic Charges

     Atom                 Charge (a.u.)    Spin (a.u.)
  --------------------------------------------------------
      1 Cl                   -0.102105       0.658753
      2 C                    -0.209364       0.219176
      3 C                    -0.340223       0.910007
      4 C                    -0.318230       0.009899
      5 H                     0.122496       0.008668
      6 H                     0.116288       0.030862
      7 H                     0.186776       0.065813
      8 H                     0.192646       0.081314
      9 H                     0.110840       0.000553
     10 H                     0.116136       0.011368
     11 H                     0.124738       0.003586
  --------------------------------------------------------
  Sum of atomic charges =     0.000000
  Sum of spin   charges =     2.000000

 -----------------------------------------------------------------
                    Cartesian Multipole Moments
 -----------------------------------------------------------------
    Charge (ESU x 10^10)
                 0.0000
    Dipole Moment (Debye)
         X      -2.7660      Y       0.7762      Z      -0.3145
       Tot       2.8900
    Quadrupole Moments (Debye-Ang)
        XX     -39.5992     XY       0.3059     YY     -32.7790
        XZ      -1.1877     YZ      -0.5681     ZZ     -32.4200
    Octopole Moments (Debye-Ang^2)
       XXX     -74.7827    XXY      -5.1165    XYY     -18.2874
       YYY     -10.3921    XXZ      -8.5597    XYZ      -1.0213
       YYZ      -5.9626    XZZ     -19.3469    YZZ      -2.9145
       ZZZ     -14.9787
    Hexadecapole Moments (Debye-Ang^3)
      XXXX    -770.1287   XXXY     -35.2465   XXYY    -138.5493
      XYYY     -26.7069   YYYY     -83.6944   XXXZ     -38.3494
      XXYZ       1.2374   XYYZ     -12.4020   YYYZ       8.0442
      XXZZ    -139.9361   XYZZ      -8.4050   YYZZ     -27.9622
      XZZZ     -35.1617   YZZZ       7.5492   ZZZZ     -75.4902
 -----------------------------------------------------------------
 Calculating analytic gradient of the SCF energy
 Gradient of SCF Energy
            1           2           3           4           5           6
    1  -0.1022777   0.0097732   0.0830953  -0.0006872  -0.0006329   0.0000621
    2   0.0150662  -0.0030004  -0.0110054   0.0001024   0.0002007   0.0000804
    3  -0.0206023   0.0011702   0.0168273   0.0000302  -0.0000290   0.0000087
            7           8           9          10          11
    1   0.0056062   0.0050434   0.0000231   0.0000216  -0.0000270
    2   0.0001043  -0.0015421   0.0000264  -0.0000681   0.0000357
    3  -0.0005011   0.0030899  -0.0000341   0.0000577  -0.0000175
 Max gradient component =       1.023E-01
 RMS gradient           =       2.374E-02
 Gradient time:  CPU 8.04 s  wall 0.82 s
 Geometry Optimization Parameters
   NAtoms,    NIC,     NZ,  NCons,   NDum,   NFix, NCnnct, MaxDiis
       11      68       0       1       0       0       0       0

 Cartesian Hessian Update
 Hessian Updated using BFGS Update


** CONSTRAINED OPTIMIZATION IN DELOCALIZED INTERNAL COORDINATES **
   Searching for a Minimum

   Optimization Cycle:   3

                       Coordinates (Angstroms)
     ATOM                X               Y               Z
      1  Cl        2.5411839439    0.0935481286    0.3941913761
      2  C        -0.8574719529    0.5366064503   -0.3665716545
      3  C         0.6957862882    0.3445543851    0.0179917347
      4  C        -1.7267302130   -0.5270752645    0.2964090716
      5  H        -0.9166572992    0.4812567185   -1.4595504764
      6  H        -1.1869968125    1.5457536737   -0.0764815669
      7  H         0.6070089835    0.2616435806    1.1001471701
      8  H         1.1214357578    1.0787859521   -0.6678337295
      9  H        -1.6853088232   -0.4524195936    1.3886943168
     10  H        -2.7730463783   -0.4076769824   -0.0064332987
     11  H        -1.4036034944   -1.5333790485    0.0141310567
   Point Group: c1    Number of degrees of freedom:    27


   Energy is   -578.538952402

              Constraints and their Current Values
                                        Value     Constraint
   Distance(Angs):        1   3             1.900006     1.900000
 Hessian Updated using BFGS Update

   Using Lagrange Multiplier Algorithm


 26 Hessian modes will be used to form the next step
  Hessian Eigenvalues:
    -0.869781    0.044953    0.045002    0.053712    0.073358    0.081663
     0.082603    0.083367    0.086811    0.110821    0.135680    0.160000
     0.160115    0.190975    0.198172    0.219366    0.281246    0.298223
     0.337117    0.341218    0.341510    0.341754    0.343732    0.349811
     0.351179    1.174892

 Minimum Search - Taking P-RFO Step
 Searching for Lamda that Maximizes Along the Constraint modes Only
 Value Taken    Lamda =   0.00000221
 Searching for Lamda that Minimizes Along All other modes
 Value Taken    Lamda =  -0.00324880
 Step Taken.  Stepsize is  0.231349

                             Maximum     Tolerance    Cnvgd?
         Gradient            0.011987       0.000300      NO
         Displacement        0.194324       0.001200      NO
         Energy change     -0.000677       0.000001      NO


 New Cartesian Coordinates Obtained by Inverse Iteration

 Displacement from previous Coordinates is:  0.206265
 ----------------------------------------------------------------
             Standard Nuclear Orientation (Angstroms)
    I     Atom           X                Y                Z
 ----------------------------------------------------------------
    1      Cl      2.5899181025     0.0637867440     0.3998241521
    2      C      -0.8640737300     0.5410602174    -0.3660251504
    3      C       0.7460943662     0.3303115462     0.0264435884
    4      C      -1.7254978330    -0.5263691027     0.2968563873
    5      H      -0.9132238266     0.4835942257    -1.4591873639
    6      H      -1.1928157275     1.5502550455    -0.0768230667
    7      H       0.5595503654     0.2753461164     1.1020746278
    8      H       1.0708322672     1.0972380528    -0.6850151998
    9      H      -1.6846412114    -0.4526939992     1.3893464910
   10      H      -2.7722356543    -0.4096925895    -0.0065626207
   11      H      -1.3983071184    -1.5312382566     0.0137621549
 ----------------------------------------------------------------
 Nuclear Repulsion Energy =   148.9189230086 hartrees
 There are       22 alpha and       20 beta electrons

                       Distance Matrix (Angstroms)
             Cl(  1)   C (  2)   C (  3)   C (  4)   H (  5)   H (  6)
   C (  2)  3.569926
   C (  3)  1.900035  1.670655
   C (  4)  4.356799  1.523440  2.629790
   H (  5)  3.988003  1.095774  2.232472  2.182545
   H (  6)  4.092170  1.100083  2.293098  2.176179  1.768295
   H (  7)  2.158774  2.062190  1.093070  2.551974  2.961840  2.466978
   H (  8)  2.133663  2.038369  1.095356  3.379295  2.216389  2.387305
   H (  9)  4.417891  2.177661  2.894664  1.095734  3.096105  2.530484
   H ( 10)  5.398335  2.161996  3.595461  1.096055  2.522698  2.518114
   H ( 11)  4.312666  2.173491  2.839716  1.094056  2.542526  3.089666
             H (  7)   H (  8)   H (  9)   H ( 10)
   H (  8)  2.032389
   H (  9)  2.376755  3.781256
   H ( 10)  3.577590  4.183337  1.770105
   H ( 11)  2.877738  3.673394  1.771293  1.773685
 
 Applying Cartesian multipole field
    Component          Value
    ---------          -----
     (2,0,0)        1.00000E-11
     (0,2,0)        2.00000E-11
     (0,0,2)       -3.00000E-10
 Nucleus-field energy     =    -0.0000000042 hartrees
 Requested basis set is 6-31G(d,p)
 There are 38 shells and 99 basis functions
 A cutoff of  1.0D-14 yielded    707 shell pairs
 There are      4896 function pairs
 Smallest overlap matrix eigenvalue = 5.40E-03
 Guess from superposition of atomic densities
 Warning:  Energy on first SCF cycle will be non-variational
 SAD guess density has 42.000000 electrons

 -----------------------------------------------------------------------
  General SCF calculation program by
  Eric Jon Sundstrom, Paul Horn, Yuezhi Mao, Dmitri Zuev, Alec White,
  David Stuck, Shaama M.S., Shane Yost, Joonho Lee, David Small,
  Daniel Levine, Susi Lehtola, Hugh Burton, Evgeny Epifanovsky
 -----------------------------------------------------------------------
 Exchange:     0.2000 Hartree-Fock + 0.0800 Slater + 0.7200 B88
 Correlation:  0.1900 VWN1RPA + 0.8100 LYP
 Using SG-1 standard quadrature grid
 using 12 threads for integral computing
 -------------------------------------------------------
 OpenMP Integral computing Module                
 Release: version 1.0, May 2013, Q-Chem Inc. Pittsburgh 
 -------------------------------------------------------
 -------------------------------------------------------
 OpenMP BLAS3 based DFT computing Module                
 Release: version 1.0, May 2013, Q-Chem Inc. Pittsburgh 
 -------------------------------------------------------
 A unrestricted SCF calculation will be
 performed using DIIS
 SCF converges when DIIS error is below 1.0e-06
 Alpha HF Exchange    Energy =  -4.56068436107933
 Beta HF Exchange     Energy =  -4.56068436107933
 DFT Correlation      Energy =  -1.89979485954138
 DFT Exchange         Energy = -35.73454425708834
 One-Electron (alpha) Energy = -542.83371201462137
 One-Electron (beta)  Energy = -542.83371201462137
 Total Coulomb        Energy = 404.51030168277367
 ---------------------------------------
  Cycle       Energy         DIIS error
 ---------------------------------------
    1    -578.9939071808      2.94e-02  
 Alpha HF Exchange    Energy =  -4.68155976423478
 Beta HF Exchange     Energy =  -4.46241880290723
 DFT Correlation      Energy =  -1.91878332276649
 DFT Exchange         Energy = -36.30199913107592
 One-Electron (alpha) Energy = -559.16943995581130
 One-Electron (beta)  Energy = -532.78571909643074
 Total Coulomb        Energy = 411.92752679923416
    2    -578.4734702695      3.49e-03  
 Alpha HF Exchange    Energy =  -4.63284439563892
 Beta HF Exchange     Energy =  -4.42183665440304
 DFT Correlation      Energy =  -1.89417586719068
 DFT Exchange         Energy = -35.91240342964588
 One-Electron (alpha) Energy = -556.20575030675377
 One-Electron (beta)  Energy = -530.10219729870403
 Total Coulomb        Energy = 405.80173293216103
    3    -578.4485520157      4.12e-03  
 Alpha HF Exchange    Energy =  -4.65477586866742
 Beta HF Exchange     Energy =  -4.43633216212540
 DFT Correlation      Energy =  -1.90590338060626
 DFT Exchange         Energy = -36.07346511016576
 One-Electron (alpha) Energy = -557.57480578375748
 One-Electron (beta)  Energy = -531.00650127016786
 Total Coulomb        Energy = 408.19605650455179
    4    -578.5368040665      8.22e-04  
 Alpha HF Exchange    Energy =  -4.65865540983476
 Beta HF Exchange     Energy =  -4.44079047398590
 DFT Correlation      Energy =  -1.90613467768045
 DFT Exchange         Energy = -36.10301001132375
 One-Electron (alpha) Energy = -557.84088408654350
 One-Electron (beta)  Energy = -531.31185783530634
 Total Coulomb        Energy = 408.80171442187930
    5    -578.5406950683      2.65e-04  
 Alpha HF Exchange    Energy =  -4.65844054499991
 Beta HF Exchange     Energy =  -4.43993491235982
 DFT Correlation      Energy =  -1.90595230042948
 DFT Exchange         Energy = -36.09873116933326
 One-Electron (alpha) Energy = -557.81348757435273
 One-Electron (beta)  Energy = -531.22818106799650
 Total Coulomb        Energy = 408.68470944115012
    6    -578.5410951238      7.57e-05  
 Alpha HF Exchange    Energy =  -4.65815280312687
 Beta HF Exchange     Energy =  -4.43983100816605
 DFT Correlation      Energy =  -1.90580634306730
 DFT Exchange         Energy = -36.09673485487428
 One-Electron (alpha) Energy = -557.79320346646114
 One-Electron (beta)  Energy = -531.20706365571823
 Total Coulomb        Energy = 408.64074128242379
    7    -578.5411278445      2.53e-05  
 Alpha HF Exchange    Energy =  -4.65828186500993
 Beta HF Exchange     Energy =  -4.43990412811621
 DFT Correlation      Energy =  -1.90582249393312
 DFT Exchange         Energy = -36.09746003876687
 One-Electron (alpha) Energy = -557.80396613873108
 One-Electron (beta)  Energy = -531.21198924929297
 Total Coulomb        Energy = 408.65736885436041
    8    -578.5411320550      8.16e-06  
 Alpha HF Exchange    Energy =  -4.65827633104155
 Beta HF Exchange     Energy =  -4.43992760019957
 DFT Correlation      Energy =  -1.90580886562868
 DFT Exchange         Energy = -36.09746200161926
 One-Electron (alpha) Energy = -557.80313611449526
 One-Electron (beta)  Energy = -531.21111445910753
 Total Coulomb        Energy = 408.65566971696427
    9    -578.5411326506      4.14e-06  
 Alpha HF Exchange    Energy =  -4.65826582688493
 Beta HF Exchange     Energy =  -4.43992408961806
 DFT Correlation      Energy =  -1.90580416481432
 DFT Exchange         Energy = -36.09739341962580
 One-Electron (alpha) Energy = -557.80239431726466
 One-Electron (beta)  Energy = -531.21013998500337
 Total Coulomb        Energy = 408.65386603348287
   10    -578.5411327653      8.79e-07  Convergence criterion met
 ---------------------------------------
 SCF time:   CPU 24.32s  wall 3.00s 
<S^2> =          2.004117964
 Alpha HF Exchange    Energy =  -4.65826582688493
 Beta HF Exchange     Energy =  -4.43992408961806
 DFT Correlation      Energy =  -1.90580416481432
 DFT Exchange         Energy = -36.09739341962580
 One-Electron (alpha) Energy = -557.80239431726466
 One-Electron (beta)  Energy = -531.21013998500337
 Total Coulomb        Energy = 408.65386603348287
 Nuclear repulsion Energy = 148.91892300447819
 SCF   energy in the final basis set =     -578.5411327653
 Total energy in the final basis set =     -578.5411327653
 
 --------------------------------------------------------------
 
                    Orbital Energies (a.u.)
 --------------------------------------------------------------
 
 Alpha MOs
 -- Occupied --
******* -10.240 -10.221 -10.194  -9.437  -7.203  -7.193  -7.190
 -0.846  -0.789  -0.689  -0.604  -0.509  -0.464  -0.443  -0.395
 -0.381  -0.371  -0.342  -0.288  -0.259  -0.174
 -- Virtual --
  0.055   0.112   0.126   0.138   0.156   0.163   0.189   0.192
  0.223   0.400   0.451   0.462   0.475   0.505   0.520   0.525
  0.551   0.584   0.647   0.664   0.686   0.749   0.815   0.825
  0.846   0.855   0.865   0.879   0.910   0.913   0.938   0.948
  0.961   1.014   1.136   1.273   1.295   1.333   1.515   1.560
  1.654   1.718   1.758   1.821   1.846   1.872   1.915   2.034
  2.046   2.084   2.090   2.228   2.273   2.348   2.353   2.407
  2.458   2.465   2.519   2.591   2.631   2.674   2.737   2.812
  2.856   2.894   3.168   3.224   3.286   3.368   3.418   3.467
  3.509   4.209   4.270   4.422   4.587
 
 Beta MOs
 -- Occupied --
******* -10.225 -10.214 -10.194  -9.432  -7.191  -7.187  -7.186
 -0.813  -0.772  -0.665  -0.583  -0.488  -0.453  -0.424  -0.381
 -0.364  -0.358  -0.303  -0.276
 -- Virtual --
 -0.148  -0.041   0.069   0.118   0.133   0.142   0.159   0.175
  0.199   0.214   0.230   0.414   0.474   0.479   0.482   0.516
  0.530   0.537   0.578   0.616   0.657   0.678   0.701   0.773
  0.830   0.840   0.858   0.868   0.874   0.895   0.919   0.927
  0.952   0.970   0.989   1.037   1.164   1.286   1.309   1.350
  1.524   1.570   1.659   1.746   1.795   1.851   1.868   1.901
  1.933   2.036   2.048   2.090   2.095   2.231   2.283   2.356
  2.363   2.443   2.477   2.480   2.549   2.605   2.648   2.682
  2.745   2.818   2.859   2.900   3.171   3.241   3.302   3.375
  3.428   3.481   3.519   4.232   4.284   4.441   4.600
 --------------------------------------------------------------
 
          Ground-State Mulliken Net Atomic Charges

     Atom                 Charge (a.u.)    Spin (a.u.)
  --------------------------------------------------------
      1 Cl                   -0.116447       0.598998
      2 C                    -0.220283       0.311092
      3 C                    -0.334356       0.888718
      4 C                    -0.319767       0.006510
      5 H                     0.126467       0.006297
      6 H                     0.119356       0.021870
      7 H                     0.189643       0.066415
      8 H                     0.195130       0.079231
      9 H                     0.112882       0.001209
     10 H                     0.119634       0.015489
     11 H                     0.127740       0.004171
  --------------------------------------------------------
  Sum of atomic charges =    -0.000000
  Sum of spin   charges =     2.000000

 -----------------------------------------------------------------
                    Cartesian Multipole Moments
 -----------------------------------------------------------------
    Charge (ESU x 10^10)
                -0.0000
    Dipole Moment (Debye)
         X      -3.1288      Y       0.8486      Z      -0.3578
       Tot       3.2615
    Quadrupole Moments (Debye-Ang)
        XX     -40.2251     XY       0.3988     YY     -32.7356
        XZ      -1.2946     YZ      -0.5741     ZZ     -32.4181
    Octopole Moments (Debye-Ang^2)
       XXX     -79.8926    XXY      -4.5860    XYY     -19.3004
       YYY      -9.1188    XXZ      -8.8635    XYZ      -0.9137
       YYZ      -6.1443    XZZ     -20.4499    YZZ      -2.4172
       ZZZ     -15.3895
    Hexadecapole Moments (Debye-Ang^3)
      XXXX    -796.0971   XXXY     -31.5652   XXYY    -142.0550
      XYYY     -23.6832   YYYY     -83.1384   XXXZ     -40.2998
      XXYZ       1.6182   XYYZ     -12.8939   YYYZ       8.4074
      XXZZ    -143.9407   XYZZ      -7.3060   YYZZ     -27.9103
      XZZZ     -36.7611   YZZZ       7.9864   ZZZZ     -75.8446
 -----------------------------------------------------------------
 Calculating analytic gradient of the SCF energy
 Gradient of SCF Energy
            1           2           3           4           5           6
    1  -0.0774759   0.0171825   0.0658443  -0.0024774  -0.0017892  -0.0017622
    2   0.0108755  -0.0030734  -0.0110154   0.0001293   0.0006557   0.0005079
    3  -0.0161219   0.0028660   0.0133468  -0.0001486  -0.0003050  -0.0006067
            7           8           9          10          11
    1  -0.0003506   0.0003350   0.0002412   0.0001285   0.0001238
    2   0.0001787   0.0018821  -0.0000384  -0.0000900  -0.0000120
    3   0.0019037  -0.0011780   0.0000389   0.0001779   0.0000268
 Max gradient component =       7.748E-02
 RMS gradient           =       1.855E-02
 Gradient time:  CPU 7.98 s  wall 0.83 s
 Geometry Optimization Parameters
   NAtoms,    NIC,     NZ,  NCons,   NDum,   NFix, NCnnct, MaxDiis
       11      68       0       1       0       0       0       0

 Cartesian Hessian Update
 Hessian Updated using BFGS Update


** CONSTRAINED OPTIMIZATION IN DELOCALIZED INTERNAL COORDINATES **
   Searching for a Minimum

   Optimization Cycle:   4

                       Coordinates (Angstroms)
     ATOM                X               Y               Z
      1  Cl        2.5899181025    0.0637867440    0.3998241521
      2  C        -0.8640737300    0.5410602174   -0.3660251504
      3  C         0.7460943662    0.3303115462    0.0264435884
      4  C        -1.7254978330   -0.5263691027    0.2968563873
      5  H        -0.9132238266    0.4835942257   -1.4591873639
      6  H        -1.1928157275    1.5502550455   -0.0768230667
      7  H         0.5595503654    0.2753461164    1.1020746278
      8  H         1.0708322672    1.0972380528   -0.6850151998
      9  H        -1.6846412114   -0.4526939992    1.3893464910
     10  H        -2.7722356543   -0.4096925895   -0.0065626207
     11  H        -1.3983071184   -1.5312382566    0.0137621549
   Point Group: c1    Number of degrees of freedom:    27


   Energy is   -578.541132765

              Constraints and their Current Values
                                        Value     Constraint
   Distance(Angs):        1   3             1.900035     1.900000
 Hessian Updated using BFGS Update

   Using Lagrange Multiplier Algorithm


 27 Hessian modes will be used to form the next step
  Hessian Eigenvalues:
    -0.810433    0.029376    0.045003    0.045110    0.073189    0.082001
     0.082583    0.083368    0.085116    0.112370    0.135675    0.160000
     0.160061    0.160151    0.191043    0.198185    0.219739    0.295226
     0.301469    0.337358    0.341244    0.341511    0.341755    0.343733
     0.350370    0.365615    1.324295

 Minimum Search - Taking P-RFO Step
 Searching for Lamda that Maximizes Along the Constraint modes Only
 Value Taken    Lamda =   0.00000370
 Searching for Lamda that Minimizes Along All other modes
 Value Taken    Lamda =  -0.00195172
 Step Taken.  Stepsize is  0.227428

                             Maximum     Tolerance    Cnvgd?
         Gradient            0.006146       0.000300      NO
         Displacement        0.174237       0.001200      NO
         Energy change     -0.002180       0.000001      NO


 New Cartesian Coordinates Obtained by Inverse Iteration

 Displacement from previous Coordinates is:  0.186068
 ----------------------------------------------------------------
             Standard Nuclear Orientation (Angstroms)
    I     Atom           X                Y                Z
 ----------------------------------------------------------------
    1      Cl      2.6415601449     0.0452527379     0.4123407911
    2      C      -0.8875675369     0.5506956250    -0.3682601632
    3      C       0.7994977766     0.3196473114     0.0361014484
    4      C      -1.7280339779    -0.5252012483     0.2972996206
    5      H      -0.9159979688     0.4890634858    -1.4608995879
    6      H      -1.2048535581     1.5607492579    -0.0769664710
    7      H       0.5284578858     0.2812588150     1.0929759604
    8      H       1.0371918306     1.0969840632    -0.6956524818
    9      H      -1.6864496580    -0.4518610257     1.3897636160
   10      H      -2.7769484579    -0.4186063883    -0.0043268076
   11      H      -1.3912564804    -1.5263846338     0.0123180750
 ----------------------------------------------------------------
 Nuclear Repulsion Energy =   147.3715865384 hartrees
 There are       22 alpha and       20 beta electrons

                       Distance Matrix (Angstroms)
             Cl(  1)   C (  2)   C (  3)   C (  4)   H (  5)   H (  6)
   C (  2)  3.649596
   C (  3)  1.900011  1.750166
   C (  4)  4.408175  1.518851  2.677762
   H (  5)  4.045024  1.094746  2.283121  2.186184
   H (  6)  4.163058  1.098058  2.360200  2.182884  1.774040
   H (  7)  2.232524  2.052544  1.091751  2.524923  2.941414  2.451577
   H (  8)  2.215352  2.027391  1.093716  3.356175  2.184061  2.371628
   H (  9)  4.464767  2.175771  2.933865  1.095712  3.099228  2.536500
   H ( 10)  5.454266  2.154473  3.652071  1.096614  2.531522  2.528756
   H ( 11)  4.346685  2.170900  2.864926  1.094076  2.541313  3.094045
             H (  7)   H (  8)   H (  9)   H ( 10)
   H (  8)  2.030618
   H (  9)  2.351885  3.763789
   H ( 10)  3.552407  4.162044  1.770249
   H ( 11)  2.849684  3.644262  1.771749  1.774145
 
 Applying Cartesian multipole field
    Component          Value
    ---------          -----
     (2,0,0)        1.00000E-11
     (0,2,0)        2.00000E-11
     (0,0,2)       -3.00000E-10
 Nucleus-field energy     =    -0.0000000042 hartrees
 Requested basis set is 6-31G(d,p)
 There are 38 shells and 99 basis functions
 A cutoff of  1.0D-14 yielded    706 shell pairs
 There are      4884 function pairs
 Smallest overlap matrix eigenvalue = 5.84E-03
 Guess from superposition of atomic densities
 Warning:  Energy on first SCF cycle will be non-variational
 SAD guess density has 42.000000 electrons

 -----------------------------------------------------------------------
  General SCF calculation program by
  Eric Jon Sundstrom, Paul Horn, Yuezhi Mao, Dmitri Zuev, Alec White,
  David Stuck, Shaama M.S., Shane Yost, Joonho Lee, David Small,
  Daniel Levine, Susi Lehtola, Hugh Burton, Evgeny Epifanovsky
 -----------------------------------------------------------------------
 Exchange:     0.2000 Hartree-Fock + 0.0800 Slater + 0.7200 B88
 Correlation:  0.1900 VWN1RPA + 0.8100 LYP
 Using SG-1 standard quadrature grid
 using 12 threads for integral computing
 -------------------------------------------------------
 OpenMP Integral computing Module                
 Release: version 1.0, May 2013, Q-Chem Inc. Pittsburgh 
 -------------------------------------------------------
 -------------------------------------------------------
 OpenMP BLAS3 based DFT computing Module                
 Release: version 1.0, May 2013, Q-Chem Inc. Pittsburgh 
 -------------------------------------------------------
 A unrestricted SCF calculation will be
 performed using DIIS
 SCF converges when DIIS error is below 1.0e-06
 Alpha HF Exchange    Energy =  -4.55468612916864
 Beta HF Exchange     Energy =  -4.55468612916864
 DFT Correlation      Energy =  -1.89812581322043
 DFT Exchange         Energy = -35.72325047254061
 One-Electron (alpha) Energy = -541.29691201234880
 One-Electron (beta)  Energy = -541.29691201234880
 Total Coulomb        Energy = 403.01311790796274
 ---------------------------------------
  Cycle       Energy         DIIS error
 ---------------------------------------
    1    -578.9398681266      2.88e-02  
 Alpha HF Exchange    Energy =  -4.67816917164567
 Beta HF Exchange     Energy =  -4.46197271724252
 DFT Correlation      Energy =  -1.91666047302067
 DFT Exchange         Energy = -36.28799605567109
 One-Electron (alpha) Energy = -557.43611666723518
 One-Electron (beta)  Energy = -531.44447971331431
 Total Coulomb        Energy = 410.37497015910634
    2    -578.4788381048      3.39e-03  
 Alpha HF Exchange    Energy =  -4.63004529156405
 Beta HF Exchange     Energy =  -4.42219798666074
 DFT Correlation      Energy =  -1.89251158340270
 DFT Exchange         Energy = -35.90324968297239
 One-Electron (alpha) Energy = -554.53711721920115
 One-Electron (beta)  Energy = -528.75782033448058
 Total Coulomb        Energy = 404.30985703256039
    3    -578.4614985315      3.89e-03  
 Alpha HF Exchange    Energy =  -4.65198735653453
 Beta HF Exchange     Energy =  -4.43613852745752
 DFT Correlation      Energy =  -1.90402747139210
 DFT Exchange         Energy = -36.06333589493335
 One-Electron (alpha) Energy = -555.86401037269866
 One-Electron (beta)  Energy = -529.69618037024941
 Total Coulomb        Energy = 406.70481899349852
    4    -578.5392744655      7.77e-04  
 Alpha HF Exchange    Energy =  -4.65547721856896
 Beta HF Exchange     Energy =  -4.44090929482257
 DFT Correlation      Energy =  -1.90403423625711
 DFT Exchange         Energy = -36.09144058528824
 One-Electron (alpha) Energy = -556.11577146463594
 One-Electron (beta)  Energy = -529.99036599352951
 Total Coulomb        Energy = 407.28371206317615
    5    -578.5427001957      2.92e-04  
 Alpha HF Exchange    Energy =  -4.65528127580864
 Beta HF Exchange     Energy =  -4.43990502109364
 DFT Correlation      Energy =  -1.90390751341471
 DFT Exchange         Energy = -36.08707515211431
 One-Electron (alpha) Energy = -556.08367888504142
 One-Electron (beta)  Energy = -529.90750818407423
 Total Coulomb        Energy = 407.16258855884956
    6    -578.5431809384      7.73e-05  
 Alpha HF Exchange    Energy =  -4.65498174366899
 Beta HF Exchange     Energy =  -4.43979680426741
 DFT Correlation      Energy =  -1.90374447228381
 DFT Exchange         Energy = -36.08496289520882
 One-Electron (alpha) Energy = -556.06048661690204
 One-Electron (beta)  Energy = -529.88705968498175
 Total Coulomb        Energy = 407.11623064508092
    7    -578.5432150380      2.82e-05  
 Alpha HF Exchange    Energy =  -4.65510030259778
 Beta HF Exchange     Energy =  -4.43986435193972
 DFT Correlation      Energy =  -1.90376020017944
 DFT Exchange         Energy = -36.08564434529658
 One-Electron (alpha) Energy = -556.06996871908757
 One-Electron (beta)  Energy = -529.89198561216006
 Total Coulomb        Energy = 407.13151707967609
    8    -578.5432199173      9.16e-06  
 Alpha HF Exchange    Energy =  -4.65510127591541
 Beta HF Exchange     Energy =  -4.43989217281991
 DFT Correlation      Energy =  -1.90374721844899
 DFT Exchange         Energy = -36.08568889908523
 One-Electron (alpha) Energy = -556.06899798943152
 One-Electron (beta)  Energy = -529.89200706091651
 Total Coulomb        Energy = 407.13062749543741
    9    -578.5432205869      4.60e-06  
 Alpha HF Exchange    Energy =  -4.65508683481441
 Beta HF Exchange     Energy =  -4.43988758581477
 DFT Correlation      Energy =  -1.90374159621094
 DFT Exchange         Energy = -36.08560196002966
 One-Electron (alpha) Energy = -556.06781442329395
 One-Electron (beta)  Energy = -529.89101048191674
 Total Coulomb        Energy = 407.12833562121887
   10    -578.5432207266      9.46e-07  Convergence criterion met
 ---------------------------------------
 SCF time:   CPU 22.16s  wall 1.00s 
<S^2> =          2.004951819
 Alpha HF Exchange    Energy =  -4.65508683481441
 Beta HF Exchange     Energy =  -4.43988758581477
 DFT Correlation      Energy =  -1.90374159621094
 DFT Exchange         Energy = -36.08560196002966
 One-Electron (alpha) Energy = -556.06781442329395
 One-Electron (beta)  Energy = -529.89101048191674
 Total Coulomb        Energy = 407.12833562121887
 Nuclear repulsion Energy = 147.37158653425749
 SCF   energy in the final basis set =     -578.5432207266
 Total energy in the final basis set =     -578.5432207266
 
[...]

              Constraints and their Current Values
                                        Value     Constraint
   Distance(Angs):        1   3             1.900000     1.900000
 Hessian Updated using BFGS Update

 26 Hessian modes will be used to form the next step
  Hessian Eigenvalues:
     0.001371    0.001686    0.009013    0.019386    0.044973    0.059805
     0.082661    0.083277    0.094312    0.106309    0.140360    0.157618
     0.159386    0.160010    0.160117    0.186708    0.195907    0.207124
     0.298047    0.337138    0.341207    0.341469    0.341696    0.343733
     0.349948    0.356974

 Minimum Search - Taking Simple RFO Step
 Searching for Lamda that Minimizes Along All modes
 Value Taken    Lamda =   0.00000000
 Step Taken.  Stepsize is  0.013760

                             Maximum     Tolerance    Cnvgd?
         Gradient           0.000067      0.000300     YES
         Displacement       0.006654      0.001200      NO
         Energy change     -0.000002      0.000001      NO


 New Cartesian Coordinates Obtained by Inverse Iteration

 Displacement from previous Coordinates is:  0.020858
 ----------------------------------------------------------------
             Standard Nuclear Orientation (Angstroms)
    I     Atom           X                Y                Z
 ----------------------------------------------------------------
    1      Cl      3.6596286750     0.1815501461     0.5495517782
    2      C      -1.6052767596     0.6437741115    -0.4687351911
    3      C       1.7983801875     0.3138749976     0.1914386802
    4      C      -2.1816704250    -0.5323591562     0.2391911827
    5      H      -1.2385153769     0.5490762073    -1.4859254407
    6      H      -1.7438514091     1.6482163401    -0.0818175776
    7      H       1.1947641641     0.2638430528     1.0861225348
    8      H       1.5819792140     0.9172349555    -0.6783608417
    9      H      -2.1849765599    -0.3954760943     1.3261127947
   10      H      -3.2302501815    -0.7139012145    -0.0545202437
   11      H      -1.6346115285    -1.4542353458     0.0116363241
 ----------------------------------------------------------------
 Nuclear Repulsion Energy =   124.6166582259 hartrees
 There are       22 alpha and       20 beta electrons

                       Distance Matrix (Angstroms)
             Cl(  1)   C (  2)   C (  3)   C (  4)   H (  5)   H (  6)
   C (  2)  5.382359
   C (  3)  1.900000  3.482749
   C (  4)  5.892942  1.488852  4.069299
   H (  5)  5.316959  1.085430  3.477298  2.243896
   H (  6)  5.634477  1.085271  3.795068  2.247141  1.853373
   H (  7)  2.523933  3.225238  1.080423  3.570930  3.552131  3.451961
   H (  8)  2.523020  3.205827  1.080474  4.136216  2.956838  3.457072
   H (  9)  5.924138  2.153502  4.202118  1.095512  3.113764  2.520623
   H ( 10)  6.974035  2.157636  5.138477  1.103967  2.758811  2.791008
   H ( 11)  5.567237  2.152501  3.865744  1.095861  2.532359  3.105781
             H (  7)   H (  8)   H (  9)   H ( 10)
   H (  8)  1.921004
   H (  9)  3.451803  4.464424
   H ( 10)  4.673093  5.119310  1.760721
   H ( 11)  3.480184  4.055419  1.775309  1.760265
 
 Applying Cartesian multipole field
    Component          Value
    ---------          -----
     (2,0,0)        1.00000E-11
     (0,2,0)        2.00000E-11
     (0,0,2)       -3.00000E-10
 Nucleus-field energy     =    -0.0000000013 hartrees
 Requested basis set is 6-31G(d,p)
 There are 38 shells and 99 basis functions
 A cutoff of  1.0D-14 yielded    661 shell pairs
 There are      4427 function pairs
 Smallest overlap matrix eigenvalue = 8.92E-03
 Guess from superposition of atomic densities
 Warning:  Energy on first SCF cycle will be non-variational
 SAD guess density has 42.000000 electrons

 -----------------------------------------------------------------------
  General SCF calculation program by
  Eric Jon Sundstrom, Paul Horn, Yuezhi Mao, Dmitri Zuev, Alec White,
  David Stuck, Shaama M.S., Shane Yost, Joonho Lee, David Small,
  Daniel Levine, Susi Lehtola, Hugh Burton, Evgeny Epifanovsky
 -----------------------------------------------------------------------
 Exchange:     0.2000 Hartree-Fock + 0.0800 Slater + 0.7200 B88
 Correlation:  0.1900 VWN1RPA + 0.8100 LYP
 Using SG-1 standard quadrature grid
 using 12 threads for integral computing
 -------------------------------------------------------
 OpenMP Integral computing Module                
 Release: version 1.0, May 2013, Q-Chem Inc. Pittsburgh 
 -------------------------------------------------------
 -------------------------------------------------------
 OpenMP BLAS3 based DFT computing Module                
 Release: version 1.0, May 2013, Q-Chem Inc. Pittsburgh 
 -------------------------------------------------------
 A unrestricted SCF calculation will be
 performed using DIIS
 SCF converges when DIIS error is below 1.0e-06
 Alpha HF Exchange    Energy =  -4.52063916913404
 Beta HF Exchange     Energy =  -4.52063916913404
 DFT Correlation      Energy =  -1.87952078730174
 DFT Exchange         Energy = -35.66485178324841
 One-Electron (alpha) Energy = -518.54467037426855
 One-Electron (beta)  Energy = -518.54467037426855
 Total Coulomb        Energy = 380.38690115239325
 ---------------------------------------
  Cycle       Energy         DIIS error
 ---------------------------------------
    1    -578.6714322804      2.68e-02  
 Alpha HF Exchange    Energy =  -4.66160875967175
 Beta HF Exchange     Energy =  -4.47250772697318
 DFT Correlation      Energy =  -1.89647935709188
 DFT Exchange         Energy = -36.23579461921310
 One-Electron (alpha) Energy = -531.96848048001505
 One-Electron (beta)  Energy = -510.84061446934510
 Total Coulomb        Energy = 386.92704859698978
    2    -578.5317785908      3.38e-03  
 Alpha HF Exchange    Energy =  -4.61230513677571
 Beta HF Exchange     Energy =  -4.43470414478609
 DFT Correlation      Energy =  -1.87259840747596
 DFT Exchange         Energy = -35.86216806043395
 One-Electron (alpha) Energy = -529.48111023601280
 One-Electron (beta)  Energy = -508.51583976355778
 Total Coulomb        Energy = 381.62946137526797
    3    -578.5326061493      3.47e-03  
 Alpha HF Exchange    Energy =  -4.63618302703877
 Beta HF Exchange     Energy =  -4.45146815976079
 DFT Correlation      Energy =  -1.88308003008505
 DFT Exchange         Energy = -36.03298207477091
 One-Electron (alpha) Energy = -530.68952955922532
 One-Electron (beta)  Energy = -509.52413604648893
 Total Coulomb        Energy = 384.00419430278936
    4    -578.5965263701      2.90e-04  
 Alpha HF Exchange    Energy =  -4.63812068063051
 Beta HF Exchange     Energy =  -4.45391999595180
 DFT Correlation      Energy =  -1.88284305590293
 DFT Exchange         Energy = -36.04795186920262
 One-Electron (alpha) Energy = -530.80550161339761
 One-Electron (beta)  Energy = -509.64208329285248
 Total Coulomb        Energy = 384.25688682061707
    5    -578.5968754628      2.13e-04  
 Alpha HF Exchange    Energy =  -4.63761217653940
 Beta HF Exchange     Energy =  -4.45285399067403
 DFT Correlation      Energy =  -1.88263164604840
 DFT Exchange         Energy = -36.04221204573869
 One-Electron (alpha) Energy = -530.74795635287285
 One-Electron (beta)  Energy = -509.56338407065016
 Total Coulomb        Energy = 384.11286125699189
    6    -578.5971308010      7.17e-05  
 Alpha HF Exchange    Energy =  -4.63755282432859
 Beta HF Exchange     Energy =  -4.45297211528575
 DFT Correlation      Energy =  -1.88249004693402
 DFT Exchange         Energy = -36.04198071549875
 One-Electron (alpha) Energy = -530.74873219437177
 One-Electron (beta)  Energy = -509.56741233467164
 Total Coulomb        Energy = 384.11731670378828
    7    -578.5971653028      1.73e-05  
 Alpha HF Exchange    Energy =  -4.63767877822032
 Beta HF Exchange     Energy =  -4.45305306178038
 DFT Correlation      Energy =  -1.88248044452128
 DFT Exchange         Energy = -36.04276426734751
 One-Electron (alpha) Energy = -530.75399923556915
 One-Electron (beta)  Energy = -509.57179006909377
 Total Coulomb        Energy = 384.12793920511496
    8    -578.5971684269      6.68e-06  
 Alpha HF Exchange    Energy =  -4.63764224839098
 Beta HF Exchange     Energy =  -4.45303821284228
 DFT Correlation      Energy =  -1.88245644781175
 DFT Exchange         Energy = -36.04253611284031
 One-Electron (alpha) Energy = -530.75086450631113
 One-Electron (beta)  Energy = -509.56978870466816
 Total Coulomb        Energy = 384.12249918297584
    9    -578.5971688254      2.22e-06  
 Alpha HF Exchange    Energy =  -4.63764706288695
 Beta HF Exchange     Energy =  -4.45304235759845
 DFT Correlation      Energy =  -1.88245631346231
 DFT Exchange         Energy = -36.04257302317950
 One-Electron (alpha) Energy = -530.75091837388118
 One-Electron (beta)  Energy = -509.57029532567628
 Total Coulomb        Energy = 384.12310536586699
   10    -578.5971688663      8.49e-07  Convergence criterion met
 ---------------------------------------
 SCF time:   CPU 20.35s  wall 1.00s 
<S^2> =          2.007639071
 Alpha HF Exchange    Energy =  -4.63764706288695
 Beta HF Exchange     Energy =  -4.45304235759845
 DFT Correlation      Energy =  -1.88245631346231
 DFT Exchange         Energy = -36.04257302317950
 One-Electron (alpha) Energy = -530.75091837388118
 One-Electron (beta)  Energy = -509.57029532567628
 Total Coulomb        Energy = 384.12310536586699
 Nuclear repulsion Energy = 124.61665822452252
 SCF   energy in the final basis set =     -578.5971688663
 Total energy in the final basis set =     -578.5971688663
 
 --------------------------------------------------------------
 
                    Orbital Energies (a.u.)
 --------------------------------------------------------------
 
 Alpha MOs
 -- Occupied --
******* -10.270 -10.199 -10.190  -9.462  -7.226  -7.218  -7.216
 -0.833  -0.762  -0.672  -0.615  -0.471  -0.456  -0.420  -0.409
 -0.397  -0.364  -0.347  -0.308  -0.240  -0.209
 -- Virtual --
 -0.014   0.096   0.117   0.127   0.138   0.168   0.173   0.210
  0.250   0.390   0.438   0.448   0.454   0.455   0.493   0.516
  0.536   0.552   0.585   0.603   0.685   0.717   0.774   0.827
  0.842   0.846   0.869   0.869   0.872   0.887   0.904   0.925
  0.944   0.955   0.987   1.023   1.269   1.312   1.407   1.432
  1.562   1.588   1.788   1.845   1.878   1.896   1.939   1.942
  2.001   2.038   2.079   2.083   2.219   2.315   2.336   2.342
  2.367   2.468   2.518   2.556   2.610   2.650   2.680   2.829
  2.836   2.881   3.161   3.277   3.316   3.341   3.416   3.454
  3.502   4.153   4.222   4.272   4.517
 
 Beta MOs
 -- Occupied --
******* -10.255 -10.191 -10.186  -9.462  -7.226  -7.216  -7.216
 -0.823  -0.745  -0.640  -0.591  -0.461  -0.450  -0.405  -0.400
 -0.389  -0.359  -0.322  -0.306
 -- Virtual --
 -0.081  -0.054   0.009   0.103   0.125   0.138   0.143   0.175
  0.181   0.215   0.259   0.392   0.448   0.455   0.465   0.473
  0.501   0.527   0.557   0.575   0.610   0.626   0.704   0.735
  0.789   0.840   0.848   0.855   0.874   0.877   0.879   0.893
  0.909   0.931   0.963   0.975   0.993   1.039   1.279   1.330
  1.441   1.472   1.567   1.639   1.813   1.864   1.886   1.944
  1.964   1.979   2.032   2.044   2.084   2.086   2.221   2.323
  2.350   2.354   2.383   2.483   2.541   2.581   2.627   2.656
  2.684   2.834   2.841   2.886   3.166   3.284   3.327   3.350
  3.419   3.461   3.509   4.176   4.247   4.287   4.527
 --------------------------------------------------------------
 
          Ground-State Mulliken Net Atomic Charges

     Atom                 Charge (a.u.)    Spin (a.u.)
  --------------------------------------------------------
      1 Cl                   -0.093780       0.049041
      2 C                    -0.230023       1.066115
      3 C                    -0.257023       1.031885
      4 C                    -0.333986      -0.078575
      5 H                     0.107235      -0.046332
      6 H                     0.108274      -0.046384
      7 H                     0.170765      -0.035040
      8 H                     0.169205      -0.034565
      9 H                     0.115435       0.012628
     10 H                     0.122762       0.064852
     11 H                     0.121136       0.016376
  --------------------------------------------------------
  Sum of atomic charges =    -0.000000
  Sum of spin   charges =     2.000000

 -----------------------------------------------------------------
                    Cartesian Multipole Moments
 -----------------------------------------------------------------
    Charge (ESU x 10^10)
                -0.0000
    Dipole Moment (Debye)
         X      -2.3201      Y       0.3920      Z      -0.1791
       Tot       2.3598
    Quadrupole Moments (Debye-Ang)
        XX     -41.3048     XY       0.7008     YY     -33.3501
        XZ      -1.6729     YZ      -0.3348     ZZ     -32.5940
    Octopole Moments (Debye-Ang^2)
       XXX    -122.1491    XXY      -7.0786    XYY     -32.9098
       YYY     -14.6907    XXZ      -9.4041    XYZ      -1.6784
       YYZ      -7.5757    XZZ     -31.7481    YZZ      -4.5406
       ZZZ     -20.7512
    Hexadecapole Moments (Debye-Ang^3)
      XXXX   -1563.8015   XXXY     -46.6623   XXYY    -271.3248
      XYYY     -46.9574   YYYY     -90.3418   XXXZ     -92.4278
      XXYZ       1.4527   XYYZ     -30.4913   YYYZ       6.1861
      XXZZ    -271.6435   XYZZ     -14.0753   YYZZ     -31.5848
      XZZZ     -87.4904   YZZZ       5.3243   ZZZZ     -88.8992
 -----------------------------------------------------------------
 Calculating analytic gradient of the SCF energy
 Gradient of SCF Energy
            1           2           3           4           5           6
    1   0.0493727  -0.0000008  -0.0493709   0.0000239   0.0000136  -0.0000299
    2  -0.0034894   0.0000158   0.0034561  -0.0000086   0.0000052  -0.0000013
    3   0.0094597  -0.0000157  -0.0094753  -0.0000048   0.0000067  -0.0000123
            7           8           9          10          11
    1   0.0000105  -0.0000284  -0.0000054   0.0000024   0.0000124
    2   0.0000111   0.0000263  -0.0000042  -0.0000101  -0.0000008
    3   0.0000080   0.0000145   0.0000048   0.0000036   0.0000108
 Max gradient component =       4.937E-02
 RMS gradient           =       1.241E-02
 Gradient time:  CPU 7.13 s  wall 0.78 s
 Geometry Optimization Parameters
   NAtoms,    NIC,     NZ,  NCons,   NDum,   NFix, NCnnct, MaxDiis
       11      68       0       1       0       0       0       0

 Cartesian Hessian Update
 Hessian Updated using BFGS Update


** CONSTRAINED OPTIMIZATION IN DELOCALIZED INTERNAL COORDINATES **
   Searching for a Minimum

   Optimization Cycle:  33

                       Coordinates (Angstroms)
     ATOM                X               Y               Z
      1  Cl        3.6596286750    0.1815501461    0.5495517782
      2  C        -1.6052767596    0.6437741115   -0.4687351911
      3  C         1.7983801875    0.3138749976    0.1914386802
      4  C        -2.1816704250   -0.5323591562    0.2391911827
      5  H        -1.2385153769    0.5490762073   -1.4859254407
      6  H        -1.7438514091    1.6482163401   -0.0818175776
      7  H         1.1947641641    0.2638430528    1.0861225348
      8  H         1.5819792140    0.9172349555   -0.6783608417
      9  H        -2.1849765599   -0.3954760943    1.3261127947
     10  H        -3.2302501815   -0.7139012145   -0.0545202437
     11  H        -1.6346115285   -1.4542353458    0.0116363241
   Point Group: c1    Number of degrees of freedom:    27


   Energy is   -578.597168866

              Constraints and their Current Values
                                        Value     Constraint
   Distance(Angs):        1   3             1.900000     1.900000
 Hessian Updated using BFGS Update

 26 Hessian modes will be used to form the next step
  Hessian Eigenvalues:
     0.001402    0.001688    0.009040    0.017699    0.042980    0.057396
     0.081964    0.082740    0.091681    0.105827    0.123779    0.153221
     0.159443    0.160012    0.160351    0.177615    0.202173    0.203286
     0.298034    0.337190    0.341230    0.341494    0.341718    0.343734
     0.349954    0.356916

 Minimum Search - Taking Simple RFO Step
 Searching for Lamda that Minimizes Along All modes
 Value Taken    Lamda =   0.00000000
 Step Taken.  Stepsize is  0.005968

                             Maximum     Tolerance    Cnvgd?
         Gradient           0.000064      0.000300     YES
         Displacement       0.002600      0.001200      NO
         Energy change     -0.000000      0.000001     YES


                       Distance Matrix (Angstroms)
             Cl(  1)   C (  2)   C (  3)   C (  4)   H (  5)   H (  6)
   C (  2)  5.382359
   C (  3)  1.900000  3.482749
   C (  4)  5.892942  1.488852  4.069299
   H (  5)  5.316959  1.085430  3.477298  2.243896
   H (  6)  5.634477  1.085271  3.795068  2.247141  1.853373
   H (  7)  2.523933  3.225238  1.080423  3.570930  3.552131  3.451961
   H (  8)  2.523020  3.205827  1.080474  4.136216  2.956838  3.457072
   H (  9)  5.924138  2.153502  4.202118  1.095512  3.113764  2.520623
   H ( 10)  6.974035  2.157636  5.138477  1.103967  2.758811  2.791008
   H ( 11)  5.567237  2.152501  3.865744  1.095861  2.532359  3.105781
             H (  7)   H (  8)   H (  9)   H ( 10)
   H (  8)  1.921004
   H (  9)  3.451803  4.464424
   H ( 10)  4.673093  5.119310  1.760721
   H ( 11)  3.480184  4.055419  1.775309  1.760265
 
 Final energy is   -578.597168866295     


 ******************************
 **  OPTIMIZATION CONVERGED  **
 ******************************

                       Coordinates (Angstroms)
     ATOM                X               Y               Z
      1  Cl        3.6596286750    0.1815501461    0.5495517782
      2  C        -1.6052767596    0.6437741115   -0.4687351911
      3  C         1.7983801875    0.3138749976    0.1914386802
      4  C        -2.1816704250   -0.5323591562    0.2391911827
      5  H        -1.2385153769    0.5490762073   -1.4859254407
      6  H        -1.7438514091    1.6482163401   -0.0818175776
      7  H         1.1947641641    0.2638430528    1.0861225348
      8  H         1.5819792140    0.9172349555   -0.6783608417
      9  H        -2.1849765599   -0.3954760943    1.3261127947
     10  H        -3.2302501815   -0.7139012145   -0.0545202437
     11  H        -1.6346115285   -1.4542353458    0.0116363241

Z-matrix Print:
$molecule
0 3
Cl
C  1 1.900000
H  2 1.080423 1 112.829285
H  2 1.080474 1 112.756747 3 149.282037 0
H  4 2.956838 2 109.961139 1 167.190757 0
C  5 1.085430 4 93.181799 2 45.570621 0
H  6 1.085271 5 117.257804 4 82.475416 0
C  6 1.488852 5 120.496430 4 -111.092800 0
H  8 1.095512 6 111.976116 5 160.195723 0
H  8 1.095861 6 111.872708 5 38.508193 0
H  8 1.103967 6 111.784612 5 -80.572075 0
$end

PES scan, value:    1.9000 energy: -578.5971688663
------- Summary of potential scan: ------ 
    1.9000      -578.5971688663
----------------------------------------- 
Archival summary:
1\1\hpc0332\JobtypUnspecified\ProcedureUnspecified\6-31G**\l137(3)\knomura\MonMar1120:59:122019MonMar1120:59:122019\0\\#,JobtypUnspecified,ProcedureUnspecified,6-31G**,\\0,3\Cl\C,1,1.9\H,2,1.08042,1,112.829\H,2,1.08047,1,112.757,3,149.282,0\H,4,2.95684,2,109.961,1,167.191,0\C,5,1.08543,4,93.1818,2,45.5706,0\H,6,1.08527,5,117.258,4,82.4754,0\C,6,1.48885,5,120.496,4,-111.093,0\H,8,1.09551,6,111.976,5,160.196,0\H,8,1.09586,6,111.873,5,38.5082,0\H,8,1.10397,6,111.785,5,-80.5721,0\\\@

 Total job time:  109.99s(wall), 1139.25s(cpu) 
 Mon Mar 11 20:59:12 2019

        *************************************************************
        *                                                           *
        *  Thank you very much for using Q-Chem.  Have a nice day.  *
        *                                                           *
        *************************************************************


