
Running Job 1 of 1 ruruma/CH3CH2CH2Cl_afterGeo_singlet.xyz.data/inputs/bond_singlet_2.9.in
qchem ruruma/CH3CH2CH2Cl_afterGeo_singlet.xyz.data/inputs/bond_singlet_2.9.in_12399.0 /staging/scratch/2858534/qchem12399/ 1
/usr/usc/qchem/5.1.1/exe/qcprog.exe_s ruruma/CH3CH2CH2Cl_afterGeo_singlet.xyz.data/inputs/bond_singlet_2.9.in_12399.0 /staging/scratch/2858534/qchem12399/
Check license passed

                  Welcome to Q-Chem
     A Quantum Leap Into The Future Of Chemistry


 Q-Chem 5.1, Q-Chem, Inc., Pleasanton, CA (2018)

 Yihan Shao,  Zhengting Gan,  E. Epifanovsky,  A. T. B. Gilbert,  M. Wormit,  
 J. Kussmann,  A. W. Lange,  A. Behn,  Jia Deng,  Xintian Feng,  D. Ghosh,  
 M. Goldey,  P. R. Horn,  L. D. Jacobson,  I. Kaliman,  T. Kus,  A. Landau,  
 Jie Liu,  E. I. Proynov,  R. M. Richard,  R. P. Steele,  E. J. Sundstrom,  
 H. L. Woodcock III,  P. M. Zimmerman,  D. Zuev,  B. Albrecht,  E. Alguire,  
 S. A. Baeppler,  D. Barton,  Z. Benda,  Y. A. Bernard,  E. J. Berquist,  
 K. B. Bravaya,  H. Burton,  D. Casanova,  Chun-Min Chang,  Yunqing Chen,  
 A. Chien,  K. D. Closser,  M. P. Coons,  S. Coriani,  S. Dasgupta,  
 A. L. Dempwolff,  M. Diedenhofen,  Hainam Do,  R. G. Edgar,  Po-Tung Fang,  
 S. Faraji,  S. Fatehi,  Qingguo Feng,  K. D. Fenk,  J. Fosso-Tande,  
 Qinghui Ge,  A. Ghysels,  G. Gidofalvi,  J. Gomes,  J. Gonthier,  A. Gunina,  
 D. Hait,  M. W. D. Hanson-Heine,  P. H. P. Harbach,  A. W. Hauser,  
 J. E. Herr,  E. G. Hohenstein,  Z. C. Holden,  Kerwin Hui,  B. C. Huynh,  
 T.-C. Jagau,  Hyunjun Ji,  B. Kaduk,  K. Khistyaev,  Jaehoon Kim,  
 P. Klunzinger,  K. Koh,  D. Kosenkov,  L. Koulias,  T. Kowalczyk,  
 C. M. Krauter,  A. Kunitsa,  Ka Un Lao,  A. Laurent,  K. V. Lawler,  
 Joonho Lee,  D. Lefrancois,  S. Lehtola,  D. S. Levine,  Yi-Pei Li,  
 You-Sheng Lin,  Fenglai Liu,  E. Livshits,  A. Luenser,  P. Manohar,  
 E. Mansoor,  S. F. Manzer,  Shan-Ping Mao,  Yuezhi Mao,  N. Mardirossian,  
 A. V. Marenich,  T. Markovich,  L. A. Martinez-Martinez,  S. A. Maurer,  
 N. J. Mayhall,  S. C. McKenzie,  J.-M. Mewes,  A. F. Morrison,  
 J. W. Mullinax,  K. Nanda,  T. S. Nguyen-Beck,  R. Olivares-Amaya,  
 J. A. Parkhill,  T. M. Perrine,  F. Plasser,  P. Pokhilko,  S. Prager,  
 A. Prociuk,  E. Ramos,  D. R. Rehn,  F. Rob,  M. Schneider,  N. Sergueev,  
 S. M. Sharada,  S. Sharma,  D. W. Small,  T. Stauch,  T. Stein,  
 Yu-Chuan Su,  A. J. W. Thom,  A. Tkatchenko,  T. Tsuchimochi,  N. M. Tubman,  
 L. Vogt,  M. L. Vidal,  O. Vydrov,  M. A. Watson,  J. Wenzel,  
 M. de Wergifosse,  T. A. Wesolowski,  A. White,  J. Witte,  A. Yamada,  
 Jun Yang,  K. Yao,  S. Yeganeh,  S. R. Yost,  Zhi-Qiang You,  A. Zech,  
 Igor Ying Zhang,  Xing Zhang,  Yan Zhao,  Ying Zhu,  B. R. Brooks,  
 G. K. L. Chan,  C. J. Cramer,  M. S. Gordon,  W. J. Hehre,  A. Klamt,  
 M. W. Schmidt,  C. D. Sherrill,  D. G. Truhlar,  A. Aspuru-Guzik,  R. Baer,  
 A. T. Bell,  N. A. Besley,  Jeng-Da Chai,  A. E. DePrince, III,  
 R. A. DiStasio Jr.,  A. Dreuw,  B. D. Dunietz,  T. R. Furlani,  
 Chao-Ping Hsu,  Yousung Jung,  Jing Kong,  D. S. Lambrecht,  WanZhen Liang,  
 C. Ochsenfeld,  V. A. Rassolov,  L. V. Slipchenko,  J. E. Subotnik,  
 T. Van Voorhis,  J. M. Herbert,  A. I. Krylov,  P. M. W. Gill,  M. Head-Gordon

 Contributors to earlier versions of Q-Chem not listed above: 
 R. D. Adamson,  B. Austin,  J. Baker,  G. J. O. Beran,  K. Brandhorst,  
 S. T. Brown,  E. F. C. Byrd,  A. K. Chakraborty,  C.-L. Cheng,  
 Siu Hung Chien,  D. M. Chipman,  D. L. Crittenden,  H. Dachsel,  
 R. J. Doerksen,  A. D. Dutoi,  L. Fusti-Molnar,  W. A. Goddard III,  
 A. Golubeva-Zadorozhnaya,  S. R. Gwaltney,  G. Hawkins,  A. Heyden,  
 S. Hirata,  G. Kedziora,  F. J. Keil,  C. Kelley,  Jihan Kim,  R. A. King,  
 R. Z. Khaliullin,  P. P. Korambath,  W. Kurlancheek,  A. M. Lee,  M. S. Lee,  
 S. V. Levchenko,  Ching Yeh Lin,  D. Liotard,  R. C. Lochan,  I. Lotan,  
 P. E. Maslen,  N. Nair,  D. P. O'Neill,  D. Neuhauser,  E. Neuscamman,  
 C. M. Oana,  R. Olson,  B. Peters,  R. Peverati,  P. A. Pieniazek,  
 Y. M. Rhee,  J. Ritchie,  M. A. Rohrdanz,  E. Rosta,  N. J. Russ,  
 H. F. Schaefer III,  N. E. Schultz,  N. Shenvi,  A. C. Simmonett,  A. Sodt,  
 D. Stuck,  K. S. Thanthiriwatte,  V. Vanovschi,  Tao Wang,  A. Warshel,  
 C. F. Williams,  Q. Wu,  X. Xu,  W. Zhang

 Please cite Q-Chem as follows:
 Y. Shao et al., Mol. Phys. 113, 184-215 (2015)
 DOI: 10.1080/00268976.2014.952696

 Q-Chem 5.1.1 for Intel X86 EM64T Linux

 Parts of Q-Chem use Armadillo 8.300.2 (Tropical Shenanigans).
 http://arma.sourceforge.net/

 Q-Chem begins on Mon Mar 11 19:08:18 2019  

Host: 
0

     Scratch files written to /staging/scratch/2858534/qchem12399//
 Aug318 |scratch|qcdevops|jenkins|workspace|build_RNUM 6013   
Processing $rem in /usr/usc/qchem/5.1.1/config/preferences.
 MEM_TOTAL  2000 
Input Ideriv = 2
Curr. Ideriv = -1
Max.  Ideriv = 2

Checking the input file for inconsistencies... 	...done.

--------------------------------------------------------------
User input:
--------------------------------------------------------------

$comment
potential surface scanner
$end

$rem
JOBTYPE  PES_SCAN
UNRESTRICTED TRUE
SYM_IGNORE  TRUE
GEOM_OPT_MAX_CYCLES 400
SCF_MAX_CYCLES 400
METHOD   B3LYP
BASIS   6-31G**
PDB_PRINT 2
SCF_CONVERGENCE 6
THRESH 14
SCF_PRINT 1
$end
$molecule
0 1
Cl 2.124328 -1.111409 -0.309823
C -0.869119 0.627877 -0.304818
C 0.388728 0.980376 0.362582
C -1.522144 -0.673199 0.166761
H -0.738392 0.655227 -1.391235
H -1.533714 1.488853 -0.071056
H 0.538595 0.748810 1.412105
H 1.068555 1.700362 -0.078884
H -1.679995 -0.668997 1.249972
H -2.491466 -0.812809 -0.318528
H -0.869770 -1.513490 -0.082373
$end
$scan
stre 1 3 2.900000 2.901000 0.100000
$end
--------------------------------------------------------------
 ----------------------------------------------------------------
             Standard Nuclear Orientation (Angstroms)
    I     Atom           X                Y                Z
 ----------------------------------------------------------------
    1      Cl      2.1243280000    -1.1114090000    -0.3098230000
    2      C      -0.8691190000     0.6278770000    -0.3048180000
    3      C       0.3887280000     0.9803760000     0.3625820000
    4      C      -1.5221440000    -0.6731990000     0.1667610000
    5      H      -0.7383920000     0.6552270000    -1.3912350000
    6      H      -1.5337140000     1.4888530000    -0.0710560000
    7      H       0.5385950000     0.7488100000     1.4121050000
    8      H       1.0685550000     1.7003620000    -0.0788840000
    9      H      -1.6799950000    -0.6689970000     1.2499720000
   10      H      -2.4914660000    -0.8128090000    -0.3185280000
   11      H      -0.8697700000    -1.5134900000    -0.0823730000
 ----------------------------------------------------------------
 Nuclear Repulsion Energy =   143.1461715986 hartrees
 There are       21 alpha and       21 beta electrons
 Requested basis set is 6-31G(d,p)
 There are 38 shells and 99 basis functions

 Total QAlloc Memory Limit   2000 MB
 Mega-Array Size       188 MB
 MEM_STATIC part       192 MB
A total of 1 constraints
  
            1
    1   1.0100000
    2   1.0100000
    3   3.0100000
    4   2.9000000
    5   2.9010000
    6   0.1000000
    7   0.0000000
    8   0.0000000
    9   0.0000000
   10   0.0000000

                       Distance Matrix (Angstroms)
             Cl(  1)   C (  2)   C (  3)   C (  4)   H (  5)   H (  6)
   C (  2)  3.462061
   C (  3)  2.800000  1.466921
   C (  4)  3.703501  1.530238  2.534578
   H (  5)  3.533500  1.094596  2.109975  2.192335
   H (  6)  4.494401  1.112480  2.035282  2.175123  1.752239
   H (  7)  2.989983  2.223535  1.085164  2.796361  3.081910  2.653657
   H (  8)  3.012316  2.226174  1.084176  3.522195  2.465691  2.610862
   H (  9)  4.135404  2.181003  2.790611  1.094660  3.100993  2.534330
   H ( 10)  4.625450  2.169741  3.460483  1.092969  2.525688  2.505230
   H ( 11)  3.029526  2.152890  2.828634  1.092588  2.536477  3.074901
             H (  7)   H (  8)   H (  9)   H ( 10)
   H (  8)  1.846444
   H (  9)  2.637917  3.864485
   H ( 10)  3.822959  4.364311  1.771824
   H ( 11)  3.055316  3.753127  1.773352  1.782308
 
 A cutoff of  1.0D-14 yielded    714 shell pairs
 There are      4953 function pairs
 
 -------------------------------------------------------
 OpenMP Integral Computing Module                       
 Release: version 1.0, May 2013, Q-Chem Inc. Pittsburgh 
 -------------------------------------------------------
 Integral Job Info:
 Integral job number is                      11
 Integral operator is                         1
 short-range coefficients                     0
 long-range coefficients              100000000
 Omega coefficients                           0
 if combine SR and LR in K                    0
 Integral screening is                        0
 Integral computing path is                   2
 max size of driver memory is            800000
 size of driver memory is                593474
 size of scratch memory is             15267112
 max col of scratch BK array               1296
 max len of scratch array in speh3          155
 max len of scratch index in speh4           18
 max int batch size is                      520
 min int batch size is                       52
 fixed nKL is                                52
 max L of basis functions is                  2
 order of int derivative is                   0
 number of shells is                         38
 number of basis is                          99
 number of cartesian basis is                99
 number of contracted shell pairs           714
 number of primitive shell pairs           2624
 maxK2 (contraction) of shell pair           36
 max number of K2 of shell pair               1
 max number of CS2 of shell pair             57
 max number of PS2 of shell pair            228
 mem total for path MDJ                  513890
 -------------------------------------------------------
 Smallest overlap matrix eigenvalue = 5.91E-03

 Scale SEOQF with 1.000000e-01/1.000000e-01/1.000000e+00

 Standard Electronic Orientation quadrupole field applied
 Nucleus-field energy     =    -0.0000000025 hartrees
 Guess from superposition of atomic densities
 Warning:  Energy on first SCF cycle will be non-variational
 SAD guess density has 42.000000 electrons

 -----------------------------------------------------------------------
  General SCF calculation program by
  Eric Jon Sundstrom, Paul Horn, Yuezhi Mao, Dmitri Zuev, Alec White,
  David Stuck, Shaama M.S., Shane Yost, Joonho Lee, David Small,
  Daniel Levine, Susi Lehtola, Hugh Burton, Evgeny Epifanovsky
 -----------------------------------------------------------------------
 Exchange:     0.2000 Hartree-Fock + 0.0800 Slater + 0.7200 B88
 Correlation:  0.1900 VWN1RPA + 0.8100 LYP
 Using SG-1 standard quadrature grid
 using 12 threads for integral computing
 -------------------------------------------------------
 OpenMP Integral computing Module                
 Release: version 1.0, May 2013, Q-Chem Inc. Pittsburgh 
 -------------------------------------------------------
 -------------------------------------------------------
 OpenMP BLAS3 based DFT computing Module                
 Release: version 1.0, May 2013, Q-Chem Inc. Pittsburgh 
 -------------------------------------------------------
 A unrestricted SCF calculation will be
 performed using DIIS
 SCF converges when DIIS error is below 1.0e-06
 Alpha HF Exchange    Energy =  -4.54572872851888
 Beta HF Exchange     Energy =  -4.54572872851888
 DFT Correlation      Energy =  -1.89038046144345
 DFT Exchange         Energy = -35.70715979466971
 One-Electron (alpha) Energy = -537.03056242372338
 One-Electron (beta)  Energy = -537.03056242372338
 Total Coulomb        Energy = 398.72914987593470
 ---------------------------------------
  Cycle       Energy         DIIS error
 ---------------------------------------
    1    -578.8748010886      2.87e-02  
 Alpha HF Exchange    Energy =  -4.57928313065703
 Beta HF Exchange     Energy =  -4.57928313065703
 DFT Correlation      Energy =  -1.91748338088297
 DFT Exchange         Energy = -36.32054367532270
 One-Electron (alpha) Energy = -541.17291147847391
 One-Electron (beta)  Energy = -541.17291147847402
 Total Coulomb        Energy = 408.03024191989817
    2    -578.5660027585      3.99e-03  
 Alpha HF Exchange    Energy =  -4.51217447653253
 Beta HF Exchange     Energy =  -4.51217447653254
 DFT Correlation      Energy =  -1.89556263522533
 DFT Exchange         Energy = -35.79432758443619
 One-Electron (alpha) Energy = -535.52928499711300
 One-Electron (beta)  Energy = -535.52928499711322
 Total Coulomb        Energy = 396.60275579199322
    3    -578.0238817789      9.09e-03  
 Alpha HF Exchange    Energy =  -4.53626305854852
 Beta HF Exchange     Energy =  -4.53626305854853
 DFT Correlation      Energy =  -1.89975410454016
 DFT Exchange         Energy = -35.97097598686422
 One-Electron (alpha) Energy = -538.51882737894152
 One-Electron (beta)  Energy = -538.51882737894186
 Total Coulomb        Energy = 402.20781964892439
    4    -578.6269197214      2.72e-03  
 Alpha HF Exchange    Energy =  -4.53938501296449
 Beta HF Exchange     Energy =  -4.53938501296450
 DFT Correlation      Energy =  -1.90546764880315
 DFT Exchange         Energy = -36.02932131857530
 One-Electron (alpha) Energy = -538.83362887023725
 One-Electron (beta)  Energy = -538.83362887023770
 Total Coulomb        Energy = 402.85832125963145
    5    -578.6763238781      4.85e-04  
 Alpha HF Exchange    Energy =  -4.54141684872564
 Beta HF Exchange     Energy =  -4.54141684872564
 DFT Correlation      Energy =  -1.90563186937161
 DFT Exchange         Energy = -36.04300646907631
 One-Electron (alpha) Energy = -538.94837174598274
 One-Electron (beta)  Energy = -538.94837174598274
 Total Coulomb        Energy = 403.10435701631013
    6    -578.6776869155      1.74e-04  
 Alpha HF Exchange    Energy =  -4.54075549906023
 Beta HF Exchange     Energy =  -4.54075549906023
 DFT Correlation      Energy =  -1.90543705494639
 DFT Exchange         Energy = -36.03747603650901
 One-Electron (alpha) Energy = -538.90253108325089
 One-Electron (beta)  Energy = -538.90253108325078
 Total Coulomb        Energy = 403.00552865564379
    7    -578.6777860044      8.75e-05  
 Alpha HF Exchange    Energy =  -4.54098673140552
 Beta HF Exchange     Energy =  -4.54098673140552
 DFT Correlation      Energy =  -1.90546048937851
 DFT Exchange         Energy = -36.03875444049343
 One-Electron (alpha) Energy = -538.92095669173614
 One-Electron (beta)  Energy = -538.92095669173671
 Total Coulomb        Energy = 403.04409011176983
    8    -578.6778400683      3.15e-05  
 Alpha HF Exchange    Energy =  -4.54110387099374
 Beta HF Exchange     Energy =  -4.54110387099374
 DFT Correlation      Energy =  -1.90546430853813
 DFT Exchange         Energy = -36.03935071395465
 One-Electron (alpha) Energy = -538.92781551594578
 One-Electron (beta)  Energy = -538.92781551594555
 Total Coulomb        Energy = 403.05863468383001
    9    -578.6778475165      2.82e-06  
 Alpha HF Exchange    Energy =  -4.54110233087903
 Beta HF Exchange     Energy =  -4.54110233087903
 DFT Correlation      Energy =  -1.90546298904359
 DFT Exchange         Energy = -36.03933381886917
 One-Electron (alpha) Energy = -538.92762354627166
 One-Electron (beta)  Energy = -538.92762354627155
 Total Coulomb        Energy = 403.05822941410003
   10    -578.6778475520      9.48e-07  Convergence criterion met
 ---------------------------------------
 SCF time:   CPU 24.39s  wall 2.00s 
<S^2> =         -0.000000000
 Alpha HF Exchange    Energy =  -4.54110233087903
 Beta HF Exchange     Energy =  -4.54110233087903
 DFT Correlation      Energy =  -1.90546298904359
 DFT Exchange         Energy = -36.03933381886917
 One-Electron (alpha) Energy = -538.92762354627166
 One-Electron (beta)  Energy = -538.92762354627155
 Total Coulomb        Energy = 403.05822941410003
 Nuclear repulsion Energy = 143.14617159606942
 SCF   energy in the final basis set =     -578.6778475520
 Total energy in the final basis set =     -578.6778475520
 
 --------------------------------------------------------------
 
                    Orbital Energies (a.u.)
 --------------------------------------------------------------
 
 Alpha MOs
 -- Occupied --
******* -10.303 -10.239 -10.201  -9.390  -7.153  -7.145  -7.145
 -0.839  -0.723  -0.711  -0.627  -0.512  -0.483  -0.460  -0.399
 -0.388  -0.382  -0.272  -0.249  -0.248
 -- Virtual --
 -0.136   0.070   0.103   0.107   0.127   0.146   0.157   0.176
  0.203   0.243   0.411   0.442   0.460   0.484   0.499   0.509
  0.546   0.575   0.578   0.628   0.674   0.712   0.763   0.795
  0.810   0.846   0.868   0.877   0.885   0.901   0.925   0.948
  0.950   0.964   0.983   1.048   1.228   1.259   1.358   1.420
  1.495   1.627   1.687   1.781   1.827   1.874   1.939   1.980
  2.028   2.041   2.072   2.082   2.196   2.227   2.254   2.314
  2.374   2.415   2.474   2.555   2.630   2.672   2.718   2.779
  2.817   2.856   2.888   3.169   3.214   3.245   3.384   3.404
  3.458   3.506   4.201   4.300   4.387   4.583
 
 Beta MOs
 -- Occupied --
******* -10.303 -10.239 -10.201  -9.390  -7.153  -7.145  -7.145
 -0.839  -0.723  -0.711  -0.627  -0.512  -0.483  -0.460  -0.399
 -0.388  -0.382  -0.272  -0.249  -0.248
 -- Virtual --
 -0.136   0.070   0.103   0.107   0.127   0.146   0.157   0.176
  0.203   0.243   0.411   0.442   0.460   0.484   0.499   0.509
  0.546   0.575   0.578   0.628   0.674   0.712   0.763   0.795
  0.810   0.846   0.868   0.877   0.885   0.901   0.925   0.948
  0.950   0.964   0.983   1.048   1.228   1.259   1.358   1.420
  1.495   1.627   1.687   1.781   1.827   1.874   1.939   1.980
  2.028   2.041   2.072   2.082   2.196   2.227   2.254   2.314
  2.374   2.415   2.474   2.555   2.630   2.672   2.718   2.779
  2.817   2.856   2.888   3.169   3.214   3.245   3.384   3.404
  3.458   3.506   4.201   4.300   4.387   4.583
 --------------------------------------------------------------
 
          Ground-State Mulliken Net Atomic Charges

     Atom                 Charge (a.u.)    Spin (a.u.)
  --------------------------------------------------------
      1 Cl                   -0.461609      -0.000000
      2 C                    -0.219357      -0.000000
      3 C                    -0.079768      -0.000000
      4 C                    -0.324549      -0.000000
      5 H                     0.163372       0.000000
      6 H                     0.147743       0.000000
      7 H                     0.185571       0.000000
      8 H                     0.185432       0.000000
      9 H                     0.113256      -0.000000
     10 H                     0.116885       0.000000
     11 H                     0.173024       0.000000
  --------------------------------------------------------
  Sum of atomic charges =    -0.000000
  Sum of spin   charges =    -0.000000

 -----------------------------------------------------------------
                    Cartesian Multipole Moments
 -----------------------------------------------------------------
    Charge (ESU x 10^10)
                -0.0000
    Dipole Moment (Debye)
         X      -4.6457      Y       4.1383      Z       1.0567
       Tot       6.3107
    Quadrupole Moments (Debye-Ang)
        XX     -40.9776     XY       5.1947     YY     -32.5885
        XZ       1.7638     YZ      -0.1275     ZZ     -32.2807
    Octopole Moments (Debye-Ang^2)
       XXX     -64.4521    XXY      18.7929    XYY     -16.9332
       YYY      33.9732    XXZ       3.9956    XYZ      -0.4004
       YYZ       2.5636    XZZ     -15.5984    YZZ      11.0869
       ZZZ       9.4553
    Hexadecapole Moments (Debye-Ang^3)
      XXXX    -595.8980   XXXY      87.7907   XXYY    -131.9926
      XYYY      77.2688   YYYY    -223.2433   XXXZ      28.2125
      XXYZ      -4.4303   XYYZ       7.0675   YYYZ     -12.5887
      XXZZ    -107.6673   XYZZ      26.0749   YYZZ     -51.1960
      XZZZ      25.2021   YZZZ     -13.3350   ZZZZ     -68.7884
 -----------------------------------------------------------------
 Calculating analytic gradient of the SCF energy
 Gradient of SCF Energy
            1           2           3           4           5           6
    1   0.0238365  -0.0000425  -0.0236692  -0.0000080   0.0000180   0.0000333
    2  -0.0288532   0.0000032   0.0289977   0.0000334  -0.0000056   0.0000215
    3  -0.0093407   0.0000170   0.0094701   0.0000015   0.0000177  -0.0000031
            7           8           9          10          11
    1   0.0000450  -0.0001196  -0.0000066  -0.0000371  -0.0000500
    2  -0.0000794  -0.0002086   0.0000119   0.0000628   0.0000164
    3  -0.0002530   0.0000887   0.0000088   0.0000203  -0.0000274
 Max gradient component =       2.900E-02
 RMS gradient           =       9.501E-03
 Gradient time:  CPU 7.98 s  wall 0.88 s
 Geometry Optimization Parameters
   NAtoms,    NIC,     NZ,  NCons,   NDum,   NFix, NCnnct, MaxDiis
       11     101       0       1       0       0       0       0


** CONSTRAINED OPTIMIZATION IN DELOCALIZED INTERNAL COORDINATES **
   Searching for a Minimum

   Optimization Cycle:   1

                       Coordinates (Angstroms)
     ATOM                X               Y               Z
      1  Cl        2.1243280000   -1.1114090000   -0.3098230000
      2  C        -0.8691190000    0.6278770000   -0.3048180000
      3  C         0.3887280000    0.9803760000    0.3625820000
      4  C        -1.5221440000   -0.6731990000    0.1667610000
      5  H        -0.7383920000    0.6552270000   -1.3912350000
      6  H        -1.5337140000    1.4888530000   -0.0710560000
      7  H         0.5385950000    0.7488100000    1.4121050000
      8  H         1.0685550000    1.7003620000   -0.0788840000
      9  H        -1.6799950000   -0.6689970000    1.2499720000
     10  H        -2.4914660000   -0.8128090000   -0.3185280000
     11  H        -0.8697700000   -1.5134900000   -0.0823730000
   Point Group: c1    Number of degrees of freedom:    27


   Energy is   -578.677847552

              Constraints and their Current Values
                                        Value     Constraint
   Distance(Angs):        1   3             2.800000     2.900000

 Attempting to Generate Delocalized Internal Coordinates

   Using Lagrange Multiplier Algorithm


 28 Hessian modes will be used to form the next step
  Hessian Eigenvalues:
    -0.983941    0.025317    0.045845    0.047936    0.052781    0.055577
     0.066190    0.074038    0.075323    0.078190    0.080498    0.085272
     0.102636    0.108548    0.123825    0.130514    0.138071    0.153877
     0.274347    0.303519    0.310168    0.323251    0.323389    0.342045
     0.342796    0.342869    0.344718    1.016322

 Minimum Search - Taking P-RFO Step
 Searching for Lamda that Maximizes Along the Constraint modes Only
 Value Taken    Lamda =   0.02591820


 ********************************************
 ** ERROR IN DETERMINING Lamda IN CONFormD **
 ********************************************


 ** Scaling Hessian by  2.047475 **


 28 Hessian modes will be used to form the next step
  Hessian Eigenvalues:
    -0.967400    0.051836    0.093865    0.098148    0.108068    0.113792
     0.135523    0.151591    0.154222    0.160093    0.164817    0.174592
     0.210144    0.222249    0.253529    0.267225    0.282696    0.315058
     0.561718    0.621448    0.635061    0.661849    0.662131    0.700330
     0.701866    0.702016    0.705801    1.033699

 Minimum Search - Taking P-RFO Step
 Searching for Lamda that Maximizes Along the Constraint modes Only
 Value Taken    Lamda =   0.02661976
 Searching for Lamda that Minimizes Along All other modes
 Value Taken    Lamda =  -0.01028870
 Step Taken.  Stepsize is  0.185134

                             Maximum     Tolerance    Cnvgd?
         Gradient            0.188973       0.000300      NO
         Displacement        0.185131       0.001200      NO
         Energy change     *********       0.000001      NO


 New Cartesian Coordinates Obtained by Inverse Iteration

 Displacement from previous Coordinates is:  0.188749
 ----------------------------------------------------------------
             Standard Nuclear Orientation (Angstroms)
    I     Atom           X                Y                Z
 ----------------------------------------------------------------
    1      Cl      2.1676348359    -1.1718607713    -0.3113440983
    2      C      -0.8836636887     0.6470125198    -0.3048796520
    3      C       0.3654316096     0.9939585182     0.3665241195
    4      C      -1.5131776615    -0.6652590775     0.1682583646
    5      H      -0.7526504596     0.6747471907    -1.3912533805
    6      H      -1.5543876304     1.5042557478    -0.0748754794
    7      H       0.5267768092     0.7460186030     1.3974568782
    8      H       1.0558817886     1.6849162614    -0.0699522647
    9      H      -1.6705531779    -0.6633466890     1.2515417439
   10      H      -2.4804308731    -0.8165907308    -0.3176397832
   11      H      -0.8452555522    -1.5122505722    -0.0791334480
 ----------------------------------------------------------------
 Nuclear Repulsion Energy =   141.8665135618 hartrees
 There are       21 alpha and       21 beta electrons

                       Distance Matrix (Angstroms)
             Cl(  1)   C (  2)   C (  3)   C (  4)   H (  5)   H (  6)
   C (  2)  3.552290
   C (  3)  2.897967  1.459929
   C (  4)  3.746337  1.530426  2.514256
   H (  5)  3.619977  1.094597  2.107554  2.192281
   H (  6)  4.590312  1.112492  2.034931  2.183485  1.750348
   H (  7)  3.048061  2.212938  1.072534  2.768402  3.069026  2.659686
   H (  8)  3.074970  2.212300  1.069886  3.490005  2.457044  2.616518
   H (  9)  4.175271  2.181441  2.770406  1.094657  3.101194  2.543890
   H ( 10)  4.661628  2.166094  3.441671  1.092967  2.522293  2.510542
   H ( 11)  3.040937  2.171371  2.818769  1.106669  2.552096  3.098741
             H (  7)   H (  8)   H (  9)   H ( 10)
   H (  8)  1.820651
   H (  9)  2.614548  3.833293
   H ( 10)  3.798237  4.338709  1.772489
   H ( 11)  3.026974  3.719715  1.781137  1.792938
 
 Applying Cartesian multipole field
    Component          Value
    ---------          -----
     (2,0,0)        1.00000E-11
     (0,2,0)        2.00000E-11
     (0,0,2)       -3.00000E-10
 Nucleus-field energy     =    -0.0000000022 hartrees
 Requested basis set is 6-31G(d,p)
 There are 38 shells and 99 basis functions
 A cutoff of  1.0D-14 yielded    711 shell pairs
 There are      4926 function pairs
 Smallest overlap matrix eigenvalue = 5.87E-03
 Guess from superposition of atomic densities
 Warning:  Energy on first SCF cycle will be non-variational
 SAD guess density has 42.000000 electrons

 -----------------------------------------------------------------------
  General SCF calculation program by
  Eric Jon Sundstrom, Paul Horn, Yuezhi Mao, Dmitri Zuev, Alec White,
  David Stuck, Shaama M.S., Shane Yost, Joonho Lee, David Small,
  Daniel Levine, Susi Lehtola, Hugh Burton, Evgeny Epifanovsky
 -----------------------------------------------------------------------
 Exchange:     0.2000 Hartree-Fock + 0.0800 Slater + 0.7200 B88
 Correlation:  0.1900 VWN1RPA + 0.8100 LYP
 Using SG-1 standard quadrature grid
 using 12 threads for integral computing
 -------------------------------------------------------
 OpenMP Integral computing Module                
 Release: version 1.0, May 2013, Q-Chem Inc. Pittsburgh 
 -------------------------------------------------------
 -------------------------------------------------------
 OpenMP BLAS3 based DFT computing Module                
 Release: version 1.0, May 2013, Q-Chem Inc. Pittsburgh 
 -------------------------------------------------------
 A unrestricted SCF calculation will be
 performed using DIIS
 SCF converges when DIIS error is below 1.0e-06
 Alpha HF Exchange    Energy =  -4.54651258984749
 Beta HF Exchange     Energy =  -4.54651258984749
 DFT Correlation      Energy =  -1.88996275362400
 DFT Exchange         Energy = -35.70911727484364
 One-Electron (alpha) Energy = -535.73989253957222
 One-Electron (beta)  Energy = -535.73989253957222
 Total Coulomb        Energy = 397.42419741158153
 ---------------------------------------
  Cycle       Energy         DIIS error
 ---------------------------------------
    1    -578.8811793161      2.89e-02  
 Alpha HF Exchange    Energy =  -4.58089087075584
 Beta HF Exchange     Energy =  -4.58089087075584
 DFT Correlation      Energy =  -1.91728601070092
 DFT Exchange         Energy = -36.33038243266523
 One-Electron (alpha) Energy = -539.93742770517656
 One-Electron (beta)  Energy = -539.93742770517622
 Total Coulomb        Energy = 406.86507234078971
    2    -578.5527196948      4.02e-03  
 Alpha HF Exchange    Energy =  -4.51461688147814
 Beta HF Exchange     Energy =  -4.51461688147814
 DFT Correlation      Energy =  -1.89548769455830
 DFT Exchange         Energy = -35.80405535571960
 One-Electron (alpha) Energy = -534.07370930937077
 One-Electron (beta)  Energy = -534.07370930937054
 Total Coulomb        Energy = 395.11326333707922
    3    -577.8964185353      9.52e-03  
 Alpha HF Exchange    Energy =  -4.53645063585650
 Beta HF Exchange     Energy =  -4.53645063585650
 DFT Correlation      Energy =  -1.89909632123278
 DFT Exchange         Energy = -35.97031483427688
 One-Electron (alpha) Energy = -537.20553897342472
 One-Electron (beta)  Energy = -537.20553897342461
 Total Coulomb        Energy = 400.87361312439270
    4    -578.6132636901      2.84e-03  
 Alpha HF Exchange    Energy =  -4.53933105952609
 Beta HF Exchange     Energy =  -4.53933105952609
 DFT Correlation      Energy =  -1.90512929931181
 DFT Exchange         Energy = -36.03168396341108
 One-Electron (alpha) Energy = -537.52907364905502
 One-Electron (beta)  Energy = -537.52907364905536
 Total Coulomb        Energy = 401.53859524681297
    5    -578.6685138735      5.36e-04  
 Alpha HF Exchange    Energy =  -4.54157894655151
 Beta HF Exchange     Energy =  -4.54157894655151
 DFT Correlation      Energy =  -1.90533311198485
 DFT Exchange         Energy = -36.04684861958543
 One-Electron (alpha) Energy = -537.65804237122711
 One-Electron (beta)  Energy = -537.65804237122700
 Total Coulomb        Energy = 401.81473253291830
    6    -578.6701782746      2.05e-04  
 Alpha HF Exchange    Energy =  -4.54080835475874
 Beta HF Exchange     Energy =  -4.54080835475874
 DFT Correlation      Energy =  -1.90511818377607
 DFT Exchange         Energy = -36.04054847701165
 One-Electron (alpha) Energy = -537.60459844814795
 One-Electron (beta)  Energy = -537.60459844814818
 Total Coulomb        Energy = 401.69968487069480
    7    -578.6702818363      1.24e-04  
 Alpha HF Exchange    Energy =  -4.54112483966542
 Beta HF Exchange     Energy =  -4.54112483966543
 DFT Correlation      Energy =  -1.90514456214443
 DFT Exchange         Energy = -36.04220904921073
 One-Electron (alpha) Energy = -537.62872240080526
 One-Electron (beta)  Energy = -537.62872240080571
 Total Coulomb        Energy = 401.75014496622219
    8    -578.6703895665      4.69e-05  
 Alpha HF Exchange    Energy =  -4.54131281465146
 Beta HF Exchange     Energy =  -4.54131281465146
 DFT Correlation      Energy =  -1.90514941782752
 DFT Exchange         Energy = -36.04313685844498
 One-Electron (alpha) Energy = -537.63944536650865
 One-Electron (beta)  Energy = -537.63944536650888
 Total Coulomb        Energy = 401.77288283916670
    9    -578.6704062398      4.30e-06  
 Alpha HF Exchange    Energy =  -4.54130272229578
 Beta HF Exchange     Energy =  -4.54130272229579
 DFT Correlation      Energy =  -1.90514785922743
 DFT Exchange         Energy = -36.04308067007646
 One-Electron (alpha) Energy = -537.63877263448137
 One-Electron (beta)  Energy = -537.63877263448137
 Total Coulomb        Energy = 401.77145934314041
   10    -578.6704063401      1.40e-06  
 Alpha HF Exchange    Energy =  -4.54130414929357
 Beta HF Exchange     Energy =  -4.54130414929358
 DFT Correlation      Energy =  -1.90514872834678
 DFT Exchange         Energy = -36.04309574681975
 One-Electron (alpha) Energy = -537.63894569573949
 One-Electron (beta)  Energy = -537.63894569573995
 Total Coulomb        Energy = 401.77182425624915
   11    -578.6704063494      2.44e-07  Convergence criterion met
 ---------------------------------------
 SCF time:   CPU 25.92s  wall 2.00s 
<S^2> =         -0.000000000
 Alpha HF Exchange    Energy =  -4.54130414929357
 Beta HF Exchange     Energy =  -4.54130414929358
 DFT Correlation      Energy =  -1.90514872834678
 DFT Exchange         Energy = -36.04309574681975
 One-Electron (alpha) Energy = -537.63894569573949
 One-Electron (beta)  Energy = -537.63894569573995
 Total Coulomb        Energy = 401.77182425624915
 Nuclear repulsion Energy = 141.86651355961854
 SCF   energy in the final basis set =     -578.6704063494
 Total energy in the final basis set =     -578.6704063494
 
 --------------------------------------------------------------
 
                    Orbital Energies (a.u.)
 --------------------------------------------------------------
 
 Alpha MOs
 -- Occupied --
******* -10.304 -10.242 -10.204  -9.386  -7.149  -7.141  -7.141
 -0.844  -0.723  -0.709  -0.632  -0.517  -0.485  -0.465  -0.401
 -0.392  -0.382  -0.267  -0.245  -0.245
 -- Virtual --
 -0.143   0.069   0.104   0.106   0.124   0.146   0.156   0.174
  0.204   0.241   0.408   0.442   0.461   0.483   0.497   0.508
  0.540   0.571   0.576   0.625   0.677   0.708   0.765   0.798
  0.808   0.847   0.869   0.880   0.884   0.901   0.926   0.950
  0.953   0.959   0.982   1.034   1.209   1.254   1.361   1.411
  1.493   1.623   1.686   1.781   1.827   1.875   1.943   1.985
  2.021   2.035   2.067   2.081   2.195   2.222   2.257   2.315
  2.377   2.421   2.479   2.552   2.630   2.673   2.718   2.776
  2.833   2.846   2.891   3.160   3.221   3.251   3.384   3.411
  3.468   3.505   4.195   4.299   4.383   4.581
 
 Beta MOs
 -- Occupied --
******* -10.304 -10.242 -10.204  -9.386  -7.149  -7.141  -7.141
 -0.844  -0.723  -0.709  -0.632  -0.517  -0.485  -0.465  -0.401
 -0.392  -0.382  -0.267  -0.245  -0.245
 -- Virtual --
 -0.143   0.069   0.104   0.106   0.124   0.146   0.156   0.174
  0.204   0.241   0.408   0.442   0.461   0.483   0.497   0.508
  0.540   0.571   0.576   0.625   0.677   0.708   0.765   0.798
  0.808   0.847   0.869   0.880   0.884   0.901   0.926   0.950
  0.953   0.959   0.982   1.034   1.209   1.254   1.361   1.411
  1.493   1.623   1.686   1.781   1.827   1.875   1.943   1.985
  2.021   2.035   2.067   2.081   2.195   2.222   2.257   2.315
  2.377   2.421   2.479   2.552   2.630   2.673   2.718   2.776
  2.833   2.846   2.891   3.160   3.221   3.251   3.384   3.411
  3.468   3.505   4.195   4.299   4.383   4.581
 --------------------------------------------------------------
 
          Ground-State Mulliken Net Atomic Charges

     Atom                 Charge (a.u.)    Spin (a.u.)
  --------------------------------------------------------
      1 Cl                   -0.476119      -0.000000
      2 C                    -0.225180      -0.000000
      3 C                    -0.071426       0.000000
      4 C                    -0.326167      -0.000000
      5 H                     0.166135       0.000000
      6 H                     0.152162      -0.000000
      7 H                     0.187585       0.000000
      8 H                     0.186518      -0.000000
      9 H                     0.114573       0.000000
     10 H                     0.117472      -0.000000
     11 H                     0.174447       0.000000
  --------------------------------------------------------
  Sum of atomic charges =    -0.000000
  Sum of spin   charges =    -0.000000

 -----------------------------------------------------------------
                    Cartesian Multipole Moments
 -----------------------------------------------------------------
    Charge (ESU x 10^10)
                -0.0000
    Dipole Moment (Debye)
         X      -4.9057      Y       4.3865      Z       1.0820
       Tot       6.6692
    Quadrupole Moments (Debye-Ang)
        XX     -41.5298     XY       5.5867     YY     -32.8156
        XZ       1.8610     YZ      -0.1983     ZZ     -32.2723
    Octopole Moments (Debye-Ang^2)
       XXX     -67.7214    XXY      20.8134    XYY     -18.4465
       YYY      36.6890    XXZ       4.2018    XYZ      -0.4992
       YYZ       2.7492    XZZ     -16.2043    YZZ      11.8750
       ZZZ       9.4542
    Hexadecapole Moments (Debye-Ang^3)
      XXXX    -615.1463   XXXY      99.1685   XXYY    -138.0826
      XYYY      86.8620   YYYY    -236.2579   XXXZ      29.6087
      XXYZ      -5.0899   XYYZ       7.6311   YYYZ     -13.4790
      XXZZ    -110.2829   XYZZ      29.1481   YYZZ     -53.3139
      XZZZ      26.0405   YZZZ     -14.2935   ZZZZ     -68.7344
 -----------------------------------------------------------------
 Calculating analytic gradient of the SCF energy
 Gradient of SCF Energy
            1           2           3           4           5           6
    1   0.0227224  -0.0002602  -0.0186574  -0.0018326  -0.0002405   0.0005519
    2  -0.0271168   0.0034783   0.0291912   0.0064901  -0.0003637   0.0005075
    3  -0.0084681   0.0004498   0.0125970   0.0019492   0.0001586  -0.0006181
            7           8           9          10          11
    1  -0.0004070  -0.0067225   0.0001537   0.0001283   0.0045637
    2   0.0023657  -0.0073618  -0.0001524   0.0006607  -0.0076987
    3  -0.0091869   0.0046790   0.0000490  -0.0002949  -0.0013145
 Max gradient component =       2.919E-02
 RMS gradient           =       9.596E-03
 Gradient time:  CPU 7.93 s  wall 0.85 s
 Geometry Optimization Parameters
   NAtoms,    NIC,     NZ,  NCons,   NDum,   NFix, NCnnct, MaxDiis
       11     101       0       1       0       0       0       0

 Cartesian Hessian Update
 Hessian Updated using BFGS Update


** CONSTRAINED OPTIMIZATION IN DELOCALIZED INTERNAL COORDINATES **
   Searching for a Minimum

   Optimization Cycle:   2

                       Coordinates (Angstroms)
     ATOM                X               Y               Z
      1  Cl        2.1676348359   -1.1718607713   -0.3113440983
      2  C        -0.8836636887    0.6470125198   -0.3048796520
      3  C         0.3654316096    0.9939585182    0.3665241195
      4  C        -1.5131776615   -0.6652590775    0.1682583646
      5  H        -0.7526504596    0.6747471907   -1.3912533805
      6  H        -1.5543876304    1.5042557478   -0.0748754794
      7  H         0.5267768092    0.7460186030    1.3974568782
      8  H         1.0558817886    1.6849162614   -0.0699522647
      9  H        -1.6705531779   -0.6633466890    1.2515417439
     10  H        -2.4804308731   -0.8165907308   -0.3176397832
     11  H        -0.8452555522   -1.5122505722   -0.0791334480
   Point Group: c1    Number of degrees of freedom:    27


   Energy is   -578.670406349

              Constraints and their Current Values
                                        Value     Constraint
   Distance(Angs):        1   3             2.897967     2.900000
 Hessian Updated using BFGS Update

   Using Lagrange Multiplier Algorithm


 28 Hessian modes will be used to form the next step
  Hessian Eigenvalues:
    -0.993061    0.052348    0.093871    0.098245    0.108134    0.113845
     0.135786    0.151760    0.154808    0.160115    0.164817    0.174652
     0.210808    0.222250    0.253538    0.267241    0.284336    0.331037
     0.561753    0.622606    0.660851    0.662131    0.698501    0.701866
     0.702010    0.705799    0.961849    1.090185

 Minimum Search - Taking P-RFO Step
 Searching for Lamda that Maximizes Along the Constraint modes Only
 Value Taken    Lamda =   0.00000633
 Searching for Lamda that Minimizes Along All other modes
 Value Taken    Lamda =  -0.00033544
 Step Taken.  Stepsize is  0.019871

                             Maximum     Tolerance    Cnvgd?
         Gradient            0.012171       0.000300      NO
         Displacement        0.011771       0.001200      NO
         Energy change      0.007441       0.000001      NO


 New Cartesian Coordinates Obtained by Inverse Iteration

 Displacement from previous Coordinates is:  0.019494
 ----------------------------------------------------------------
             Standard Nuclear Orientation (Angstroms)
    I     Atom           X                Y                Z
 ----------------------------------------------------------------
    1      Cl      2.1700717655    -1.1720539424    -0.3119786006
    2      C      -0.8833190498     0.6455955712    -0.3044755775
    3      C       0.3666339796     0.9953315380     0.3662881891
    4      C      -1.5152526250    -0.6661058380     0.1679045948
    5      H      -0.7519004435     0.6738577994    -1.3908684835
    6      H      -1.5551011468     1.5019203177    -0.0739429115
    7      H       0.5287009797     0.7464122519     1.4006192189
    8      H       1.0595684823     1.6888060776    -0.0725241297
    9      H      -1.6732653851    -0.6643766224     1.2510849241
   10      H      -2.4823186405    -0.8182877496    -0.3181802620
   11      H      -0.8482119165    -1.5094984033    -0.0792239622
 ----------------------------------------------------------------
 Nuclear Repulsion Energy =   141.7657240565 hartrees
 There are       21 alpha and       21 beta electrons

                       Distance Matrix (Angstroms)
             Cl(  1)   C (  2)   C (  3)   C (  4)   H (  5)   H (  6)
   C (  2)  3.553463
   C (  3)  2.899999  1.461035
   C (  4)  3.750718  1.530700  2.518179
   H (  5)  3.620679  1.094678  2.107621  2.192711
   H (  6)  4.591700  1.112533  2.035559  2.181838  1.750746
   H (  7)  3.050836  2.216148  1.076135  2.773543  3.072069  2.662209
   H (  8)  3.078161  2.217409  1.074068  3.497588  2.459588  2.621340
   H (  9)  4.179969  2.181699  2.774651  1.094646  3.101565  2.542146
   H ( 10)  4.665825  2.167935  3.445902  1.093003  2.524184  2.510528
   H ( 11)  3.045994  2.167118  2.819309  1.103325  2.548869  3.093277
             H (  7)   H (  8)   H (  9)   H ( 10)
   H (  8)  1.827588
   H (  9)  2.619416  3.841587
   H ( 10)  3.803787  4.346358  1.772244
   H ( 11)  3.029019  3.724087  1.778951  1.790301
 
 Applying Cartesian multipole field
    Component          Value
    ---------          -----
     (2,0,0)        1.00000E-11
     (0,2,0)        2.00000E-11
     (0,0,2)       -3.00000E-10
 Nucleus-field energy     =    -0.0000000022 hartrees
 Requested basis set is 6-31G(d,p)
 There are 38 shells and 99 basis functions
 A cutoff of  1.0D-14 yielded    711 shell pairs
 There are      4926 function pairs
 Smallest overlap matrix eigenvalue = 5.88E-03
 Guess from superposition of atomic densities
 Warning:  Energy on first SCF cycle will be non-variational
 SAD guess density has 42.000000 electrons

 -----------------------------------------------------------------------
  General SCF calculation program by
  Eric Jon Sundstrom, Paul Horn, Yuezhi Mao, Dmitri Zuev, Alec White,
  David Stuck, Shaama M.S., Shane Yost, Joonho Lee, David Small,
  Daniel Levine, Susi Lehtola, Hugh Burton, Evgeny Epifanovsky
 -----------------------------------------------------------------------
 Exchange:     0.2000 Hartree-Fock + 0.0800 Slater + 0.7200 B88
 Correlation:  0.1900 VWN1RPA + 0.8100 LYP
 Using SG-1 standard quadrature grid
 using 12 threads for integral computing
 -------------------------------------------------------
 OpenMP Integral computing Module                
 Release: version 1.0, May 2013, Q-Chem Inc. Pittsburgh 
 -------------------------------------------------------
 -------------------------------------------------------
 OpenMP BLAS3 based DFT computing Module                
 Release: version 1.0, May 2013, Q-Chem Inc. Pittsburgh 
 -------------------------------------------------------
 A unrestricted SCF calculation will be
 performed using DIIS
 SCF converges when DIIS error is below 1.0e-06
 Alpha HF Exchange    Energy =  -4.54604448873942
 Beta HF Exchange     Energy =  -4.54604448873942
 DFT Correlation      Energy =  -1.88983389996783
 DFT Exchange         Energy = -35.70812832488078
 One-Electron (alpha) Energy = -535.64256815135730
 One-Electron (beta)  Energy = -535.64256815135730
 Total Coulomb        Energy = 397.33172145103248
 ---------------------------------------
  Cycle       Energy         DIIS error
 ---------------------------------------
    1    -578.8777419998      2.88e-02  
 Alpha HF Exchange    Energy =  -4.58066606286091
 Beta HF Exchange     Energy =  -4.58066606286092
 DFT Correlation      Energy =  -1.91713829629241
 DFT Exchange         Energy = -36.32852402497642
 One-Electron (alpha) Energy = -539.84025010617836
 One-Electron (beta)  Energy = -539.84025010617847
 Total Coulomb        Energy = 406.76975166415895
    2    -578.5520189409      4.03e-03  
 Alpha HF Exchange    Energy =  -4.51450980449671
 Beta HF Exchange     Energy =  -4.51450980449671
 DFT Correlation      Energy =  -1.89538176073293
 DFT Exchange         Energy = -35.80301336912675
 One-Electron (alpha) Energy = -533.97010542118289
 One-Electron (beta)  Energy = -533.97010542118232
 Total Coulomb        Energy = 395.01296048668650
    3    -577.8889410403      9.56e-03  
 Alpha HF Exchange    Energy =  -4.53615684661797
 Beta HF Exchange     Energy =  -4.53615684661797
 DFT Correlation      Energy =  -1.89893972941663
 DFT Exchange         Energy = -35.96816379305404
 One-Electron (alpha) Energy = -537.10599349327174
 One-Electron (beta)  Energy = -537.10599349327163
 Total Coulomb        Energy = 400.77245165872830
    4    -578.6132284893      2.84e-03  
 Alpha HF Exchange    Energy =  -4.53904949284961
 Beta HF Exchange     Energy =  -4.53904949284961
 DFT Correlation      Energy =  -1.90498906097736
 DFT Exchange         Energy = -36.02975278084442
 One-Electron (alpha) Energy = -537.43012016987086
 One-Electron (beta)  Energy = -537.43012016987075
 Total Coulomb        Energy = 401.43879291171970
    5    -578.6685642013      5.40e-04  
 Alpha HF Exchange    Energy =  -4.54130898543840
 Beta HF Exchange     Energy =  -4.54130898543839
 DFT Correlation      Energy =  -1.90519407596005
 DFT Exchange         Energy = -36.04498002012210
 One-Electron (alpha) Energy = -537.55998335444383
 One-Electron (beta)  Energy = -537.55998335444372
 Total Coulomb        Energy = 401.71678120300800
    6    -578.6702535186      2.06e-04  
 Alpha HF Exchange    Energy =  -4.54052858128329
 Beta HF Exchange     Energy =  -4.54052858128329
 DFT Correlation      Energy =  -1.90497572320715
 DFT Exchange         Energy = -36.03860534104080
 One-Electron (alpha) Energy = -537.50587452612365
 One-Electron (beta)  Energy = -537.50587452612376
 Total Coulomb        Energy = 401.60030625551144
    7    -578.6703569693      1.25e-04  
 Alpha HF Exchange    Energy =  -4.54084936546446
 Beta HF Exchange     Energy =  -4.54084936546446
 DFT Correlation      Energy =  -1.90500236662665
 DFT Exchange         Energy = -36.04028628265954
 One-Electron (alpha) Energy = -537.53029099400555
 One-Electron (beta)  Energy = -537.53029099400544
 Total Coulomb        Energy = 401.65137807739217
    8    -578.6704672366      4.72e-05  
 Alpha HF Exchange    Energy =  -4.54103915312017
 Beta HF Exchange     Energy =  -4.54103915312018
 DFT Correlation      Energy =  -1.90500723831769
 DFT Exchange         Energy = -36.04122297348037
 One-Electron (alpha) Energy = -537.54110741296631
 One-Electron (beta)  Energy = -537.54110741296688
 Total Coulomb        Energy = 401.67431522763525
    9    -578.6704840621      4.43e-06  
 Alpha HF Exchange    Energy =  -4.54102809419722
 Beta HF Exchange     Energy =  -4.54102809419721
 DFT Correlation      Energy =  -1.90500557243551
 DFT Exchange         Energy = -36.04116143484556
 One-Electron (alpha) Energy = -537.54036793187822
 One-Electron (beta)  Energy = -537.54036793187811
 Total Coulomb        Energy = 401.67275083405031
   10    -578.6704841711      1.41e-06  
 Alpha HF Exchange    Energy =  -4.54102959085339
 Beta HF Exchange     Energy =  -4.54102959085340
 DFT Correlation      Energy =  -1.90500646705201
 DFT Exchange         Energy = -36.04117706457635
 One-Electron (alpha) Energy = -537.54054803797408
 One-Electron (beta)  Energy = -537.54054803797430
 Total Coulomb        Energy = 401.67313055449694
   11    -578.6704841805      2.45e-07  Convergence criterion met
 ---------------------------------------
 SCF time:   CPU 25.47s  wall 2.00s 
<S^2> =         -0.000000000
 Alpha HF Exchange    Energy =  -4.54102959085339
 Beta HF Exchange     Energy =  -4.54102959085340
 DFT Correlation      Energy =  -1.90500646705201
 DFT Exchange         Energy = -36.04117706457635
 One-Electron (alpha) Energy = -537.54054803797408
 One-Electron (beta)  Energy = -537.54054803797430
 Total Coulomb        Energy = 401.67313055449694
 Nuclear repulsion Energy = 141.76572405424969
 SCF   energy in the final basis set =     -578.6704841805
 Total energy in the final basis set =     -578.6704841805
 
 --------------------------------------------------------------
 
                    Orbital Energies (a.u.)
 --------------------------------------------------------------
 
 Alpha MOs
 -- Occupied --
******* -10.304 -10.242 -10.204  -9.386  -7.149  -7.141  -7.141
 -0.843  -0.723  -0.709  -0.632  -0.517  -0.485  -0.464  -0.401
 -0.391  -0.382  -0.266  -0.245  -0.245
 -- Virtual --
 -0.144   0.069   0.103   0.105   0.125   0.145   0.156   0.174
  0.204   0.241   0.408   0.441   0.461   0.483   0.497   0.508
  0.540   0.571   0.576   0.625   0.676   0.707   0.765   0.798
  0.808   0.846   0.869   0.879   0.884   0.901   0.927   0.950
  0.953   0.959   0.982   1.033   1.209   1.254   1.361   1.410
  1.493   1.623   1.685   1.780   1.826   1.874   1.940   1.982
  2.023   2.036   2.068   2.080   2.194   2.223   2.255   2.312
  2.376   2.419   2.476   2.551   2.629   2.672   2.717   2.776
  2.828   2.848   2.889   3.162   3.218   3.247   3.383   3.409
  3.465   3.504   4.194   4.299   4.383   4.581
 
 Beta MOs
 -- Occupied --
******* -10.304 -10.242 -10.204  -9.386  -7.149  -7.141  -7.141
 -0.843  -0.723  -0.709  -0.632  -0.517  -0.485  -0.464  -0.401
 -0.391  -0.382  -0.266  -0.245  -0.245
 -- Virtual --
 -0.144   0.069   0.103   0.105   0.125   0.145   0.156   0.174
  0.204   0.241   0.408   0.441   0.461   0.483   0.497   0.508
  0.540   0.571   0.576   0.625   0.676   0.707   0.765   0.798
  0.808   0.846   0.869   0.879   0.884   0.901   0.927   0.950
  0.953   0.959   0.982   1.033   1.209   1.254   1.361   1.410
  1.493   1.623   1.685   1.780   1.826   1.874   1.940   1.982
  2.023   2.036   2.068   2.080   2.194   2.223   2.255   2.312
  2.376   2.419   2.476   2.551   2.629   2.672   2.717   2.776
  2.828   2.848   2.889   3.162   3.218   3.247   3.383   3.409
  3.465   3.504   4.194   4.299   4.383   4.581
 --------------------------------------------------------------
 
          Ground-State Mulliken Net Atomic Charges

     Atom                 Charge (a.u.)    Spin (a.u.)
  --------------------------------------------------------
      1 Cl                   -0.476478      -0.000000
      2 C                    -0.224928      -0.000000
      3 C                    -0.072096       0.000000
      4 C                    -0.326222      -0.000000
      5 H                     0.166099       0.000000
      6 H                     0.152113       0.000000
      7 H                     0.187661      -0.000000
      8 H                     0.186844      -0.000000
      9 H                     0.114580       0.000000
     10 H                     0.117662       0.000000
     11 H                     0.174765       0.000000
  --------------------------------------------------------
  Sum of atomic charges =    -0.000000
  Sum of spin   charges =    -0.000000

 -----------------------------------------------------------------
                    Cartesian Multipole Moments
 -----------------------------------------------------------------
    Charge (ESU x 10^10)
                -0.0000
    Dipole Moment (Debye)
         X      -4.9132      Y       4.3887      Z       1.0841
       Tot       6.6765
    Quadrupole Moments (Debye-Ang)
        XX     -41.5448     XY       5.6196     YY     -32.8239
        XZ       1.8636     YZ      -0.2019     ZZ     -32.2736
    Octopole Moments (Debye-Ang^2)
       XXX     -67.9482    XXY      20.8360    XYY     -18.4701
       YYY      36.7013    XXZ       4.2248    XYZ      -0.5158
       YYZ       2.7484    XZZ     -16.2377    YZZ      11.8707
       ZZZ       9.4912
    Hexadecapole Moments (Debye-Ang^3)
      XXXX    -616.5227   XXXY      99.3344   XXYY    -138.2990
      XYYY      86.9501   YYYY    -236.4315   XXXZ      29.7162
      XXYZ      -5.1231   XYYZ       7.6500   YYYZ     -13.5629
      XXZZ    -110.5069   XYZZ      29.1574   YYZZ     -53.3553
      XZZZ      26.1387   YZZZ     -14.3460   ZZZZ     -68.7819
 -----------------------------------------------------------------
 Calculating analytic gradient of the SCF energy
 Gradient of SCF Energy
            1           2           3           4           5           6
    1   0.0226995  -0.0003045  -0.0201231  -0.0014205  -0.0001439   0.0004129
    2  -0.0270810   0.0028564   0.0284949   0.0050778  -0.0003262   0.0003587
    3  -0.0084546   0.0004200   0.0113815   0.0014399   0.0001127  -0.0005089
            7           8           9          10          11
    1  -0.0001421  -0.0046143   0.0001197   0.0000459   0.0034704
    2   0.0016293  -0.0053316  -0.0001578   0.0004105  -0.0059308
    3  -0.0066372   0.0033966   0.0000349  -0.0001929  -0.0009920
 Max gradient component =       2.849E-02
 RMS gradient           =       9.313E-03
 Gradient time:  CPU 7.94 s  wall 0.86 s
 Geometry Optimization Parameters
   NAtoms,    NIC,     NZ,  NCons,   NDum,   NFix, NCnnct, MaxDiis
       11     101       0       1       0       0       0       0

 Cartesian Hessian Update
 Hessian Updated using BFGS Update


** CONSTRAINED OPTIMIZATION IN DELOCALIZED INTERNAL COORDINATES **
   Searching for a Minimum

   Optimization Cycle:   3

                       Coordinates (Angstroms)
     ATOM                X               Y               Z
      1  Cl        2.1700717655   -1.1720539424   -0.3119786006
      2  C        -0.8833190498    0.6455955712   -0.3044755775
      3  C         0.3666339796    0.9953315380    0.3662881891
      4  C        -1.5152526250   -0.6661058380    0.1679045948
      5  H        -0.7519004435    0.6738577994   -1.3908684835
      6  H        -1.5551011468    1.5019203177   -0.0739429115
      7  H         0.5287009797    0.7464122519    1.4006192189
      8  H         1.0595684823    1.6888060776   -0.0725241297
      9  H        -1.6732653851   -0.6643766224    1.2510849241
     10  H        -2.4823186405   -0.8182877496   -0.3181802620
     11  H        -0.8482119165   -1.5094984033   -0.0792239622
   Point Group: c1    Number of degrees of freedom:    27


   Energy is   -578.670484181

              Constraints and their Current Values
                                        Value     Constraint
   Distance(Angs):        1   3             2.899999     2.900000
 Hessian Updated using BFGS Update

   Using Lagrange Multiplier Algorithm


 28 Hessian modes will be used to form the next step
  Hessian Eigenvalues:
    -0.983400    0.050342    0.093828    0.096834    0.107116    0.113627
     0.133099    0.148086    0.152763    0.159992    0.164822    0.174617
     0.205916    0.222092    0.244802    0.255688    0.267892    0.289172
     0.441073    0.561984    0.622816    0.662125    0.663888    0.698952
     0.701867    0.702017    0.705850    1.027602

 Minimum Search - Taking P-RFO Step
 Searching for Lamda that Maximizes Along the Constraint modes Only
 Value Taken    Lamda =   0.00000037
 Searching for Lamda that Minimizes Along All other modes
 Value Taken    Lamda =  -0.00051805
 Step Taken.  Stepsize is  0.052208

                             Maximum     Tolerance    Cnvgd?
         Gradient            0.008709       0.000300      NO
         Displacement        0.029386       0.001200      NO
         Energy change     -0.000078       0.000001      NO


 New Cartesian Coordinates Obtained by Inverse Iteration

 Displacement from previous Coordinates is:  0.055378
 ----------------------------------------------------------------
             Standard Nuclear Orientation (Angstroms)
    I     Atom           X                Y                Z
 ----------------------------------------------------------------
    1      Cl      2.1739774639    -1.1694190449    -0.3137923243
    2      C      -0.8810152678     0.6399241645    -0.3032554397
    3      C       0.3712759482     0.9982421518     0.3655503679
    4      C      -1.5210578681    -0.6691409032     0.1669460843
    5      H      -0.7488672314     0.6701425678    -1.3896955949
    6      H      -1.5550971087     1.4941046048    -0.0705627138
    7      H       0.5341336363     0.7484465484     1.4094751667
    8      H       1.0684703171     1.6999869288    -0.0799139764
    9      H      -1.6809845949    -0.6672486479     1.2498279822
   10      H      -2.4876015244    -0.8212365799    -0.3201615424
   11      H      -0.8576277703    -1.5022007903    -0.0797150096
 ----------------------------------------------------------------
 Nuclear Repulsion Energy =   141.5888381420 hartrees
 There are       21 alpha and       21 beta electrons

                       Distance Matrix (Angstroms)
             Cl(  1)   C (  2)   C (  3)   C (  4)   H (  5)   H (  6)
   C (  2)  3.550608
   C (  3)  2.899999  1.464215
   C (  4)  3.759611  1.531142  2.529928
   H (  5)  3.617261  1.094865  2.107904  2.193876
   H (  6)  4.589065  1.112725  2.036415  2.176511  1.751865
   H (  7)  3.055642  2.224381  1.085679  2.788771  3.080192  2.666721
   H (  8)  3.083883  2.230271  1.084880  3.518432  2.465527  2.631650
   H (  9)  4.190205  2.181907  2.787038  1.094629  3.102345  2.535888
   H ( 10)  4.674568  2.171726  3.457439  1.092984  2.528104  2.508519
   H ( 11)  3.058785  2.153884  2.821468  1.093147  2.539085  3.076425
             H (  7)   H (  8)   H (  9)   H ( 10)
   H (  8)  1.846409
   H (  9)  2.633710  3.864133
   H ( 10)  3.819219  4.365768  1.771782
   H ( 11)  3.036462  3.736825  1.772779  1.782790
 
 Applying Cartesian multipole field
    Component          Value
    ---------          -----
     (2,0,0)        1.00000E-11
     (0,2,0)        2.00000E-11
     (0,0,2)       -3.00000E-10
 Nucleus-field energy     =    -0.0000000022 hartrees
 Requested basis set is 6-31G(d,p)
 There are 38 shells and 99 basis functions
 A cutoff of  1.0D-14 yielded    711 shell pairs
 There are      4926 function pairs
 Smallest overlap matrix eigenvalue = 5.91E-03
 Guess from superposition of atomic densities
 Warning:  Energy on first SCF cycle will be non-variational
 SAD guess density has 42.000000 electrons

 -----------------------------------------------------------------------
  General SCF calculation program by
  Eric Jon Sundstrom, Paul Horn, Yuezhi Mao, Dmitri Zuev, Alec White,
  David Stuck, Shaama M.S., Shane Yost, Joonho Lee, David Small,
  Daniel Levine, Susi Lehtola, Hugh Burton, Evgeny Epifanovsky
 -----------------------------------------------------------------------
 Exchange:     0.2000 Hartree-Fock + 0.0800 Slater + 0.7200 B88
 Correlation:  0.1900 VWN1RPA + 0.8100 LYP
 Using SG-1 standard quadrature grid
 using 12 threads for integral computing
 -------------------------------------------------------
 OpenMP Integral computing Module                
 Release: version 1.0, May 2013, Q-Chem Inc. Pittsburgh 
 -------------------------------------------------------
 -------------------------------------------------------
 OpenMP BLAS3 based DFT computing Module                
 Release: version 1.0, May 2013, Q-Chem Inc. Pittsburgh 
 -------------------------------------------------------
 A unrestricted SCF calculation will be
 performed using DIIS
 SCF converges when DIIS error is below 1.0e-06
 Alpha HF Exchange    Energy =  -4.54497373071989
 Beta HF Exchange     Energy =  -4.54497373071989
 DFT Correlation      Energy =  -1.88955681844793
 DFT Exchange         Energy = -35.70584673694965
 One-Electron (alpha) Energy = -535.47353929171277
 One-Electron (beta)  Energy = -535.47353929171277
 Total Coulomb        Energy = 397.17394348136781
 ---------------------------------------
  Cycle       Energy         DIIS error
 ---------------------------------------
    1    -578.8696479791      2.87e-02  
 Alpha HF Exchange    Energy =  -4.58011300465945
 Beta HF Exchange     Energy =  -4.58011300465944
 DFT Correlation      Energy =  -1.91681734703056
 DFT Exchange         Energy = -36.32408901946095
 One-Electron (alpha) Energy = -539.67063734687054
 One-Electron (beta)  Energy = -539.67063734687019
 Total Coulomb        Energy = 406.60301956572863
    2    -578.5505493641      4.06e-03  
 Alpha HF Exchange    Energy =  -4.51417291237249
 Beta HF Exchange     Energy =  -4.51417291237248
 DFT Correlation      Energy =  -1.89514349438273
 DFT Exchange         Energy = -35.80032685917625
 One-Electron (alpha) Energy = -533.79245259157312
 One-Electron (beta)  Energy = -533.79245259157267
 Total Coulomb        Energy = 394.84365144649354
    3    -577.8762317752      9.64e-03  
 Alpha HF Exchange    Energy =  -4.53549390611483
 Beta HF Exchange     Energy =  -4.53549390611482
 DFT Correlation      Energy =  -1.89861063982764
 DFT Exchange         Energy = -35.96340213636427
 One-Electron (alpha) Energy = -536.93376974805676
 One-Electron (beta)  Energy = -536.93376974805642
 Total Coulomb        Energy = 400.59827814787013
    4    -578.6134237969      2.84e-03  
 Alpha HF Exchange    Energy =  -4.53842675426669
 Beta HF Exchange     Energy =  -4.53842675426669
 DFT Correlation      Energy =  -1.90468414659081
 DFT Exchange         Energy = -36.02536394032295
 One-Electron (alpha) Energy = -537.25862060130555
 One-Electron (beta)  Energy = -537.25862060130567
 Total Coulomb        Energy = 401.26651033477441
    5    -578.6687943235      5.45e-04  
 Alpha HF Exchange    Energy =  -4.54070188824512
 Beta HF Exchange     Energy =  -4.54070188824512
 DFT Correlation      Energy =  -1.90489118161523
 DFT Exchange         Energy = -36.04067323527915
 One-Electron (alpha) Energy = -537.38980445358050
 One-Electron (beta)  Energy = -537.38980445358027
 Total Coulomb        Energy = 401.54722142153059
    6    -578.6705175392      2.07e-04  
 Alpha HF Exchange    Energy =  -4.53990303189801
 Beta HF Exchange     Energy =  -4.53990303189801
 DFT Correlation      Energy =  -1.90466547003197
 DFT Exchange         Energy = -36.03415458879321
 One-Electron (alpha) Energy = -537.33446975020206
 One-Electron (beta)  Energy = -537.33446975020217
 Total Coulomb        Energy = 401.42810632303735
    7    -578.6706211602      1.26e-04  
 Alpha HF Exchange    Energy =  -4.54022834101665
 Beta HF Exchange     Energy =  -4.54022834101665
 DFT Correlation      Energy =  -1.90469247053156
 DFT Exchange         Energy = -36.03585722050019
 One-Electron (alpha) Energy = -537.35920817388046
 One-Electron (beta)  Energy = -537.35920817388069
 Total Coulomb        Energy = 401.47985068895025
    8    -578.6707338921      4.70e-05  
 Alpha HF Exchange    Energy =  -4.54041907796150
 Beta HF Exchange     Energy =  -4.54041907796150
 DFT Correlation      Energy =  -1.90469743462837
 DFT Exchange         Energy = -36.03680024764068
 One-Electron (alpha) Energy = -537.37008593195196
 One-Electron (beta)  Energy = -537.37008593195173
 Total Coulomb        Energy = 401.50291899533443
    9    -578.6707505670      4.65e-06  
 Alpha HF Exchange    Energy =  -4.54040613994189
 Beta HF Exchange     Energy =  -4.54040613994188
 DFT Correlation      Energy =  -1.90469548314528
 DFT Exchange         Energy = -36.03672746240706
 One-Electron (alpha) Energy = -537.36920622474406
 One-Electron (beta)  Energy = -537.36920622474349
 Total Coulomb        Energy = 401.50105884413682
   10    -578.6707506910      1.41e-06  
 Alpha HF Exchange    Energy =  -4.54040790969827
 Beta HF Exchange     Energy =  -4.54040790969828
 DFT Correlation      Energy =  -1.90469644840739
 DFT Exchange         Energy = -36.03674499123214
 One-Electron (alpha) Energy = -537.36941023929444
 One-Electron (beta)  Energy = -537.36941023929467
 Total Coulomb        Energy = 401.50148889743360
   11    -578.6707507004      2.46e-07  Convergence criterion met
 ---------------------------------------
 SCF time:   CPU 25.89s  wall 3.00s 
<S^2> =          0.000000000
 Alpha HF Exchange    Energy =  -4.54040790969827
 Beta HF Exchange     Energy =  -4.54040790969828
 DFT Correlation      Energy =  -1.90469644840739
 DFT Exchange         Energy = -36.03674499123214
 One-Electron (alpha) Energy = -537.36941023929444
 One-Electron (beta)  Energy = -537.36941023929467
 Total Coulomb        Energy = 401.50148889743360
 Nuclear repulsion Energy = 141.58883813977073
 SCF   energy in the final basis set =     -578.6707507004
 Total energy in the final basis set =     -578.6707507004
 
 --------------------------------------------------------------
 
                    Orbital Energies (a.u.)
 --------------------------------------------------------------
 
 Alpha MOs
 -- Occupied --
******* -10.306 -10.242 -10.203  -9.386  -7.149  -7.141  -7.141
 -0.842  -0.723  -0.709  -0.630  -0.515  -0.485  -0.463  -0.402
 -0.391  -0.383  -0.266  -0.245  -0.245
 -- Virtual --
 -0.143   0.068   0.100   0.105   0.126   0.144   0.156   0.175
  0.203   0.241   0.408   0.441   0.460   0.483   0.496   0.508
  0.540   0.572   0.575   0.625   0.676   0.706   0.763   0.799
  0.806   0.845   0.869   0.875   0.884   0.901   0.928   0.950
  0.953   0.960   0.983   1.033   1.209   1.254   1.360   1.409
  1.493   1.624   1.682   1.779   1.824   1.872   1.932   1.975
  2.026   2.038   2.070   2.080   2.194   2.226   2.251   2.307
  2.374   2.416   2.468   2.548   2.628   2.670   2.714   2.777
  2.815   2.854   2.887   3.166   3.209   3.240   3.382   3.402
  3.456   3.505   4.193   4.299   4.385   4.580
 
 Beta MOs
 -- Occupied --
******* -10.306 -10.242 -10.203  -9.386  -7.149  -7.141  -7.141
 -0.842  -0.723  -0.709  -0.630  -0.515  -0.485  -0.463  -0.402
 -0.391  -0.383  -0.266  -0.245  -0.245
 -- Virtual --
 -0.143   0.068   0.100   0.105   0.126   0.144   0.156   0.175
  0.203   0.241   0.408   0.441   0.460   0.483   0.496   0.508
  0.540   0.572   0.575   0.625   0.676   0.706   0.763   0.799
  0.806   0.845   0.869   0.875   0.884   0.901   0.928   0.950
  0.953   0.960   0.983   1.033   1.209   1.254   1.360   1.409
  1.493   1.624   1.682   1.779   1.824   1.872   1.932   1.975
  2.026   2.038   2.070   2.080   2.194   2.226   2.251   2.307
  2.374   2.416   2.468   2.548   2.628   2.670   2.714   2.777
  2.815   2.854   2.887   3.166   3.209   3.240   3.382   3.402
  3.456   3.505   4.193   4.299   4.385   4.580
 --------------------------------------------------------------
 
          Ground-State Mulliken Net Atomic Charges

     Atom                 Charge (a.u.)    Spin (a.u.)
  --------------------------------------------------------
      1 Cl                   -0.476786       0.000000
      2 C                    -0.224040       0.000000
      3 C                    -0.073905       0.000000
      4 C                    -0.326091      -0.000000
      5 H                     0.165809      -0.000000
      6 H                     0.151674      -0.000000
      7 H                     0.187622       0.000000
      8 H                     0.187511       0.000000
      9 H                     0.114494      -0.000000
     10 H                     0.118119      -0.000000
     11 H                     0.175593       0.000000
  --------------------------------------------------------
  Sum of atomic charges =    -0.000000
  Sum of spin   charges =     0.000000

 -----------------------------------------------------------------
                    Cartesian Multipole Moments
 -----------------------------------------------------------------
    Charge (ESU x 10^10)
                 0.0000
    Dipole Moment (Debye)
         X      -4.9208      Y       4.3822      Z       1.0887
       Tot       6.6786
    Quadrupole Moments (Debye-Ang)
        XX     -41.5570     XY       5.6835     YY     -32.8324
        XZ       1.8649     YZ      -0.2065     ZZ     -32.2748
    Octopole Moments (Debye-Ang^2)
       XXX     -68.3806    XXY      20.7935    XYY     -18.4449
       YYY      36.6136    XXZ       4.2778    XYZ      -0.5568
       YYZ       2.7385    XZZ     -16.2987    YZZ      11.8264
       ZZZ       9.5959
    Hexadecapole Moments (Debye-Ang^3)
      XXXX    -618.9828   XXXY      99.1185   XXYY    -138.5358
      XYYY      86.6391   YYYY    -236.1333   XXXZ      29.9537
      XXYZ      -5.1796   XYYZ       7.6744   YYYZ     -13.7554
      XXZZ    -110.9283   XYZZ      29.0095   YYZZ     -53.3387
      XZZZ      26.3743   YZZZ     -14.4508   ZZZZ     -68.9133
 -----------------------------------------------------------------
 Calculating analytic gradient of the SCF energy
 Gradient of SCF Energy
            1           2           3           4           5           6
    1   0.0226892  -0.0003815  -0.0234769   0.0000719   0.0001215   0.0000312
    2  -0.0270937   0.0007744   0.0271764   0.0005101  -0.0001795  -0.0000719
    3  -0.0084786   0.0003141   0.0082994  -0.0001241  -0.0000054  -0.0001532
            7           8           9          10          11
    1   0.0004388   0.0005551   0.0000291  -0.0001086   0.0000301
    2  -0.0002806  -0.0002479  -0.0001005  -0.0001366  -0.0003500
    3  -0.0001094   0.0001376   0.0000172   0.0000697   0.0000326
 Max gradient component =       2.718E-02
 RMS gradient           =       9.014E-03
 Gradient time:  CPU 7.89 s  wall 0.86 s
 Geometry Optimization Parameters
   NAtoms,    NIC,     NZ,  NCons,   NDum,   NFix, NCnnct, MaxDiis
       11     101       0       1       0       0       0       0

 Cartesian Hessian Update
 Hessian Updated using BFGS Update


** CONSTRAINED OPTIMIZATION IN DELOCALIZED INTERNAL COORDINATES **
   Searching for a Minimum

   Optimization Cycle:   4

                       Coordinates (Angstroms)
     ATOM                X               Y               Z
      1  Cl        2.1739774639   -1.1694190449   -0.3137923243
      2  C        -0.8810152678    0.6399241645   -0.3032554397
      3  C         0.3712759482    0.9982421518    0.3655503679
      4  C        -1.5210578681   -0.6691409032    0.1669460843
      5  H        -0.7488672314    0.6701425678   -1.3896955949
      6  H        -1.5550971087    1.4941046048   -0.0705627138
      7  H         0.5341336363    0.7484465484    1.4094751667
      8  H         1.0684703171    1.6999869288   -0.0799139764
      9  H        -1.6809845949   -0.6672486479    1.2498279822
     10  H        -2.4876015244   -0.8212365799   -0.3201615424
     11  H        -0.8576277703   -1.5022007903   -0.0797150096
   Point Group: c1    Number of degrees of freedom:    27


   Energy is   -578.670750700

              Constraints and their Current Values
                                        Value     Constraint
   Distance(Angs):        1   3             2.899999     2.900000
 Hessian Updated using BFGS Update

   Using Lagrange Multiplier Algorithm


 28 Hessian modes will be used to form the next step
  Hessian Eigenvalues:
    -0.984497    0.050237    0.093798    0.095576    0.105893    0.113655
     0.131201    0.145301    0.152695    0.159966    0.164779    0.174742
     0.206103    0.221784    0.241658    0.258371    0.268749    0.289821
     0.452532    0.562140    0.622870    0.662144    0.664528    0.698915
     0.701867    0.702024    0.705888    1.026286

 Minimum Search - Taking P-RFO Step
 Searching for Lamda that Maximizes Along the Constraint modes Only
 Value Taken    Lamda =   0.00000003
 Searching for Lamda that Minimizes Along All other modes
 Value Taken    Lamda =  -0.00000445
 Step Taken.  Stepsize is  0.005845

                             Maximum     Tolerance    Cnvgd?
         Gradient            0.000391       0.000300      NO
         Displacement        0.003637       0.001200      NO
         Energy change     -0.000267       0.000001      NO


 New Cartesian Coordinates Obtained by Inverse Iteration

 Displacement from previous Coordinates is:  0.004745
 ----------------------------------------------------------------
             Standard Nuclear Orientation (Angstroms)
    I     Atom           X                Y                Z
 ----------------------------------------------------------------
    1      Cl      2.1739856877    -1.1695235702    -0.3140007015
    2      C      -0.8804784368     0.6390872747    -0.3031372972
    3      C       0.3716549676     0.9983729865     0.3655789442
    4      C      -1.5212903788    -0.6695556190     0.1669478992
    5      H      -0.7486288198     0.6698715586    -1.3895848766
    6      H      -1.5544463972     1.4933327570    -0.0698834546
    7      H       0.5341403490     0.7492018977     1.4099390565
    8      H       1.0679758342     1.7008335161    -0.0805157704
    9      H      -1.6814498161    -0.6673501780     1.2497884777
   10      H      -2.4877382136    -0.8205688228    -0.3205608164
   11      H      -0.8581187762    -1.5021008004    -0.0798684611
 ----------------------------------------------------------------
 Nuclear Repulsion Energy =   141.5882814605 hartrees
 There are       21 alpha and       21 beta electrons

                       Distance Matrix (Angstroms)
             Cl(  1)   C (  2)   C (  3)   C (  4)   H (  5)   H (  6)
   C (  2)  3.549781
   C (  3)  2.900000  1.464277
   C (  4)  3.759833  1.531067  2.530747
   H (  5)  3.616895  1.094852  2.107973  2.194052
   H (  6)  4.588203  1.112823  2.035799  2.176069  1.751868
   H (  7)  3.056562  2.224388  1.085899  2.789748  3.080442  2.665671
   H (  8)  3.084919  2.230099  1.085041  3.519131  2.465075  2.630640
   H (  9)  4.190704  2.181722  2.787777  1.094623  3.102355  2.534998
   H ( 10)  4.674771  2.171217  3.457668  1.092928  2.527593  2.507591
   H ( 11)  3.059262  2.152913  2.821903  1.092633  2.538663  3.075320
             H (  7)   H (  8)   H (  9)   H ( 10)
   H (  8)  1.847170
   H (  9)  2.634598  3.864886
   H ( 10)  3.819759  4.365569  1.771884
   H ( 11)  3.037479  3.737463  1.772758  1.782717
 
 Applying Cartesian multipole field
    Component          Value
    ---------          -----
     (2,0,0)        1.00000E-11
     (0,2,0)        2.00000E-11
     (0,0,2)       -3.00000E-10
 Nucleus-field energy     =    -0.0000000022 hartrees
 Requested basis set is 6-31G(d,p)
 There are 38 shells and 99 basis functions
 A cutoff of  1.0D-14 yielded    711 shell pairs
 There are      4926 function pairs
 Smallest overlap matrix eigenvalue = 5.91E-03
 Guess from superposition of atomic densities
 Warning:  Energy on first SCF cycle will be non-variational
 SAD guess density has 42.000000 electrons

 -----------------------------------------------------------------------
  General SCF calculation program by
  Eric Jon Sundstrom, Paul Horn, Yuezhi Mao, Dmitri Zuev, Alec White,
  David Stuck, Shaama M.S., Shane Yost, Joonho Lee, David Small,
  Daniel Levine, Susi Lehtola, Hugh Burton, Evgeny Epifanovsky
 -----------------------------------------------------------------------
 Exchange:     0.2000 Hartree-Fock + 0.0800 Slater + 0.7200 B88
 Correlation:  0.1900 VWN1RPA + 0.8100 LYP
 Using SG-1 standard quadrature grid
 using 12 threads for integral computing
 -------------------------------------------------------
 OpenMP Integral computing Module                
 Release: version 1.0, May 2013, Q-Chem Inc. Pittsburgh 
 -------------------------------------------------------
 -------------------------------------------------------
 OpenMP BLAS3 based DFT computing Module                
 Release: version 1.0, May 2013, Q-Chem Inc. Pittsburgh 
 -------------------------------------------------------
 A unrestricted SCF calculation will be
 performed using DIIS
 SCF converges when DIIS error is below 1.0e-06
 Alpha HF Exchange    Energy =  -4.54498605829924
 Beta HF Exchange     Energy =  -4.54498605829924
 DFT Correlation      Energy =  -1.88955719186504
 DFT Exchange         Energy = -35.70586806668793
 One-Electron (alpha) Energy = -535.47292536239513
 One-Electron (beta)  Energy = -535.47292536239513
 Total Coulomb        Energy = 397.17323404597568
 ---------------------------------------
  Cycle       Energy         DIIS error
 ---------------------------------------
    1    -578.8697325957      2.87e-02  
 Alpha HF Exchange    Energy =  -4.58012105538496
 Beta HF Exchange     Energy =  -4.58012105538496
 DFT Correlation      Energy =  -1.91682066603043
 DFT Exchange         Energy = -36.32414881101855
 One-Electron (alpha) Energy = -539.67067723621506
 One-Electron (beta)  Energy = -539.67067723621551
 Total Coulomb        Energy = 406.60379114880902
    2    -578.5504934532      4.06e-03  
 Alpha HF Exchange    Energy =  -4.51417289232774
 Beta HF Exchange     Energy =  -4.51417289232774
 DFT Correlation      Energy =  -1.89514153347586
 DFT Exchange         Energy = -35.80032480421012
 One-Electron (alpha) Energy = -533.79127985577531
 One-Electron (beta)  Energy = -533.79127985577566
 Total Coulomb        Energy = 394.84199084894192
    3    -577.8760995267      9.65e-03  
 Alpha HF Exchange    Energy =  -4.53549869960449
 Beta HF Exchange     Energy =  -4.53549869960450
 DFT Correlation      Energy =  -1.89861144841783
 DFT Exchange         Energy = -35.96343561145631
 One-Electron (alpha) Energy = -536.93353714533828
 One-Electron (beta)  Energy = -536.93353714533851
 Total Coulomb        Energy = 400.59842050416546
    4    -578.6134167873      2.84e-03  
 Alpha HF Exchange    Energy =  -4.53843067437793
 Beta HF Exchange     Energy =  -4.53843067437794
 DFT Correlation      Energy =  -1.90468391355564
 DFT Exchange         Energy = -36.02538535588975
 One-Electron (alpha) Energy = -537.25819360882451
 One-Electron (beta)  Energy = -537.25819360882463
 Total Coulomb        Energy = 401.26623490211443
    5    -578.6688014755      5.44e-04  
 Alpha HF Exchange    Energy =  -4.54070541446662
 Beta HF Exchange     Energy =  -4.54070541446662
 DFT Correlation      Energy =  -1.90489145991661
 DFT Exchange         Energy = -36.04069672685823
 One-Electron (alpha) Energy = -537.38935617682250
 One-Electron (beta)  Energy = -537.38935617682273
 Total Coulomb        Energy = 401.54690859981883
    6    -578.6705213112      2.07e-04  
 Alpha HF Exchange    Energy =  -4.53990647714916
 Beta HF Exchange     Energy =  -4.53990647714916
 DFT Correlation      Energy =  -1.90466569313981
 DFT Exchange         Energy = -36.03417741687404
 One-Electron (alpha) Energy = -537.33402181820622
 One-Electron (beta)  Energy = -537.33402181820600
 Total Coulomb        Energy = 401.42779325587503
    7    -578.6706249866      1.26e-04  
 Alpha HF Exchange    Energy =  -4.54023136598801
 Beta HF Exchange     Energy =  -4.54023136598801
 DFT Correlation      Energy =  -1.90469265453753
 DFT Exchange         Energy = -36.03587754842935
 One-Electron (alpha) Energy = -537.35873541770002
 One-Electron (beta)  Energy = -537.35873541769990
 Total Coulomb        Energy = 401.47948470555616
    8    -578.6707376065      4.70e-05  
 Alpha HF Exchange    Energy =  -4.54042222563562
 Beta HF Exchange     Energy =  -4.54042222563562
 DFT Correlation      Energy =  -1.90469766370669
 DFT Exchange         Energy = -36.03682146001405
[...]
     0.137608    0.152723    0.159492    0.164184    0.173576    0.201584
     0.219421    0.231049    0.263691    0.271487    0.297530    0.490708
     0.566598    0.621843    0.646780    0.670968    0.693562    0.701921
     0.702544    0.705489

 Minimum Search - Taking Simple RFO Step
 Searching for Lamda that Minimizes Along All modes
 Value Taken    Lamda =  -0.00000118
 Step Taken.  Stepsize is  0.008312

                             Maximum     Tolerance    Cnvgd?
         Gradient           0.000140      0.000300     YES
         Displacement       0.005192      0.001200      NO
         Energy change     -0.000001      0.000001      NO


 New Cartesian Coordinates Obtained by Inverse Iteration

 Displacement from previous Coordinates is:  0.006815
 ----------------------------------------------------------------
             Standard Nuclear Orientation (Angstroms)
    I     Atom           X                Y                Z
 ----------------------------------------------------------------
    1      Cl      2.1660591085    -1.1767807790    -0.3146586474
    2      C      -0.8766192459     0.6362021998    -0.3027812578
    3      C       0.3741145678     0.9993694398     0.3660064601
    4      C      -1.5195791751    -0.6715164748     0.1662333130
    5      H      -0.7487529776     0.6712402633    -1.3893877670
    6      H      -1.5492929495     1.4912003552    -0.0648853716
    7      H       0.5314537993     0.7591096146     1.4128142144
    8      H       1.0627072742     1.7068657792    -0.0831057093
    9      H      -1.6808707365    -0.6693910537     1.2488018808
   10      H      -2.4857369649    -0.8193244354    -0.3227993239
   11      H      -0.8578767003    -1.5053739090    -0.0815347913
 ----------------------------------------------------------------
 Nuclear Repulsion Energy =   141.6541055507 hartrees
 There are       21 alpha and       21 beta electrons

                       Distance Matrix (Angstroms)
             Cl(  1)   C (  2)   C (  3)   C (  4)   H (  5)   H (  6)
   C (  2)  3.541884
   C (  3)  2.900000  1.464071
   C (  4)  3.751064  1.530850  2.533347
   H (  5)  3.614741  1.094665  2.109481  2.194795
   H (  6)  4.580868  1.113601  2.031517  2.175234  1.751430
   H (  7)  3.066556  2.222846  1.085489  2.794171  3.082043  2.655007
   H (  8)  3.096194  2.226110  1.084626  3.519528  2.461764  2.620952
   H (  9)  4.183386  2.181468  2.790529  1.094520  3.102609  2.532043
   H ( 10)  4.665517  2.169843  3.458446  1.092914  2.525175  2.506386
   H ( 11)  3.050657  2.153056  2.826983  1.092958  2.541660  3.075352
             H (  7)   H (  8)   H (  9)   H ( 10)
   H (  8)  1.848851
   H (  9)  2.638540  3.866238
   H ( 10)  3.821943  4.362401  1.772067
   H ( 11)  3.048148  3.742610  1.773692  1.782919
 
 Applying Cartesian multipole field
    Component          Value
    ---------          -----
     (2,0,0)        1.00000E-11
     (0,2,0)        2.00000E-11
     (0,0,2)       -3.00000E-10
 Nucleus-field energy     =    -0.0000000022 hartrees
 Requested basis set is 6-31G(d,p)
 There are 38 shells and 99 basis functions
 A cutoff of  1.0D-14 yielded    711 shell pairs
 There are      4926 function pairs
 Smallest overlap matrix eigenvalue = 5.90E-03
 Guess from superposition of atomic densities
 Warning:  Energy on first SCF cycle will be non-variational
 SAD guess density has 42.000000 electrons

 -----------------------------------------------------------------------
  General SCF calculation program by
  Eric Jon Sundstrom, Paul Horn, Yuezhi Mao, Dmitri Zuev, Alec White,
  David Stuck, Shaama M.S., Shane Yost, Joonho Lee, David Small,
  Daniel Levine, Susi Lehtola, Hugh Burton, Evgeny Epifanovsky
 -----------------------------------------------------------------------
 Exchange:     0.2000 Hartree-Fock + 0.0800 Slater + 0.7200 B88
 Correlation:  0.1900 VWN1RPA + 0.8100 LYP
 Using SG-1 standard quadrature grid
 using 12 threads for integral computing
 -------------------------------------------------------
 OpenMP Integral computing Module                
 Release: version 1.0, May 2013, Q-Chem Inc. Pittsburgh 
 -------------------------------------------------------
 -------------------------------------------------------
 OpenMP BLAS3 based DFT computing Module                
 Release: version 1.0, May 2013, Q-Chem Inc. Pittsburgh 
 -------------------------------------------------------
 A unrestricted SCF calculation will be
 performed using DIIS
 SCF converges when DIIS error is below 1.0e-06
 Alpha HF Exchange    Energy =  -4.54505380872635
 Beta HF Exchange     Energy =  -4.54505380872635
 DFT Correlation      Energy =  -1.88957384891866
 DFT Exchange         Energy = -35.70598502995448
 One-Electron (alpha) Energy = -535.53847830423172
 One-Electron (beta)  Energy = -535.53847830423172
 Total Coulomb        Energy = 397.23821127570278
 ---------------------------------------
  Cycle       Energy         DIIS error
 ---------------------------------------
    1    -578.8703062807      2.87e-02  
 Alpha HF Exchange    Energy =  -4.58011203729181
 Beta HF Exchange     Energy =  -4.58011203729182
 DFT Correlation      Energy =  -1.91684361916382
 DFT Exchange         Energy = -36.32417059451556
 One-Electron (alpha) Energy = -539.73926801461596
 One-Electron (beta)  Energy = -539.73926801461607
 Total Coulomb        Energy = 406.67508447591274
    2    -578.5505842932      4.06e-03  
 Alpha HF Exchange    Energy =  -4.51414123886697
 Beta HF Exchange     Energy =  -4.51414123886697
 DFT Correlation      Energy =  -1.89514020138367
 DFT Exchange         Energy = -35.80016272684788
 One-Electron (alpha) Energy = -533.85601774073655
 One-Electron (beta)  Energy = -533.85601774073621
 Total Coulomb        Energy = 394.90255631147772
    3    -577.8789590275      9.63e-03  
 Alpha HF Exchange    Energy =  -4.53551880755047
 Beta HF Exchange     Energy =  -4.53551880755047
 DFT Correlation      Energy =  -1.89863312896702
 DFT Exchange         Energy = -35.96362389388003
 One-Electron (alpha) Energy = -537.00106885540413
 One-Electron (beta)  Energy = -537.00106885540379
 Total Coulomb        Energy = 400.66780798006351
    4    -578.6135188203      2.84e-03  
 Alpha HF Exchange    Energy =  -4.53845159038180
 Beta HF Exchange     Energy =  -4.53845159038180
 DFT Correlation      Energy =  -1.90469545054403
 DFT Exchange         Energy = -36.02546901975377
 One-Electron (alpha) Energy = -537.32532457310072
 One-Electron (beta)  Energy = -537.32532457310083
 Total Coulomb        Energy = 401.33477066325122
    5    -578.6688405856      5.41e-04  
 Alpha HF Exchange    Energy =  -4.54071957588542
 Beta HF Exchange     Energy =  -4.54071957588542
 DFT Correlation      Energy =  -1.90490332607482
 DFT Exchange         Energy = -36.04075784811636
 One-Electron (alpha) Energy = -537.45594484465880
 One-Electron (beta)  Energy = -537.45594484465880
 Total Coulomb        Energy = 401.61434714703546
    6    -578.6705373198      2.06e-04  
 Alpha HF Exchange    Energy =  -4.53992293085521
 Beta HF Exchange     Energy =  -4.53992293085520
 DFT Correlation      Energy =  -1.90467873313066
 DFT Exchange         Energy = -36.03425983477172
 One-Electron (alpha) Energy = -537.40077390047850
 One-Electron (beta)  Energy = -537.40077390047827
 Total Coulomb        Energy = 401.49558584497265
    7    -578.6706408372      1.25e-04  
 Alpha HF Exchange    Energy =  -4.54024342394996
 Beta HF Exchange     Energy =  -4.54024342394996
 DFT Correlation      Energy =  -1.90470546749410
 DFT Exchange         Energy = -36.03593763860032
 One-Electron (alpha) Energy = -537.42524659821424
 One-Electron (beta)  Energy = -537.42524659821390
 Total Coulomb        Energy = 401.54676595135959
    8    -578.6707516506      4.71e-05  
 Alpha HF Exchange    Energy =  -4.54043409697225
 Beta HF Exchange     Energy =  -4.54043409697225
 DFT Correlation      Energy =  -1.90471066341919
 DFT Exchange         Energy = -36.03688200101409
 One-Electron (alpha) Energy = -537.43617451733087
 One-Electron (beta)  Energy = -537.43617451733098
 Total Coulomb        Energy = 401.56993597697146
    9    -578.6707683676      4.58e-06  
 Alpha HF Exchange    Energy =  -4.54042144461001
 Beta HF Exchange     Energy =  -4.54042144461001
 DFT Correlation      Energy =  -1.90470867428207
 DFT Exchange         Energy = -36.03681012818261
 One-Electron (alpha) Energy = -537.43530505300964
 One-Electron (beta)  Energy = -537.43530505300987
 Total Coulomb        Energy = 401.56809776272695
   10    -578.6707684865      1.41e-06  
 Alpha HF Exchange    Energy =  -4.54042332733488
 Beta HF Exchange     Energy =  -4.54042332733489
 DFT Correlation      Energy =  -1.90470965300536
 DFT Exchange         Energy = -36.03682831990919
 One-Electron (alpha) Energy = -537.43551783771420
 One-Electron (beta)  Energy = -537.43551783771454
 Total Coulomb        Energy = 401.56854625871614
   11    -578.6707684959      2.46e-07  Convergence criterion met
 ---------------------------------------
 SCF time:   CPU 25.38s  wall 2.00s 
<S^2> =          0.000000000
 Alpha HF Exchange    Energy =  -4.54042332733488
 Beta HF Exchange     Energy =  -4.54042332733489
 DFT Correlation      Energy =  -1.90470965300536
 DFT Exchange         Energy = -36.03682831990919
 One-Electron (alpha) Energy = -537.43551783771420
 One-Electron (beta)  Energy = -537.43551783771454
 Total Coulomb        Energy = 401.56854625871614
 Nuclear repulsion Energy = 141.65410554842819
 SCF   energy in the final basis set =     -578.6707684959
 Total energy in the final basis set =     -578.6707684959
 
 --------------------------------------------------------------
 
                    Orbital Energies (a.u.)
 --------------------------------------------------------------
 
 Alpha MOs
 -- Occupied --
******* -10.306 -10.242 -10.203  -9.386  -7.149  -7.141  -7.141
 -0.842  -0.723  -0.709  -0.630  -0.515  -0.485  -0.463  -0.402
 -0.391  -0.383  -0.266  -0.245  -0.245
 -- Virtual --
 -0.143   0.068   0.101   0.104   0.126   0.144   0.156   0.175
  0.203   0.241   0.408   0.441   0.460   0.483   0.496   0.508
  0.540   0.572   0.575   0.625   0.675   0.708   0.763   0.798
  0.806   0.845   0.869   0.875   0.884   0.902   0.928   0.951
  0.954   0.960   0.984   1.033   1.208   1.255   1.358   1.411
  1.493   1.624   1.683   1.780   1.825   1.873   1.932   1.974
  2.026   2.038   2.069   2.080   2.193   2.226   2.252   2.307
  2.373   2.416   2.469   2.549   2.628   2.670   2.714   2.776
  2.813   2.854   2.886   3.166   3.210   3.241   3.383   3.402
  3.454   3.505   4.193   4.299   4.385   4.580
 
 Beta MOs
 -- Occupied --
******* -10.306 -10.242 -10.203  -9.386  -7.149  -7.141  -7.141
 -0.842  -0.723  -0.709  -0.630  -0.515  -0.485  -0.463  -0.402
 -0.391  -0.383  -0.266  -0.245  -0.245
 -- Virtual --
 -0.143   0.068   0.101   0.104   0.126   0.144   0.156   0.175
  0.203   0.241   0.408   0.441   0.460   0.483   0.496   0.508
  0.540   0.572   0.575   0.625   0.675   0.708   0.763   0.798
  0.806   0.845   0.869   0.875   0.884   0.902   0.928   0.951
  0.954   0.960   0.984   1.033   1.208   1.255   1.358   1.411
  1.493   1.624   1.683   1.780   1.825   1.873   1.932   1.974
  2.026   2.038   2.069   2.080   2.193   2.226   2.252   2.307
  2.373   2.416   2.469   2.549   2.628   2.670   2.714   2.776
  2.813   2.854   2.886   3.166   3.210   3.241   3.383   3.402
  3.454   3.505   4.193   4.299   4.385   4.580
 --------------------------------------------------------------
 
          Ground-State Mulliken Net Atomic Charges

     Atom                 Charge (a.u.)    Spin (a.u.)
  --------------------------------------------------------
      1 Cl                   -0.476670      -0.000000
      2 C                    -0.223446       0.000000
      3 C                    -0.072867      -0.000000
      4 C                    -0.325457       0.000000
      5 H                     0.165388       0.000000
      6 H                     0.151065       0.000000
      7 H                     0.186977       0.000000
      8 H                     0.186779       0.000000
      9 H                     0.114344      -0.000000
     10 H                     0.118030      -0.000000
     11 H                     0.175856       0.000000
  --------------------------------------------------------
  Sum of atomic charges =     0.000000
  Sum of spin   charges =     0.000000

 -----------------------------------------------------------------
                    Cartesian Multipole Moments
 -----------------------------------------------------------------
    Charge (ESU x 10^10)
                 0.0000
    Dipole Moment (Debye)
         X      -4.9083      Y       4.4027      Z       1.0919
       Tot       6.6833
    Quadrupole Moments (Debye-Ang)
        XX     -41.5210     XY       5.7046     YY     -32.8391
        XZ       1.8544     YZ      -0.2003     ZZ     -32.2637
    Octopole Moments (Debye-Ang^2)
       XXX     -68.0014    XXY      20.8843    XYY     -18.3849
       YYY      37.0159    XXZ       4.2763    XYZ      -0.5677
       YYZ       2.7483    XZZ     -16.2407    YZZ      11.9715
       ZZZ       9.6484
    Hexadecapole Moments (Debye-Ang^3)
      XXXX    -615.4422   XXXY      99.1974   XXYY    -138.4037
      XYYY      86.7955   YYYY    -237.6328   XXXZ      29.8876
      XXYZ      -5.2499   XYYZ       7.6397   YYYZ     -13.9641
      XXZZ    -110.3638   XYZZ      29.0393   YYZZ     -53.5770
      XZZZ      26.3407   YZZZ     -14.6306   ZZZZ     -68.9351
 -----------------------------------------------------------------
 Calculating analytic gradient of the SCF energy
 Gradient of SCF Energy
            1           2           3           4           5           6
    1   0.0224979   0.0001670  -0.0224057  -0.0000900  -0.0000643   0.0000442
    2  -0.0273360  -0.0000243   0.0272871   0.0002260   0.0000463   0.0001163
    3  -0.0085849  -0.0000488   0.0087572   0.0001056   0.0000086   0.0000061
            7           8           9          10          11
    1  -0.0000198  -0.0000515  -0.0000122  -0.0000364  -0.0000290
    2  -0.0000941  -0.0000352   0.0000096   0.0000123  -0.0002080
    3  -0.0000790  -0.0000980  -0.0000200  -0.0000046  -0.0000421
 Max gradient component =       2.734E-02
 RMS gradient           =       8.962E-03
 Gradient time:  CPU 7.92 s  wall 0.85 s
 Geometry Optimization Parameters
   NAtoms,    NIC,     NZ,  NCons,   NDum,   NFix, NCnnct, MaxDiis
       11     101       0       1       0       0       0       0

 Cartesian Hessian Update
 Hessian Updated using BFGS Update


** CONSTRAINED OPTIMIZATION IN DELOCALIZED INTERNAL COORDINATES **
   Searching for a Minimum

   Optimization Cycle:  10

                       Coordinates (Angstroms)
     ATOM                X               Y               Z
      1  Cl        2.1660591085   -1.1767807790   -0.3146586474
      2  C        -0.8766192459    0.6362021998   -0.3027812578
      3  C         0.3741145678    0.9993694398    0.3660064601
      4  C        -1.5195791751   -0.6715164748    0.1662333130
      5  H        -0.7487529776    0.6712402633   -1.3893877670
      6  H        -1.5492929495    1.4912003552   -0.0648853716
      7  H         0.5314537993    0.7591096146    1.4128142144
      8  H         1.0627072742    1.7068657792   -0.0831057093
      9  H        -1.6808707365   -0.6693910537    1.2488018808
     10  H        -2.4857369649   -0.8193244354   -0.3227993239
     11  H        -0.8578767003   -1.5053739090   -0.0815347913
   Point Group: c1    Number of degrees of freedom:    27


   Energy is   -578.670768496

              Constraints and their Current Values
                                        Value     Constraint
   Distance(Angs):        1   3             2.900000     2.900000
 Hessian Updated using BFGS Update

 26 Hessian modes will be used to form the next step
  Hessian Eigenvalues:
     0.006662    0.027979    0.091808    0.096002    0.100009    0.114669
     0.136927    0.152777    0.159505    0.164230    0.174035    0.200358
     0.220676    0.249372    0.262439    0.268551    0.291921    0.467269
     0.563144    0.622887    0.652745    0.677156    0.692204    0.701916
     0.702063    0.706126

 Minimum Search - Taking Simple RFO Step
 Searching for Lamda that Minimizes Along All modes
 Value Taken    Lamda =   0.00000000
 Step Taken.  Stepsize is  0.006394

                             Maximum     Tolerance    Cnvgd?
         Gradient           0.000102      0.000300     YES
         Displacement       0.004272      0.001200      NO
         Energy change     -0.000001      0.000001     YES


                       Distance Matrix (Angstroms)
             Cl(  1)   C (  2)   C (  3)   C (  4)   H (  5)   H (  6)
   C (  2)  3.541884
   C (  3)  2.900000  1.464071
   C (  4)  3.751064  1.530850  2.533347
   H (  5)  3.614741  1.094665  2.109481  2.194795
   H (  6)  4.580868  1.113601  2.031517  2.175234  1.751430
   H (  7)  3.066556  2.222846  1.085489  2.794171  3.082043  2.655007
   H (  8)  3.096194  2.226110  1.084626  3.519528  2.461764  2.620952
   H (  9)  4.183386  2.181468  2.790529  1.094520  3.102609  2.532043
   H ( 10)  4.665517  2.169843  3.458446  1.092914  2.525175  2.506386
   H ( 11)  3.050657  2.153056  2.826983  1.092958  2.541660  3.075352
             H (  7)   H (  8)   H (  9)   H ( 10)
   H (  8)  1.848851
   H (  9)  2.638540  3.866238
   H ( 10)  3.821943  4.362401  1.772067
   H ( 11)  3.048148  3.742610  1.773692  1.782919
 
 Final energy is   -578.670768495869     


 ******************************
 **  OPTIMIZATION CONVERGED  **
 ******************************

                       Coordinates (Angstroms)
     ATOM                X               Y               Z
      1  Cl        2.1660591085   -1.1767807790   -0.3146586474
      2  C        -0.8766192459    0.6362021998   -0.3027812578
      3  C         0.3741145678    0.9993694398    0.3660064601
      4  C        -1.5195791751   -0.6715164748    0.1662333130
      5  H        -0.7487529776    0.6712402633   -1.3893877670
      6  H        -1.5492929495    1.4912003552   -0.0648853716
      7  H         0.5314537993    0.7591096146    1.4128142144
      8  H         1.0627072742    1.7068657792   -0.0831057093
      9  H        -1.6808707365   -0.6693910537    1.2488018808
     10  H        -2.4857369649   -0.8193244354   -0.3227993239
     11  H        -0.8578767003   -1.5053739090   -0.0815347913

Z-matrix Print:
$molecule
0 1
Cl
C  1 2.900000
H  2 1.084626 1 90.000062
H  2 1.085489 1 88.320536 3 -116.863398 0
C  2 1.464071 1 103.563228 3 121.991167 0
H  5 1.094665 2 110.225139 1 -66.603366 0
H  5 1.113601 2 103.179269 1 -178.239217 0
C  5 1.530850 2 115.514978 1 62.093454 0
H  8 1.092914 5 110.470797 2 175.191217 0
H  8 1.092958 5 109.147475 2 -64.600010 0
H  8 1.094520 5 111.300771 2 54.949788 0
$end

PES scan, value:    2.9000 energy: -578.6707684959
------- Summary of potential scan: ------ 
    2.9000      -578.6707684959
----------------------------------------- 
Archival summary:
1\1\hpc0332\JobtypUnspecified\ProcedureUnspecified\6-31G**\l137\knomura\MonMar1119:08:542019MonMar1119:08:542019\0\\#,JobtypUnspecified,ProcedureUnspecified,6-31G**,\\0,1\Cl\C,1,2.9\H,2,1.08463,1,90.0001\H,2,1.08549,1,88.3205,3,-116.863,0\C,2,1.46407,1,103.563,3,121.991,0\H,5,1.09466,2,110.225,1,-66.6034,0\H,5,1.1136,2,103.179,1,-178.239,0\C,5,1.53085,2,115.515,1,62.0935,0\H,8,1.09291,5,110.471,2,175.191,0\H,8,1.09296,5,109.147,2,-64.6,0\H,8,1.09452,5,111.301,2,54.9498,0\\\@

 Total job time:  36.51s(wall), 392.27s(cpu) 
 Mon Mar 11 19:08:54 2019

        *************************************************************
        *                                                           *
        *  Thank you very much for using Q-Chem.  Have a nice day.  *
        *                                                           *
        *************************************************************


