
Running Job 1 of 1 ruruma/CH3CH2CH2Cl_afterGeo_singlet.xyz.data/inputs/bond_triplet_3.7.in
qchem ruruma/CH3CH2CH2Cl_afterGeo_singlet.xyz.data/inputs/bond_triplet_3.7.in_14676.0 /staging/scratch/2858534/qchem14676/ 1
/usr/usc/qchem/5.1.1/exe/qcprog.exe_s ruruma/CH3CH2CH2Cl_afterGeo_singlet.xyz.data/inputs/bond_triplet_3.7.in_14676.0 /staging/scratch/2858534/qchem14676/
Check license passed

                  Welcome to Q-Chem
     A Quantum Leap Into The Future Of Chemistry


 Q-Chem 5.1, Q-Chem, Inc., Pleasanton, CA (2018)

 Yihan Shao,  Zhengting Gan,  E. Epifanovsky,  A. T. B. Gilbert,  M. Wormit,  
 J. Kussmann,  A. W. Lange,  A. Behn,  Jia Deng,  Xintian Feng,  D. Ghosh,  
 M. Goldey,  P. R. Horn,  L. D. Jacobson,  I. Kaliman,  T. Kus,  A. Landau,  
 Jie Liu,  E. I. Proynov,  R. M. Richard,  R. P. Steele,  E. J. Sundstrom,  
 H. L. Woodcock III,  P. M. Zimmerman,  D. Zuev,  B. Albrecht,  E. Alguire,  
 S. A. Baeppler,  D. Barton,  Z. Benda,  Y. A. Bernard,  E. J. Berquist,  
 K. B. Bravaya,  H. Burton,  D. Casanova,  Chun-Min Chang,  Yunqing Chen,  
 A. Chien,  K. D. Closser,  M. P. Coons,  S. Coriani,  S. Dasgupta,  
 A. L. Dempwolff,  M. Diedenhofen,  Hainam Do,  R. G. Edgar,  Po-Tung Fang,  
 S. Faraji,  S. Fatehi,  Qingguo Feng,  K. D. Fenk,  J. Fosso-Tande,  
 Qinghui Ge,  A. Ghysels,  G. Gidofalvi,  J. Gomes,  J. Gonthier,  A. Gunina,  
 D. Hait,  M. W. D. Hanson-Heine,  P. H. P. Harbach,  A. W. Hauser,  
 J. E. Herr,  E. G. Hohenstein,  Z. C. Holden,  Kerwin Hui,  B. C. Huynh,  
 T.-C. Jagau,  Hyunjun Ji,  B. Kaduk,  K. Khistyaev,  Jaehoon Kim,  
 P. Klunzinger,  K. Koh,  D. Kosenkov,  L. Koulias,  T. Kowalczyk,  
 C. M. Krauter,  A. Kunitsa,  Ka Un Lao,  A. Laurent,  K. V. Lawler,  
 Joonho Lee,  D. Lefrancois,  S. Lehtola,  D. S. Levine,  Yi-Pei Li,  
 You-Sheng Lin,  Fenglai Liu,  E. Livshits,  A. Luenser,  P. Manohar,  
 E. Mansoor,  S. F. Manzer,  Shan-Ping Mao,  Yuezhi Mao,  N. Mardirossian,  
 A. V. Marenich,  T. Markovich,  L. A. Martinez-Martinez,  S. A. Maurer,  
 N. J. Mayhall,  S. C. McKenzie,  J.-M. Mewes,  A. F. Morrison,  
 J. W. Mullinax,  K. Nanda,  T. S. Nguyen-Beck,  R. Olivares-Amaya,  
 J. A. Parkhill,  T. M. Perrine,  F. Plasser,  P. Pokhilko,  S. Prager,  
 A. Prociuk,  E. Ramos,  D. R. Rehn,  F. Rob,  M. Schneider,  N. Sergueev,  
 S. M. Sharada,  S. Sharma,  D. W. Small,  T. Stauch,  T. Stein,  
 Yu-Chuan Su,  A. J. W. Thom,  A. Tkatchenko,  T. Tsuchimochi,  N. M. Tubman,  
 L. Vogt,  M. L. Vidal,  O. Vydrov,  M. A. Watson,  J. Wenzel,  
 M. de Wergifosse,  T. A. Wesolowski,  A. White,  J. Witte,  A. Yamada,  
 Jun Yang,  K. Yao,  S. Yeganeh,  S. R. Yost,  Zhi-Qiang You,  A. Zech,  
 Igor Ying Zhang,  Xing Zhang,  Yan Zhao,  Ying Zhu,  B. R. Brooks,  
 G. K. L. Chan,  C. J. Cramer,  M. S. Gordon,  W. J. Hehre,  A. Klamt,  
 M. W. Schmidt,  C. D. Sherrill,  D. G. Truhlar,  A. Aspuru-Guzik,  R. Baer,  
 A. T. Bell,  N. A. Besley,  Jeng-Da Chai,  A. E. DePrince, III,  
 R. A. DiStasio Jr.,  A. Dreuw,  B. D. Dunietz,  T. R. Furlani,  
 Chao-Ping Hsu,  Yousung Jung,  Jing Kong,  D. S. Lambrecht,  WanZhen Liang,  
 C. Ochsenfeld,  V. A. Rassolov,  L. V. Slipchenko,  J. E. Subotnik,  
 T. Van Voorhis,  J. M. Herbert,  A. I. Krylov,  P. M. W. Gill,  M. Head-Gordon

 Contributors to earlier versions of Q-Chem not listed above: 
 R. D. Adamson,  B. Austin,  J. Baker,  G. J. O. Beran,  K. Brandhorst,  
 S. T. Brown,  E. F. C. Byrd,  A. K. Chakraborty,  C.-L. Cheng,  
 Siu Hung Chien,  D. M. Chipman,  D. L. Crittenden,  H. Dachsel,  
 R. J. Doerksen,  A. D. Dutoi,  L. Fusti-Molnar,  W. A. Goddard III,  
 A. Golubeva-Zadorozhnaya,  S. R. Gwaltney,  G. Hawkins,  A. Heyden,  
 S. Hirata,  G. Kedziora,  F. J. Keil,  C. Kelley,  Jihan Kim,  R. A. King,  
 R. Z. Khaliullin,  P. P. Korambath,  W. Kurlancheek,  A. M. Lee,  M. S. Lee,  
 S. V. Levchenko,  Ching Yeh Lin,  D. Liotard,  R. C. Lochan,  I. Lotan,  
 P. E. Maslen,  N. Nair,  D. P. O'Neill,  D. Neuhauser,  E. Neuscamman,  
 C. M. Oana,  R. Olson,  B. Peters,  R. Peverati,  P. A. Pieniazek,  
 Y. M. Rhee,  J. Ritchie,  M. A. Rohrdanz,  E. Rosta,  N. J. Russ,  
 H. F. Schaefer III,  N. E. Schultz,  N. Shenvi,  A. C. Simmonett,  A. Sodt,  
 D. Stuck,  K. S. Thanthiriwatte,  V. Vanovschi,  Tao Wang,  A. Warshel,  
 C. F. Williams,  Q. Wu,  X. Xu,  W. Zhang

 Please cite Q-Chem as follows:
 Y. Shao et al., Mol. Phys. 113, 184-215 (2015)
 DOI: 10.1080/00268976.2014.952696

 Q-Chem 5.1.1 for Intel X86 EM64T Linux

 Parts of Q-Chem use Armadillo 8.300.2 (Tropical Shenanigans).
 http://arma.sourceforge.net/

 Q-Chem begins on Mon Mar 11 20:35:43 2019  

Host: 
0

     Scratch files written to /staging/scratch/2858534/qchem14676//
 Aug318 |scratch|qcdevops|jenkins|workspace|build_RNUM 6013   
Processing $rem in /usr/usc/qchem/5.1.1/config/preferences.
 MEM_TOTAL  2000 
Input Ideriv = 2
Curr. Ideriv = -1
Max.  Ideriv = 2

Checking the input file for inconsistencies... 	...done.

--------------------------------------------------------------
User input:
--------------------------------------------------------------

$comment
potential surface scanner
$end

$rem
JOBTYPE  PES_SCAN
UNRESTRICTED TRUE
SYM_IGNORE  TRUE
GEOM_OPT_MAX_CYCLES 400
SCF_MAX_CYCLES 400
METHOD   B3LYP
BASIS   6-31G**
PDB_PRINT 2
SCF_CONVERGENCE 6
THRESH 14
SCF_PRINT 1
$end
$molecule
0 3
Cl 2.415716 -1.940137 -0.527161
C -0.937716 0.746283 -0.276222
C 0.347569 1.114515 0.384909
C -1.512269 -0.595150 0.200292
H -0.803138 0.728257 -1.366677
H -1.692829 1.534689 -0.097609
H 0.538146 0.828671 1.415250
H 1.033810 1.817471 -0.075594
H -1.668995 -0.588881 1.284900
H -2.475503 -0.805750 -0.275207
H -0.829192 -1.418368 -0.032184
$end
$scan
stre 1 3 3.700000 3.701000 0.100000
$end
--------------------------------------------------------------
 ----------------------------------------------------------------
             Standard Nuclear Orientation (Angstroms)
    I     Atom           X                Y                Z
 ----------------------------------------------------------------
    1      Cl      2.4157160000    -1.9401370000    -0.5271610000
    2      C      -0.9377160000     0.7462830000    -0.2762220000
    3      C       0.3475690000     1.1145150000     0.3849090000
    4      C      -1.5122690000    -0.5951500000     0.2002920000
    5      H      -0.8031380000     0.7282570000    -1.3666770000
    6      H      -1.6928290000     1.5346890000    -0.0976090000
    7      H       0.5381460000     0.8286710000     1.4152500000
    8      H       1.0338100000     1.8174710000    -0.0755940000
    9      H      -1.6689950000    -0.5888810000     1.2849000000
   10      H      -2.4755030000    -0.8057500000    -0.2752070000
   11      H      -0.8291920000    -1.4183680000    -0.0321840000
 ----------------------------------------------------------------
 Nuclear Repulsion Energy =   129.9889372326 hartrees
 There are       22 alpha and       20 beta electrons
 Requested basis set is 6-31G(d,p)
 There are 38 shells and 99 basis functions

 Total QAlloc Memory Limit   2000 MB
 Mega-Array Size       188 MB
 MEM_STATIC part       192 MB
A total of 1 constraints
  
            1
    1   1.0100000
    2   1.0100000
    3   3.0100000
    4   3.7000000
    5   3.7010000
    6   0.1000000
    7   0.0000000
    8   0.0000000
    9   0.0000000
   10   0.0000000

                       Distance Matrix (Angstroms)
             Cl(  1)   C (  2)   C (  3)   C (  4)   H (  5)   H (  6)
   C (  2)  4.304106
   C (  3)  3.800000  1.491525
   C (  4)  4.215121  1.535128  2.532989
   H (  5)  4.264520  1.098876  2.131050  2.170176
   H (  6)  5.398062  1.106202  2.138362  2.158138  1.747117
   H (  7)  3.868401  2.246338  1.086107  2.776255  3.090023  2.786477
   H (  8)  4.029044  2.252690  1.084959  3.518433  2.495528  2.741352
   H (  9)  4.668439  2.180489  2.788920  1.095891  3.084708  2.534058
   H ( 10)  5.027359  2.184856  3.477486  1.094656  2.518192  2.474222
   H ( 11)  3.323654  2.181065  2.823868  1.094681  2.527756  3.077449
             H (  7)   H (  8)   H (  9)   H ( 10)
   H (  8)  1.856347
   H (  9)  2.626388  3.866087
   H ( 10)  3.822441  4.385933  1.769582
   H ( 11)  3.002310  3.734075  1.768623  1.773330
 
 A cutoff of  1.0D-14 yielded    695 shell pairs
 There are      4793 function pairs
 
 -------------------------------------------------------
 OpenMP Integral Computing Module                       
 Release: version 1.0, May 2013, Q-Chem Inc. Pittsburgh 
 -------------------------------------------------------
 Integral Job Info:
 Integral job number is                      11
 Integral operator is                         1
 short-range coefficients                     0
 long-range coefficients              100000000
 Omega coefficients                           0
 if combine SR and LR in K                    0
 Integral screening is                        0
 Integral computing path is                   2
 max size of driver memory is            800000
 size of driver memory is                593474
 size of scratch memory is             15267112
 max col of scratch BK array               1296
 max len of scratch array in speh3          155
 max len of scratch index in speh4           18
 max int batch size is                      520
 min int batch size is                       52
 fixed nKL is                                52
 max L of basis functions is                  2
 order of int derivative is                   0
 number of shells is                         38
 number of basis is                          99
 number of cartesian basis is                99
 number of contracted shell pairs           695
 number of primitive shell pairs           2481
 maxK2 (contraction) of shell pair           36
 max number of K2 of shell pair               1
 max number of CS2 of shell pair             57
 max number of PS2 of shell pair            210
 mem total for path MDJ                  512642
 -------------------------------------------------------
 Smallest overlap matrix eigenvalue = 6.24E-03

 Scale SEOQF with 1.000000e-01/1.000000e-01/1.000000e+00

 Standard Electronic Orientation quadrupole field applied
 Nucleus-field energy     =    -0.0000000018 hartrees
 Guess from superposition of atomic densities
 Warning:  Energy on first SCF cycle will be non-variational
 SAD guess density has 42.000000 electrons

 -----------------------------------------------------------------------
  General SCF calculation program by
  Eric Jon Sundstrom, Paul Horn, Yuezhi Mao, Dmitri Zuev, Alec White,
  David Stuck, Shaama M.S., Shane Yost, Joonho Lee, David Small,
  Daniel Levine, Susi Lehtola, Hugh Burton, Evgeny Epifanovsky
 -----------------------------------------------------------------------
 Exchange:     0.2000 Hartree-Fock + 0.0800 Slater + 0.7200 B88
 Correlation:  0.1900 VWN1RPA + 0.8100 LYP
 Using SG-1 standard quadrature grid
 using 12 threads for integral computing
 -------------------------------------------------------
 OpenMP Integral computing Module                
 Release: version 1.0, May 2013, Q-Chem Inc. Pittsburgh 
 -------------------------------------------------------
 -------------------------------------------------------
 OpenMP BLAS3 based DFT computing Module                
 Release: version 1.0, May 2013, Q-Chem Inc. Pittsburgh 
 -------------------------------------------------------
 A unrestricted SCF calculation will be
 performed using DIIS
 SCF converges when DIIS error is below 1.0e-06
 Alpha HF Exchange    Energy =  -4.53874730563934
 Beta HF Exchange     Energy =  -4.53874730563934
 DFT Correlation      Energy =  -1.88455439397103
 DFT Exchange         Energy = -35.69516235686420
 One-Electron (alpha) Energy = -523.89041815453970
 One-Electron (beta)  Energy = -523.89041815453970
 Total Coulomb        Energy = 385.63265246811693
 ---------------------------------------
  Cycle       Energy         DIIS error
 ---------------------------------------
    1    -578.8164579723      2.82e-02  
 Alpha HF Exchange    Energy =  -4.67583129422694
 Beta HF Exchange     Energy =  -4.47865261181375
 DFT Correlation      Energy =  -1.90246916627472
 DFT Exchange         Energy = -36.29308674784878
 One-Electron (alpha) Energy = -539.00748720976719
 One-Electron (beta)  Energy = -514.90555234396300
 Total Coulomb        Energy = 392.74078211370539
    2    -578.5333600294      3.86e-03  
 Alpha HF Exchange    Energy =  -4.62403138445642
 Beta HF Exchange     Energy =  -4.43106172804052
 DFT Correlation      Energy =  -1.87525164692642
 DFT Exchange         Energy = -35.88749049110505
 One-Electron (alpha) Energy = -536.00789924685967
 One-Electron (beta)  Energy = -513.70148846055986
 Total Coulomb        Energy = 388.43768824638840
    3    -578.1005974808      7.32e-03  
 Alpha HF Exchange    Energy =  -4.64053964927580
 Beta HF Exchange     Energy =  -4.44729627110969
 DFT Correlation      Energy =  -1.88687069012665
 DFT Exchange         Energy = -36.01342981739536
 One-Electron (alpha) Energy = -536.99723557619564
 One-Electron (beta)  Energy = -512.87007512751393
 Total Coulomb        Energy = 388.27135519652307
    4    -578.5951547043      1.89e-03  
 Alpha HF Exchange    Energy =  -4.65157351486583
 Beta HF Exchange     Energy =  -4.45470356988839
 DFT Correlation      Energy =  -1.88953778208135
 DFT Exchange         Energy = -36.08599510352441
 One-Electron (alpha) Energy = -537.66687956561020
 One-Electron (beta)  Energy = -513.35499344991047
 Total Coulomb        Energy = 389.50196685091584
    5    -578.6127789042      8.48e-04  
 Alpha HF Exchange    Energy =  -4.65180761795116
 Beta HF Exchange     Energy =  -4.45443197069773
 DFT Correlation      Energy =  -1.88878226332084
 DFT Exchange         Energy = -36.08443861344927
 One-Electron (alpha) Energy = -537.72019267770452
 One-Electron (beta)  Energy = -513.33372743924463
 Total Coulomb        Energy = 389.52760846873485
    6    -578.6168348829      3.47e-04  
 Alpha HF Exchange    Energy =  -4.65168148135379
 Beta HF Exchange     Energy =  -4.45382200231950
 DFT Correlation      Energy =  -1.88844089923552
 DFT Exchange         Energy = -36.08108658824351
 One-Electron (alpha) Energy = -537.71061426780125
 One-Electron (beta)  Energy = -513.30013704955081
 Total Coulomb        Energy = 389.47935874358501
    7    -578.6174863142      1.07e-04  
 Alpha HF Exchange    Energy =  -4.65196352767581
 Beta HF Exchange     Energy =  -4.45405196234053
 DFT Correlation      Energy =  -1.88843444485661
 DFT Exchange         Energy = -36.08299230295928
 One-Electron (alpha) Energy = -537.73783521285804
 One-Electron (beta)  Energy = -513.31712805448581
 Total Coulomb        Energy = 389.52590759233135
    8    -578.6175606821      1.87e-05  
 Alpha HF Exchange    Energy =  -4.65192296082158
 Beta HF Exchange     Energy =  -4.45403598585382
 DFT Correlation      Energy =  -1.88841088140524
 DFT Exchange         Energy = -36.08275259583144
 One-Electron (alpha) Energy = -537.73502252295305
 One-Electron (beta)  Energy = -513.31515252419365
 Total Coulomb        Energy = 389.52079746076157
    9    -578.6175627795      5.20e-06  
 Alpha HF Exchange    Energy =  -4.65192779329985
 Beta HF Exchange     Energy =  -4.45403689998377
 DFT Correlation      Energy =  -1.88841148799035
 DFT Exchange         Energy = -36.08277676020101
 One-Electron (alpha) Energy = -537.73537258914075
 One-Electron (beta)  Energy = -513.31563975749793
 Total Coulomb        Energy = 389.52166507696813
   10    -578.6175629804      1.97e-06  
 Alpha HF Exchange    Energy =  -4.65192680421580
 Beta HF Exchange     Energy =  -4.45404118801640
 DFT Correlation      Energy =  -1.88841177455545
 DFT Exchange         Energy = -36.08279014882562
 One-Electron (alpha) Energy = -537.73543808173633
 One-Electron (beta)  Energy = -513.31600197644320
 Total Coulomb        Energy = 389.52210967396041
   11    -578.6175630691      8.92e-07  Convergence criterion met
 ---------------------------------------
 SCF time:   CPU 23.89s  wall 2.00s 
<S^2> =          2.005549965
 Alpha HF Exchange    Energy =  -4.65192680421580
 Beta HF Exchange     Energy =  -4.45404118801640
 DFT Correlation      Energy =  -1.88841177455545
 DFT Exchange         Energy = -36.08279014882562
 One-Electron (alpha) Energy = -537.73543808173633
 One-Electron (beta)  Energy = -513.31600197644320
 Total Coulomb        Energy = 389.52210967396041
 Nuclear repulsion Energy = 129.98893723075912
 SCF   energy in the final basis set =     -578.6175630691
 Total energy in the final basis set =     -578.6175630691
 
 --------------------------------------------------------------
 
                    Orbital Energies (a.u.)
 --------------------------------------------------------------
 
 Alpha MOs
 -- Occupied --
******* -10.184 -10.183 -10.172  -9.508  -7.283  -7.259  -7.259
 -0.842  -0.777  -0.670  -0.577  -0.450  -0.435  -0.405  -0.401
 -0.356  -0.351  -0.349  -0.345  -0.337  -0.193
 -- Virtual --
  0.105   0.141   0.148   0.155   0.174   0.187   0.203   0.245
  0.280   0.333   0.397   0.410   0.441   0.511   0.523   0.570
  0.579   0.595   0.653   0.674   0.709   0.783   0.796   0.797
  0.803   0.828   0.840   0.845   0.857   0.879   0.912   0.922
  0.945   0.953   0.988   1.194   1.306   1.415   1.452   1.540
  1.675   1.724   1.829   1.854   1.904   1.975   2.026   2.056
  2.073   2.111   2.122   2.250   2.262   2.303   2.357   2.425
  2.466   2.526   2.591   2.671   2.704   2.751   2.811   2.869
  2.888   2.931   3.189   3.277   3.296   3.416   3.442   3.512
  3.549   4.159   4.241   4.408   4.624
 
 Beta MOs
 -- Occupied --
******* -10.185 -10.172 -10.169  -9.501  -7.261  -7.256  -7.255
 -0.789  -0.768  -0.652  -0.562  -0.444  -0.428  -0.396  -0.348
 -0.342  -0.335  -0.332  -0.331
 -- Virtual --
 -0.243  -0.034   0.107   0.150   0.153   0.159   0.176   0.190
  0.208   0.250   0.286   0.349   0.425   0.438   0.448   0.514
  0.526   0.572   0.584   0.632   0.670   0.689   0.720   0.812
  0.836   0.848   0.854   0.858   0.859   0.862   0.867   0.883
  0.917   0.928   0.948   0.972   0.991   1.204   1.317   1.433
  1.466   1.555   1.680   1.733   1.832   1.883   1.911   2.018
  2.033   2.056   2.074   2.116   2.125   2.256   2.271   2.305
  2.362   2.435   2.474   2.546   2.605   2.679   2.711   2.753
  2.814   2.872   2.891   2.934   3.190   3.283   3.300   3.419
  3.445   3.517   3.553   4.181   4.264   4.417   4.627
 --------------------------------------------------------------
 
          Ground-State Mulliken Net Atomic Charges

     Atom                 Charge (a.u.)    Spin (a.u.)
  --------------------------------------------------------
      1 Cl                    0.001112       1.004412
      2 C                    -0.183059      -0.075689
      3 C                    -0.214751       1.076426
      4 C                    -0.319188       0.011618
      5 H                     0.101435       0.016557
      6 H                     0.105701       0.060379
      7 H                     0.096225      -0.047645
      8 H                     0.096301      -0.047870
      9 H                     0.102442      -0.000838
     10 H                     0.098440       0.001423
     11 H                     0.115343       0.001228
  --------------------------------------------------------
  Sum of atomic charges =    -0.000000
  Sum of spin   charges =     2.000000

 -----------------------------------------------------------------
                    Cartesian Multipole Moments
 -----------------------------------------------------------------
    Charge (ESU x 10^10)
                 0.0000
    Dipole Moment (Debye)
         X      -0.1887      Y       0.0562      Z      -0.0740
       Tot       0.2104
    Quadrupole Moments (Debye-Ang)
        XX     -33.5768     XY       0.0840     YY     -33.8297
        XZ       0.1660     YZ      -0.8408     ZZ     -31.1874
    Octopole Moments (Debye-Ang^2)
       XXX     -48.5241    XXY      17.7144    XYY     -14.5913
       YYY      49.6327    XXZ       4.3384    XYZ      -1.5554
       YYZ       5.2337    XZZ     -10.9410    YZZ      13.4605
       ZZZ      11.0115
    Hexadecapole Moments (Debye-Ang^3)
      XXXX    -654.6947   XXXY     164.3343   XXYY    -180.4606
      XYYY     163.0181   YYYY    -439.7488   XXXZ      48.8448
      XXYZ     -16.5024   XYYZ      20.0767   YYYZ     -47.9052
      XXZZ    -112.1236   XYZZ      46.9670   YYZZ     -83.7121
      XZZZ      39.0070   YZZZ     -34.9922   ZZZZ     -80.7352
 -----------------------------------------------------------------
 Calculating analytic gradient of the SCF energy
 Gradient of SCF Energy
            1           2           3           4           5           6
    1  -0.0003685  -0.0001221   0.0003845  -0.0000396   0.0000596   0.0000344
    2   0.0004817   0.0001036  -0.0005204   0.0001125  -0.0000330  -0.0000662
    3   0.0002510   0.0000635  -0.0001846  -0.0000248  -0.0000325  -0.0000099
            7           8           9          10          11
    1  -0.0000092   0.0000431   0.0000778   0.0000217  -0.0000818
    2   0.0000201  -0.0000667   0.0000400   0.0000252  -0.0000969
    3   0.0000336  -0.0000106   0.0000328  -0.0000068  -0.0001116
 Max gradient component =       5.204E-04
 RMS gradient           =       1.728E-04
 Gradient time:  CPU 7.63 s  wall 0.81 s
 Geometry Optimization Parameters
   NAtoms,    NIC,     NZ,  NCons,   NDum,   NFix, NCnnct, MaxDiis
       11      66       0       1       0       0       0       0


** CONSTRAINED OPTIMIZATION IN DELOCALIZED INTERNAL COORDINATES **
   Searching for a Minimum

   Optimization Cycle:   1

                       Coordinates (Angstroms)
     ATOM                X               Y               Z
      1  Cl        2.4157160000   -1.9401370000   -0.5271610000
      2  C        -0.9377160000    0.7462830000   -0.2762220000
      3  C         0.3475690000    1.1145150000    0.3849090000
      4  C        -1.5122690000   -0.5951500000    0.2002920000
      5  H        -0.8031380000    0.7282570000   -1.3666770000
      6  H        -1.6928290000    1.5346890000   -0.0976090000
      7  H         0.5381460000    0.8286710000    1.4152500000
      8  H         1.0338100000    1.8174710000   -0.0755940000
      9  H        -1.6689950000   -0.5888810000    1.2849000000
     10  H        -2.4755030000   -0.8057500000   -0.2752070000
     11  H        -0.8291920000   -1.4183680000   -0.0321840000
   Point Group: c1    Number of degrees of freedom:    27


   Energy is   -578.617563069

              Constraints and their Current Values
                                        Value     Constraint
   Distance(Angs):        1   3             3.800000     3.700000

 Attempting to Generate Delocalized Internal Coordinates

   Using Lagrange Multiplier Algorithm


 28 Hessian modes will be used to form the next step
  Hessian Eigenvalues:
    -0.995227    0.011538    0.045000    0.045000    0.045674    0.046487
     0.071494    0.078305    0.081893    0.084395    0.112112    0.125641
     0.137701    0.143486    0.160000    0.160000    0.160000    0.216562
     0.288864    0.330055    0.332597    0.338067    0.338080    0.341406
     0.342801    0.352664    0.354017    1.004796

 Minimum Search - Taking P-RFO Step
 Searching for Lamda that Maximizes Along the Constraint modes Only
 Value Taken    Lamda =   0.01783156


 ********************************************
 ** ERROR IN DETERMINING Lamda IN CONFormD **
 ********************************************


 ** Scaling Hessian by  3.090958 **


 28 Hessian modes will be used to form the next step
  Hessian Eigenvalues:
    -0.985322    0.035663    0.139093    0.139093    0.141175    0.143690
     0.220984    0.242038    0.253129    0.260861    0.346532    0.388352
     0.425628    0.443509    0.494553    0.494553    0.494553    0.669384
     0.892866    1.014897    1.020186    1.028042    1.044952    1.044991
     1.055273    1.059583    1.090070    1.094252

 Minimum Search - Taking P-RFO Step
 Searching for Lamda that Maximizes Along the Constraint modes Only
 Value Taken    Lamda =   0.01817935
 Searching for Lamda that Minimizes Along All other modes
 Value Taken    Lamda =  -0.01692970
 Step Taken.  Stepsize is  0.185711

                             Maximum     Tolerance    Cnvgd?
         Gradient            0.188973       0.000300      NO
         Displacement        0.185708       0.001200      NO
         Energy change     *********       0.000001      NO


 New Cartesian Coordinates Obtained by Inverse Iteration

 Displacement from previous Coordinates is:  0.209005
 ----------------------------------------------------------------
             Standard Nuclear Orientation (Angstroms)
    I     Atom           X                Y                Z
 ----------------------------------------------------------------
    1      Cl      2.4142445818    -1.8542161131    -0.5192045669
    2      C      -0.9352355767     0.7389351370    -0.2794450320
    3      C       0.3562937191     1.0881765164     0.3807688138
    4      C      -1.5241408630    -0.5923938825     0.2043458195
    5      H      -0.8012208887     0.7150765576    -1.3698427020
    6      H      -1.6797567715     1.5381825089    -0.1043817215
    7      H       0.5424527986     0.8018100300     1.4117621044
    8      H       1.0536212739     1.7789379449    -0.0815430789
    9      H      -1.6793891506    -0.5823983844     1.2891266518
   10      H      -2.4899878168    -0.7984743473    -0.2678561073
   11      H      -0.8412823063    -1.4120359675    -0.0290331808
 ----------------------------------------------------------------
 Nuclear Repulsion Energy =   130.8329753301 hartrees
 There are       22 alpha and       20 beta electrons

                       Distance Matrix (Angstroms)
             Cl(  1)   C (  2)   C (  3)   C (  4)   H (  5)   H (  6)
   C (  2)  4.242751
   C (  3)  3.701728  1.491945
   C (  4)  4.198405  1.534047  2.528137
   H (  5)  4.202864  1.098861  2.131592  2.170291
   H (  6)  5.333038  1.106235  2.140883  2.158445  1.746631
   H (  7)  3.779777  2.246708  1.086098  2.769922  3.090357  2.789113
   H (  8)  3.904184  2.253070  1.084965  3.514229  2.496389  2.744055
   H (  9)  4.652464  2.181766  2.785667  1.095879  3.086218  2.537465
   H ( 10)  5.022874  2.186554  3.475843  1.094671  2.521338  2.478541
   H ( 11)  3.321784  2.167535  2.802354  1.092051  2.514753  3.067981
             H (  7)   H (  8)   H (  9)   H ( 10)
   H (  8)  1.856349
   H (  9)  2.620621  3.863158
   H ( 10)  3.818079  4.385765  1.768602
   H ( 11)  2.981900  3.711567  1.768691  1.775310
 
 Applying Cartesian multipole field
    Component          Value
    ---------          -----
     (2,0,0)        1.00000E-11
     (0,2,0)        2.00000E-11
     (0,0,2)       -3.00000E-10
 Nucleus-field energy     =    -0.0000000021 hartrees
 Requested basis set is 6-31G(d,p)
 There are 38 shells and 99 basis functions
 A cutoff of  1.0D-14 yielded    696 shell pairs
 There are      4794 function pairs
 Smallest overlap matrix eigenvalue = 6.23E-03
 Guess from superposition of atomic densities
 Warning:  Energy on first SCF cycle will be non-variational
 SAD guess density has 42.000000 electrons

 -----------------------------------------------------------------------
  General SCF calculation program by
  Eric Jon Sundstrom, Paul Horn, Yuezhi Mao, Dmitri Zuev, Alec White,
  David Stuck, Shaama M.S., Shane Yost, Joonho Lee, David Small,
  Daniel Levine, Susi Lehtola, Hugh Burton, Evgeny Epifanovsky
 -----------------------------------------------------------------------
 Exchange:     0.2000 Hartree-Fock + 0.0800 Slater + 0.7200 B88
 Correlation:  0.1900 VWN1RPA + 0.8100 LYP
 Using SG-1 standard quadrature grid
 using 12 threads for integral computing
 -------------------------------------------------------
 OpenMP Integral computing Module                
 Release: version 1.0, May 2013, Q-Chem Inc. Pittsburgh 
 -------------------------------------------------------
 -------------------------------------------------------
 OpenMP BLAS3 based DFT computing Module                
 Release: version 1.0, May 2013, Q-Chem Inc. Pittsburgh 
 -------------------------------------------------------
 A unrestricted SCF calculation will be
 performed using DIIS
 SCF converges when DIIS error is below 1.0e-06
 Alpha HF Exchange    Energy =  -4.53907234263208
 Beta HF Exchange     Energy =  -4.53907234263208
 DFT Correlation      Energy =  -1.88481518071177
 DFT Exchange         Energy = -35.69564724112701
 One-Electron (alpha) Energy = -524.73289097510690
 One-Electron (beta)  Energy = -524.73289097510690
 Total Coulomb        Energy = 386.47262798428852
 ---------------------------------------
  Cycle       Energy         DIIS error
 ---------------------------------------
    1    -578.8187857450      2.82e-02  
 Alpha HF Exchange    Energy =  -4.67607530134785
 Beta HF Exchange     Energy =  -4.47865333271475
 DFT Correlation      Energy =  -1.90274624788951
 DFT Exchange         Energy = -36.29410317496074
 One-Electron (alpha) Energy = -539.91671665449303
 One-Electron (beta)  Energy = -515.69168619013431
 Total Coulomb        Energy = 393.59432476760173
    2    -578.5326808059      3.87e-03  
 Alpha HF Exchange    Energy =  -4.62423620652419
 Beta HF Exchange     Energy =  -4.43122764299083
 DFT Correlation      Energy =  -1.87544846191812
 DFT Exchange         Energy = -35.88853046062804
 One-Electron (alpha) Energy = -536.91385999478473
 One-Electron (beta)  Energy = -514.48536172210538
 Total Coulomb        Energy = 389.28559209083414
    3    -578.1000970701      7.34e-03  
 Alpha HF Exchange    Energy =  -4.64081287628152
 Beta HF Exchange     Energy =  -4.44728007487443
 DFT Correlation      Energy =  -1.88716865706101
 DFT Exchange         Energy = -36.01443276709007
 One-Electron (alpha) Energy = -537.90640558494465
 One-Electron (beta)  Energy = -513.64992284803975
 Total Coulomb        Energy = 389.11822678120109
    4    -578.5948206991      1.89e-03  
 Alpha HF Exchange    Energy =  -4.65183414191401
 Beta HF Exchange     Energy =  -4.45475141064721
 DFT Correlation      Energy =  -1.88981230996526
 DFT Exchange         Energy = -36.08709933670216
 One-Electron (alpha) Energy = -538.57656159328224
 One-Electron (beta)  Energy = -514.13835748058341
 Total Coulomb        Energy = 390.35285299914034
    5    -578.6125879460      8.48e-04  
 Alpha HF Exchange    Energy =  -4.65204755950178
 Beta HF Exchange     Energy =  -4.45449683108762
 DFT Correlation      Energy =  -1.88904631781953
 DFT Exchange         Energy = -36.08548701043264
 One-Electron (alpha) Energy = -538.62865432862031
 One-Electron (beta)  Energy = -514.11762102127136
 Total Coulomb        Energy = 390.37771296171172
    6    -578.6166647790      3.45e-04  
 Alpha HF Exchange    Energy =  -4.65190729815375
 Beta HF Exchange     Energy =  -4.45389367312277
 DFT Correlation      Energy =  -1.88870340776206
 DFT Exchange         Energy = -36.08210290339772
 One-Electron (alpha) Energy = -538.61829767732820
 One-Electron (beta)  Energy = -514.08445168428807
 Total Coulomb        Energy = 390.32907231563877
    7    -578.6173090004      1.06e-04  
 Alpha HF Exchange    Energy =  -4.65218530707330
 Beta HF Exchange     Energy =  -4.45412732254217
 DFT Correlation      Energy =  -1.88869776009328
 DFT Exchange         Energy = -36.08400984126450
 One-Electron (alpha) Energy = -538.64526853971165
 One-Electron (beta)  Energy = -514.10179674007634
 Total Coulomb        Energy = 390.37572734094562
    8    -578.6173828418      1.89e-05  
 Alpha HF Exchange    Energy =  -4.65214357027218
 Beta HF Exchange     Energy =  -4.45411126744524
 DFT Correlation      Energy =  -1.88867410523481
 DFT Exchange         Energy = -36.08376602662936
 One-Electron (alpha) Energy = -538.64238168887721
 One-Electron (beta)  Energy = -514.09987016719379
 Total Coulomb        Energy = 390.37058648217021
    9    -578.6173850155      5.24e-06  
 Alpha HF Exchange    Energy =  -4.65214823605811
 Beta HF Exchange     Energy =  -4.45411197729951
 DFT Correlation      Energy =  -1.88867469314355
 DFT Exchange         Energy = -36.08378909245954
 One-Electron (alpha) Energy = -538.64272164498436
 One-Electron (beta)  Energy = -514.10037621447179
 Total Coulomb        Energy = 390.37146129377817
   10    -578.6173852366      2.04e-06  
 Alpha HF Exchange    Energy =  -4.65214723904741
 Beta HF Exchange     Energy =  -4.45411631150591
 DFT Correlation      Energy =  -1.88867502263744
 DFT Exchange         Energy = -36.08380284013437
 One-Electron (alpha) Energy = -538.64278522231359
 One-Electron (beta)  Energy = -514.10074878219928
 Total Coulomb        Energy = 390.37191474343092
   11    -578.6173853464      1.01e-06  
 Alpha HF Exchange    Energy =  -4.65214606097117
 Beta HF Exchange     Energy =  -4.45411671539021
 DFT Correlation      Energy =  -1.88867499010545
 DFT Exchange         Energy = -36.08380027766881
 One-Electron (alpha) Energy = -538.64267302324220
 One-Electron (beta)  Energy = -514.10081012168837
 Total Coulomb        Energy = 390.37186040376400
   12    -578.6173854573      9.91e-07  Convergence criterion met
 ---------------------------------------
 SCF time:   CPU 25.28s  wall 2.00s 
<S^2> =          2.005554747
 Alpha HF Exchange    Energy =  -4.65214606097117
 Beta HF Exchange     Energy =  -4.45411671539021
 DFT Correlation      Energy =  -1.88867499010545
 DFT Exchange         Energy = -36.08380027766881
 One-Electron (alpha) Energy = -538.64267302324220
 One-Electron (beta)  Energy = -514.10081012168837
 Total Coulomb        Energy = 390.37186040376400
 Nuclear repulsion Energy = 130.83297532799475
 SCF   energy in the final basis set =     -578.6173854573
 Total energy in the final basis set =     -578.6173854573
 
 --------------------------------------------------------------
 
                    Orbital Energies (a.u.)
 --------------------------------------------------------------
 
 Alpha MOs
 -- Occupied --
******* -10.184 -10.182 -10.172  -9.508  -7.282  -7.259  -7.259
 -0.842  -0.777  -0.669  -0.577  -0.450  -0.436  -0.405  -0.401
 -0.355  -0.351  -0.348  -0.345  -0.338  -0.193
 -- Virtual --
  0.105   0.141   0.148   0.156   0.174   0.187   0.203   0.245
  0.279   0.332   0.397   0.411   0.441   0.511   0.524   0.570
  0.579   0.595   0.659   0.678   0.710   0.783   0.796   0.797
  0.804   0.829   0.841   0.847   0.856   0.879   0.913   0.923
  0.945   0.954   0.989   1.197   1.306   1.414   1.452   1.540
  1.676   1.725   1.831   1.853   1.906   1.977   2.026   2.055
  2.075   2.111   2.121   2.251   2.264   2.305   2.357   2.425
  2.466   2.525   2.593   2.672   2.704   2.749   2.812   2.870
  2.890   2.932   3.192   3.276   3.297   3.416   3.442   3.512
  3.551   4.160   4.244   4.409   4.625
 
 Beta MOs
 -- Occupied --
******* -10.185 -10.171 -10.169  -9.501  -7.260  -7.255  -7.255
 -0.788  -0.768  -0.652  -0.562  -0.444  -0.429  -0.395  -0.348
 -0.342  -0.335  -0.332  -0.331
 -- Virtual --
 -0.243  -0.034   0.107   0.150   0.154   0.160   0.175   0.190
  0.208   0.250   0.286   0.349   0.426   0.437   0.448   0.514
  0.527   0.573   0.584   0.632   0.671   0.695   0.723   0.814
  0.836   0.848   0.856   0.858   0.859   0.862   0.868   0.883
  0.918   0.928   0.947   0.973   0.992   1.207   1.318   1.431
  1.467   1.556   1.681   1.734   1.834   1.882   1.912   2.019
  2.033   2.055   2.076   2.117   2.124   2.257   2.273   2.306
  2.362   2.436   2.476   2.546   2.607   2.679   2.710   2.752
  2.816   2.874   2.892   2.935   3.193   3.282   3.301   3.419
  3.446   3.517   3.555   4.182   4.266   4.419   4.628
 --------------------------------------------------------------
 
          Ground-State Mulliken Net Atomic Charges

     Atom                 Charge (a.u.)    Spin (a.u.)
  --------------------------------------------------------
      1 Cl                    0.001018       1.005182
      2 C                    -0.183079      -0.075627
      3 C                    -0.214175       1.075434
      4 C                    -0.318970       0.011553
      5 H                     0.101360       0.016630
      6 H                     0.105315       0.060313
      7 H                     0.096097      -0.047590
      8 H                     0.096090      -0.047804
      9 H                     0.102404      -0.000838
     10 H                     0.098316       0.001477
     11 H                     0.115625       0.001268
  --------------------------------------------------------
  Sum of atomic charges =     0.000000
  Sum of spin   charges =     2.000000

 -----------------------------------------------------------------
                    Cartesian Multipole Moments
 -----------------------------------------------------------------
    Charge (ESU x 10^10)
                -0.0000
    Dipole Moment (Debye)
         X      -0.1843      Y       0.0604      Z      -0.0742
       Tot       0.2076
    Quadrupole Moments (Debye-Ang)
        XX     -33.5694     XY       0.1075     YY     -33.8482
        XZ       0.0972     YZ      -0.8908     ZZ     -31.2101
    Octopole Moments (Debye-Ang^2)
       XXX     -48.5166    XXY      16.9323    XYY     -14.6047
       YYY      46.7881    XXZ       3.9672    XYZ      -1.5750
       YYZ       5.2524    XZZ     -10.9370    YZZ      12.8178
       ZZZ      10.8584
    Hexadecapole Moments (Debye-Ang^3)
      XXXX    -655.8198   XXXY     156.4931   XXYY    -176.1568
      XYYY     154.4194   YYYY    -410.9668   XXXZ      47.0446
      XXYZ     -15.4113   XYYZ      19.8298   YYYZ     -45.0917
      XXZZ    -112.0812   XYZZ      44.7128   YYZZ     -79.6673
      XZZZ      38.4676   YZZZ     -32.8106   ZZZZ     -80.3228
 -----------------------------------------------------------------
 Calculating analytic gradient of the SCF energy
 Gradient of SCF Energy
            1           2           3           4           5           6
    1  -0.0004792   0.0001444   0.0006878   0.0003741   0.0000591  -0.0001848
    2   0.0007479  -0.0008081  -0.0011491  -0.0007878   0.0001352  -0.0002524
    3   0.0003183  -0.0005032   0.0000445   0.0001479  -0.0000530  -0.0001118
            7           8           9          10          11
    1  -0.0000021   0.0000000  -0.0001941  -0.0002291  -0.0001760
    2   0.0000310  -0.0000347  -0.0000892   0.0001628   0.0020444
    3   0.0000657  -0.0000583   0.0000408   0.0002694  -0.0001605
 Max gradient component =       2.044E-03
 RMS gradient           =       5.215E-04
 Gradient time:  CPU 7.69 s  wall 0.82 s
 Geometry Optimization Parameters
   NAtoms,    NIC,     NZ,  NCons,   NDum,   NFix, NCnnct, MaxDiis
       11      66       0       1       0       0       0       0

 Cartesian Hessian Update
 Hessian Updated using BFGS Update


** CONSTRAINED OPTIMIZATION IN DELOCALIZED INTERNAL COORDINATES **
   Searching for a Minimum

   Optimization Cycle:   2

                       Coordinates (Angstroms)
     ATOM                X               Y               Z
      1  Cl        2.4142445818   -1.8542161131   -0.5192045669
      2  C        -0.9352355767    0.7389351370   -0.2794450320
      3  C         0.3562937191    1.0881765164    0.3807688138
      4  C        -1.5241408630   -0.5923938825    0.2043458195
      5  H        -0.8012208887    0.7150765576   -1.3698427020
      6  H        -1.6797567715    1.5381825089   -0.1043817215
      7  H         0.5424527986    0.8018100300    1.4117621044
      8  H         1.0536212739    1.7789379449   -0.0815430789
      9  H        -1.6793891506   -0.5823983844    1.2891266518
     10  H        -2.4899878168   -0.7984743473   -0.2678561073
     11  H        -0.8412823063   -1.4120359675   -0.0290331808
   Point Group: c1    Number of degrees of freedom:    27


   Energy is   -578.617385457

              Constraints and their Current Values
                                        Value     Constraint
   Distance(Angs):        1   3             3.701728     3.700000
 Hessian Updated using BFGS Update

   Using Lagrange Multiplier Algorithm


 27 Hessian modes will be used to form the next step
  Hessian Eigenvalues:
    -0.998398    0.036054    0.139083    0.139094    0.141175    0.144096
     0.221507    0.242196    0.253135    0.260916    0.346657    0.388393
     0.426222    0.443675    0.494553    0.525504    0.673661    0.898906
     1.001396    1.020185    1.028415    1.044951    1.055232    1.059230
     1.062127    1.090085    1.094256

 Minimum Search - Taking P-RFO Step
 Searching for Lamda that Maximizes Along the Constraint modes Only
 Value Taken    Lamda =   0.00000105
 Searching for Lamda that Minimizes Along All other modes
 Value Taken    Lamda =  -0.00004299
 Step Taken.  Stepsize is  0.008028

                             Maximum     Tolerance    Cnvgd?
         Gradient            0.004702       0.000300      NO
         Displacement        0.004750       0.001200      NO
         Energy change      0.000178       0.000001      NO


 New Cartesian Coordinates Obtained by Inverse Iteration

 Displacement from previous Coordinates is:  0.009833
 ----------------------------------------------------------------
             Standard Nuclear Orientation (Angstroms)
    I     Atom           X                Y                Z
 ----------------------------------------------------------------
    1      Cl      2.4113197351    -1.8541852099    -0.5175307451
    2      C      -0.9350873560     0.7392515173    -0.2790697850
    3      C       0.3566515640     1.0889619591     0.3803690948
    4      C      -1.5236261708    -0.5930898468     0.2038492809
    5      H      -0.8015045928     0.7158042546    -1.3695066032
    6      H      -1.6794502041     1.5385400852    -0.1032952227
    7      H       0.5435847437     0.8022189956     1.4110924993
    8      H       1.0533348570     1.7803385411    -0.0819915355
    9      H      -1.6787495860    -0.5831066727     1.2886131949
   10      H      -2.4893546613    -0.7989056800    -0.2686613713
   11      H      -0.8415193287    -1.4142279435    -0.0291718071
 ----------------------------------------------------------------
 Nuclear Repulsion Energy =   130.8555363673 hartrees
 There are       22 alpha and       20 beta electrons

                       Distance Matrix (Angstroms)
             Cl(  1)   C (  2)   C (  3)   C (  4)   H (  5)   H (  6)
   C (  2)  4.240427
   C (  3)  3.700000  1.491894
   C (  4)  4.194586  1.534510  2.529012
   H (  5)  4.201541  1.098839  2.131346  2.170279
   H (  6)  5.330720  1.106271  2.140505  2.159274  1.746704
   H (  7)  3.776838  2.246572  1.086074  2.770863  3.090059  2.788803
   H (  8)  3.904303  2.253114  1.084964  3.515053  2.496269  2.743544
   H (  9)  4.648275  2.181581  2.786320  1.095845  3.085827  2.537478
   H ( 10)  5.019179  2.186729  3.476354  1.094650  2.520921  2.479303
   H ( 11)  3.318587  2.169949  2.805227  1.092628  2.516970  3.070254
             H (  7)   H (  8)   H (  9)   H ( 10)
   H (  8)  1.856304
   H (  9)  2.621621  3.863770
   H ( 10)  3.818887  4.386114  1.768828
   H ( 11)  2.984210  3.714636  1.768693  1.775201
 
 Applying Cartesian multipole field
    Component          Value
    ---------          -----
     (2,0,0)        1.00000E-11
     (0,2,0)        2.00000E-11
     (0,0,2)       -3.00000E-10
 Nucleus-field energy     =    -0.0000000021 hartrees
 Requested basis set is 6-31G(d,p)
 There are 38 shells and 99 basis functions
 A cutoff of  1.0D-14 yielded    696 shell pairs
 There are      4794 function pairs
 Smallest overlap matrix eigenvalue = 6.23E-03
 Guess from superposition of atomic densities
 Warning:  Energy on first SCF cycle will be non-variational
 SAD guess density has 42.000000 electrons

 -----------------------------------------------------------------------
  General SCF calculation program by
  Eric Jon Sundstrom, Paul Horn, Yuezhi Mao, Dmitri Zuev, Alec White,
  David Stuck, Shaama M.S., Shane Yost, Joonho Lee, David Small,
  Daniel Levine, Susi Lehtola, Hugh Burton, Evgeny Epifanovsky
 -----------------------------------------------------------------------
 Exchange:     0.2000 Hartree-Fock + 0.0800 Slater + 0.7200 B88
 Correlation:  0.1900 VWN1RPA + 0.8100 LYP
 Using SG-1 standard quadrature grid
 using 12 threads for integral computing
 -------------------------------------------------------
 OpenMP Integral computing Module                
 Release: version 1.0, May 2013, Q-Chem Inc. Pittsburgh 
 -------------------------------------------------------
 -------------------------------------------------------
 OpenMP BLAS3 based DFT computing Module                
 Release: version 1.0, May 2013, Q-Chem Inc. Pittsburgh 
 -------------------------------------------------------
 A unrestricted SCF calculation will be
 performed using DIIS
 SCF converges when DIIS error is below 1.0e-06
 Alpha HF Exchange    Energy =  -4.53898727410985
 Beta HF Exchange     Energy =  -4.53898727410985
 DFT Correlation      Energy =  -1.88480149582148
 DFT Exchange         Energy = -35.69547956601581
 One-Electron (alpha) Energy = -524.75587112098287
 One-Electron (beta)  Energy = -524.75587112098287
 Total Coulomb        Energy = 386.49635195232952
 ---------------------------------------
  Cycle       Energy         DIIS error
 ---------------------------------------
    1    -578.8181095345      2.82e-02  
 Alpha HF Exchange    Energy =  -4.67603069890465
 Beta HF Exchange     Energy =  -4.47860077854361
 DFT Correlation      Energy =  -1.90272691546896
 DFT Exchange         Energy = -36.29375221296585
 One-Electron (alpha) Energy = -539.94041064963676
 One-Electron (beta)  Energy = -515.71251562871248
 Total Coulomb        Energy = 393.61576091784298
    2    -578.5327396012      3.87e-03  
 Alpha HF Exchange    Energy =  -4.62421382570564
 Beta HF Exchange     Energy =  -4.43119155049242
 DFT Correlation      Energy =  -1.87545461566834
 DFT Exchange         Energy = -35.88837494004115
 One-Electron (alpha) Energy = -536.93898086623983
 One-Electron (beta)  Energy = -514.51132149463149
 Total Coulomb        Energy = 389.31350607357365
    3    -578.1004948540      7.34e-03  
 Alpha HF Exchange    Energy =  -4.64077286985051
 Beta HF Exchange     Energy =  -4.44723534764015
 DFT Correlation      Energy =  -1.88715186180599
 DFT Exchange         Energy = -36.01412679354836
 One-Electron (alpha) Energy = -537.93027914735069
 One-Electron (beta)  Energy = -513.67108239042341
 Total Coulomb        Energy = 389.14028659967846
    4    -578.5948254458      1.89e-03  
 Alpha HF Exchange    Energy =  -4.65179601039611
 Beta HF Exchange     Energy =  -4.45470833338155
 DFT Correlation      Energy =  -1.88979581957827
 DFT Exchange         Energy = -36.08680644402001
 One-Electron (alpha) Energy = -538.60057561074768
 One-Electron (beta)  Energy = -514.15965455740593
 Total Coulomb        Energy = 390.37520555487191
    5    -578.6125948555      8.48e-04  
 Alpha HF Exchange    Energy =  -4.65201187677367
 Beta HF Exchange     Energy =  -4.45445641988895
 DFT Correlation      Energy =  -1.88903082465733
 DFT Exchange         Energy = -36.08521393144382
 One-Electron (alpha) Energy = -538.65285745601886
 One-Electron (beta)  Energy = -514.13908664222049
 Total Coulomb        Energy = 390.40045016998732
    6    -578.6166706158      3.45e-04  
 Alpha HF Exchange    Energy =  -4.65187222557525
 Beta HF Exchange     Energy =  -4.45385375569105
 DFT Correlation      Energy =  -1.88868804927518
 DFT Exchange         Energy = -36.08183379500322
 One-Electron (alpha) Energy = -538.64256126116493
 One-Electron (beta)  Energy = -514.10595047719255
 Total Coulomb        Energy = 390.35190825405709
    7    -578.6173149447      1.06e-04  
 Alpha HF Exchange    Energy =  -4.65215068502612
 Beta HF Exchange     Energy =  -4.45408764216428
 DFT Correlation      Energy =  -1.88868251426947
 DFT Exchange         Energy = -36.08374351379643
 One-Electron (alpha) Energy = -538.66957086263176
 One-Electron (beta)  Energy = -514.12331264459624
 Total Coulomb        Energy = 390.39862268434212
    8    -578.6173888130      1.89e-05  
 Alpha HF Exchange    Energy =  -4.65210902541354
 Beta HF Exchange     Energy =  -4.45407164263348
 DFT Correlation      Energy =  -1.88865888033821
 DFT Exchange         Energy = -36.08350025506076
 One-Electron (alpha) Energy = -538.66669248941764
 One-Electron (beta)  Energy = -514.12138743512514
 Total Coulomb        Energy = 390.39349237378417
    9    -578.6173909890      5.26e-06  
 Alpha HF Exchange    Energy =  -4.65211367325891
 Beta HF Exchange     Energy =  -4.45407228891915
 DFT Correlation      Energy =  -1.88865945219106
 DFT Exchange         Energy = -36.08352299874622
 One-Electron (alpha) Energy = -538.66703091477416
 One-Electron (beta)  Energy = -514.12188894263193
 Total Coulomb        Energy = 390.39436069317622
   10    -578.6173912122      2.04e-06  
 Alpha HF Exchange    Energy =  -4.65211270505987
 Beta HF Exchange     Energy =  -4.45407662593400
 DFT Correlation      Energy =  -1.88865978751576
 DFT Exchange         Energy = -36.08353688669800
 One-Electron (alpha) Energy = -538.66709705454366
 One-Electron (beta)  Energy = -514.12226241421990
 Total Coulomb        Energy = 390.39481778541051
   11    -578.6173913234      1.02e-06  
 Alpha HF Exchange    Energy =  -4.65211153194089
 Beta HF Exchange     Energy =  -4.45407702386081
 DFT Correlation      Energy =  -1.88865975441898
 DFT Exchange         Energy = -36.08353432576907
 One-Electron (alpha) Energy = -538.66698527561744
 One-Electron (beta)  Energy = -514.12232326429319
 Total Coulomb        Energy = 390.39476337484689
   12    -578.6173914359      9.99e-07  Convergence criterion met
 ---------------------------------------
 SCF time:   CPU 27.92s  wall 3.00s 
<S^2> =          2.005554547
 Alpha HF Exchange    Energy =  -4.65211153194089
 Beta HF Exchange     Energy =  -4.45407702386081
 DFT Correlation      Energy =  -1.88865975441898
 DFT Exchange         Energy = -36.08353432576907
 One-Electron (alpha) Energy = -538.66698527561744
 One-Electron (beta)  Energy = -514.12232326429319
 Total Coulomb        Energy = 390.39476337484689
 Nuclear repulsion Energy = 130.85553636517767
 SCF   energy in the final basis set =     -578.6173914359
 Total energy in the final basis set =     -578.6173914359
 
 --------------------------------------------------------------
 
                    Orbital Energies (a.u.)
 --------------------------------------------------------------
 
 Alpha MOs
 -- Occupied --
******* -10.184 -10.182 -10.172  -9.508  -7.282  -7.259  -7.259
 -0.842  -0.777  -0.669  -0.577  -0.450  -0.436  -0.405  -0.401
 -0.355  -0.351  -0.348  -0.345  -0.338  -0.193
 -- Virtual --
  0.105   0.141   0.148   0.156   0.174   0.187   0.203   0.245
  0.279   0.332   0.397   0.411   0.441   0.511   0.524   0.570
  0.579   0.595   0.659   0.678   0.710   0.783   0.796   0.797
  0.804   0.829   0.841   0.847   0.856   0.879   0.913   0.923
  0.945   0.954   0.989   1.197   1.306   1.414   1.452   1.540
  1.676   1.725   1.831   1.853   1.905   1.977   2.026   2.055
  2.075   2.111   2.121   2.251   2.264   2.304   2.357   2.425
  2.466   2.525   2.592   2.671   2.704   2.749   2.812   2.870
  2.889   2.932   3.191   3.276   3.297   3.416   3.442   3.512
  3.550   4.160   4.244   4.409   4.625
 
 Beta MOs
 -- Occupied --
******* -10.185 -10.171 -10.169  -9.501  -7.260  -7.255  -7.255
 -0.788  -0.768  -0.652  -0.562  -0.444  -0.429  -0.395  -0.348
 -0.342  -0.335  -0.332  -0.331
 -- Virtual --
 -0.243  -0.034   0.107   0.150   0.154   0.159   0.175   0.190
  0.208   0.250   0.286   0.349   0.426   0.437   0.448   0.514
  0.527   0.573   0.584   0.632   0.671   0.695   0.723   0.814
  0.836   0.848   0.856   0.858   0.859   0.863   0.868   0.883
  0.918   0.928   0.947   0.973   0.992   1.207   1.318   1.432
  1.467   1.555   1.681   1.733   1.833   1.882   1.912   2.019
  2.033   2.056   2.075   2.116   2.124   2.257   2.273   2.306
  2.362   2.436   2.475   2.546   2.606   2.679   2.710   2.752
  2.816   2.874   2.892   2.935   3.192   3.282   3.301   3.419
  3.445   3.517   3.554   4.182   4.266   4.419   4.628
 --------------------------------------------------------------
 
          Ground-State Mulliken Net Atomic Charges

     Atom                 Charge (a.u.)    Spin (a.u.)
  --------------------------------------------------------
      1 Cl                    0.001024       1.005193
      2 C                    -0.183077      -0.075618
      3 C                    -0.214159       1.075460
      4 C                    -0.319014       0.011572
      5 H                     0.101374       0.016634
      6 H                     0.105354       0.060282
      7 H                     0.096070      -0.047591
      8 H                     0.096105      -0.047810
      9 H                     0.102416      -0.000837
     10 H                     0.098368       0.001471
     11 H                     0.115540       0.001245
  --------------------------------------------------------
  Sum of atomic charges =    -0.000000
  Sum of spin   charges =     2.000000

 -----------------------------------------------------------------
                    Cartesian Multipole Moments
 -----------------------------------------------------------------
    Charge (ESU x 10^10)
                -0.0000
    Dipole Moment (Debye)
         X      -0.1847      Y       0.0605      Z      -0.0741
       Tot       0.2080
    Quadrupole Moments (Debye-Ang)
        XX     -33.5719     XY       0.1086     YY     -33.8429
        XZ       0.0966     YZ      -0.8902     ZZ     -31.2121
    Octopole Moments (Debye-Ang^2)
       XXX     -48.4150    XXY      16.9339    XYY     -14.5836
       YYY      46.7877    XXZ       3.9361    XYZ      -1.5694
       YYZ       5.2304    XZZ     -10.9059    YZZ      12.8117
       ZZZ      10.8117
    Hexadecapole Moments (Debye-Ang^3)
      XXXX    -654.6887   XXXY     156.2578   XXYY    -175.9994
      XYYY     154.1995   YYYY    -411.1075   XXXZ      46.7885
      XXYZ     -15.3358   XYYZ      19.7322   YYYZ     -44.9700
      XXZZ    -111.8760   XYZZ      44.6269   YYZZ     -79.6545
      XZZZ      38.2703   YZZZ     -32.7081   ZZZZ     -80.1772
 -----------------------------------------------------------------
 Calculating analytic gradient of the SCF energy
 Gradient of SCF Energy
            1           2           3           4           5           6
    1  -0.0004882   0.0000937   0.0006736   0.0001821   0.0000668  -0.0001313
    2   0.0007547  -0.0005492  -0.0010844  -0.0007425   0.0000943  -0.0001461
    3   0.0003209  -0.0003832  -0.0000214   0.0001315  -0.0000258  -0.0001152
            7           8           9          10          11
    1  -0.0000164   0.0000125  -0.0001251  -0.0001865  -0.0000813
    2   0.0000326  -0.0000352  -0.0000544   0.0001293   0.0016011
    3   0.0000452  -0.0000464   0.0000159   0.0002304  -0.0001518
 Max gradient component =       1.601E-03
 RMS gradient           =       4.400E-04
 Gradient time:  CPU 7.66 s  wall 0.82 s
 Geometry Optimization Parameters
   NAtoms,    NIC,     NZ,  NCons,   NDum,   NFix, NCnnct, MaxDiis
       11      66       0       1       0       0       0       0

 Cartesian Hessian Update
 Hessian Updated using BFGS Update


** CONSTRAINED OPTIMIZATION IN DELOCALIZED INTERNAL COORDINATES **
   Searching for a Minimum

   Optimization Cycle:   3

                       Coordinates (Angstroms)
     ATOM                X               Y               Z
      1  Cl        2.4113197351   -1.8541852099   -0.5175307451
      2  C        -0.9350873560    0.7392515173   -0.2790697850
      3  C         0.3566515640    1.0889619591    0.3803690948
      4  C        -1.5236261708   -0.5930898468    0.2038492809
      5  H        -0.8015045928    0.7158042546   -1.3695066032
      6  H        -1.6794502041    1.5385400852   -0.1032952227
      7  H         0.5435847437    0.8022189956    1.4110924993
      8  H         1.0533348570    1.7803385411   -0.0819915355
      9  H        -1.6787495860   -0.5831066727    1.2886131949
     10  H        -2.4893546613   -0.7989056800   -0.2686613713
     11  H        -0.8415193287   -1.4142279435   -0.0291718071
   Point Group: c1    Number of degrees of freedom:    27


   Energy is   -578.617391436

              Constraints and their Current Values
                                        Value     Constraint
   Distance(Angs):        1   3             3.700000     3.700000
 Hessian Updated using BFGS Update

 26 Hessian modes will be used to form the next step
  Hessian Eigenvalues:
     0.023610    0.119707    0.139094    0.140725    0.141195    0.210600
     0.239122    0.253013    0.256520    0.261727    0.348913    0.389178
     0.429286    0.444486    0.494554    0.494833    0.655592    0.877974
     0.997981    1.020567    1.029489    1.045078    1.055434    1.059583
     1.090111    1.094260

 Minimum Search - Taking Simple RFO Step
 Searching for Lamda that Minimizes Along All modes
 Value Taken    Lamda =  -0.00003050
 Step Taken.  Stepsize is  0.026862

                             Maximum     Tolerance    Cnvgd?
         Gradient           0.001084      0.000300      NO
         Displacement       0.012162      0.001200      NO
         Energy change     -0.000006      0.000001      NO


 New Cartesian Coordinates Obtained by Inverse Iteration

 Displacement from previous Coordinates is:  0.041118
 ----------------------------------------------------------------
             Standard Nuclear Orientation (Angstroms)
    I     Atom           X                Y                Z
 ----------------------------------------------------------------
    1      Cl      2.4003329478    -1.8597139676    -0.5122365076
    2      C      -0.9344486510     0.7405575442    -0.2776147825
    3      C       0.3574461104     1.0935541850     0.3792909818
    4      C      -1.5207660639    -0.5955803626     0.2018528752
    5      H      -0.8024717803     0.7191016226    -1.3682448881
    6      H      -1.6794073910     1.5387285442    -0.0989036978
    7      H       0.5475914038     0.8054609425     1.4089889354
    8      H       1.0507653913     1.7883080479    -0.0830344756
    9      H      -1.6759496611    -0.5859032667     1.2865326263
   10      H      -2.4858262045    -0.8005940672    -0.2722198622
   11      H      -0.8416671016    -1.4223192224    -0.0297142049
 ----------------------------------------------------------------
 Nuclear Repulsion Energy =   130.8931669104 hartrees
 There are       22 alpha and       20 beta electrons

                       Distance Matrix (Angstroms)
             Cl(  1)   C (  2)   C (  3)   C (  4)   H (  5)   H (  6)
   C (  2)  4.235236
   C (  3)  3.700000  1.491685
   C (  4)  4.181265  1.535878  2.532260
   H (  5)  4.200119  1.098796  2.130612  2.170148
   H (  6)  5.325837  1.106335  2.139070  2.161226  1.747006
   H (  7)  3.771858  2.246172  1.086016  2.774562  3.089200  2.787642
   H (  8)  3.913261  2.253157  1.084951  3.518076  2.495888  2.741603
   H (  9)  4.634031  2.180798  2.788972  1.095767  3.084452  2.536436
   H ( 10)  5.005387  2.186767  3.477997  1.094585  2.518815  2.480480
   H ( 11)  3.306767  2.179013  2.816874  1.094667  2.525645  3.078051
             H (  7)   H (  8)   H (  9)   H ( 10)
   H (  8)  1.856154
   H (  9)  2.625838  3.866209
   H ( 10)  3.821976  4.386990  1.769661
   H ( 11)  2.993812  3.727234  1.768651  1.774432
 
 Applying Cartesian multipole field
    Component          Value
    ---------          -----
     (2,0,0)        1.00000E-11
     (0,2,0)        2.00000E-11
     (0,0,2)       -3.00000E-10
 Nucleus-field energy     =    -0.0000000019 hartrees
 Requested basis set is 6-31G(d,p)
 There are 38 shells and 99 basis functions
 A cutoff of  1.0D-14 yielded    697 shell pairs
 There are      4798 function pairs
 Smallest overlap matrix eigenvalue = 6.24E-03
 Guess from superposition of atomic densities
 Warning:  Energy on first SCF cycle will be non-variational
 SAD guess density has 42.000000 electrons

 -----------------------------------------------------------------------
  General SCF calculation program by
  Eric Jon Sundstrom, Paul Horn, Yuezhi Mao, Dmitri Zuev, Alec White,
  David Stuck, Shaama M.S., Shane Yost, Joonho Lee, David Small,
  Daniel Levine, Susi Lehtola, Hugh Burton, Evgeny Epifanovsky
 -----------------------------------------------------------------------
 Exchange:     0.2000 Hartree-Fock + 0.0800 Slater + 0.7200 B88
 Correlation:  0.1900 VWN1RPA + 0.8100 LYP
 Using SG-1 standard quadrature grid
 using 12 threads for integral computing
 -------------------------------------------------------
 OpenMP Integral computing Module                
 Release: version 1.0, May 2013, Q-Chem Inc. Pittsburgh 
 -------------------------------------------------------
 -------------------------------------------------------
 OpenMP BLAS3 based DFT computing Module                
 Release: version 1.0, May 2013, Q-Chem Inc. Pittsburgh 
 -------------------------------------------------------
 A unrestricted SCF calculation will be
 performed using DIIS
 SCF converges when DIIS error is below 1.0e-06
 Alpha HF Exchange    Energy =  -4.53871448290304
 Beta HF Exchange     Energy =  -4.53871448290304
 DFT Correlation      Energy =  -1.88474795749377
 DFT Exchange         Energy = -35.69494928140573
 One-Electron (alpha) Energy = -524.79488004015434
 One-Electron (beta)  Energy = -524.79488004015434
 Total Coulomb        Energy = 386.53772998454821
 ---------------------------------------
  Cycle       Energy         DIIS error
 ---------------------------------------
    1    -578.8159893920      2.82e-02  
 Alpha HF Exchange    Energy =  -4.67588008809185
 Beta HF Exchange     Energy =  -4.47843992212000
 DFT Correlation      Energy =  -1.90265502101941
 DFT Exchange         Energy = -36.29262139941170
 One-Electron (alpha) Energy = -539.97837575482060
 One-Electron (beta)  Energy = -515.74784916920134
 Total Coulomb        Energy = 393.64971364399611
    2    -578.5329408022      3.87e-03  
 Alpha HF Exchange    Energy =  -4.62413288240537
 Beta HF Exchange     Energy =  -4.43105651797367
 DFT Correlation      Energy =  -1.87547315805220
 DFT Exchange         Energy = -35.88781805414891
 One-Electron (alpha) Energy = -536.98114659524856
 One-Electron (beta)  Energy = -514.56374985649370
 Total Coulomb        Energy = 389.36837797361471
    3    -578.1018321822      7.32e-03  
 Alpha HF Exchange    Energy =  -4.64063207925188
 Beta HF Exchange     Energy =  -4.44709735813598
 DFT Correlation      Energy =  -1.88708525783067
 DFT Exchange         Energy = -36.01311567267468
 One-Electron (alpha) Energy = -537.96840899998040
 One-Electron (beta)  Energy = -513.70752944441097
 Total Coulomb        Energy = 389.17585501773112
    4    -578.5948468861      1.89e-03  
 Alpha HF Exchange    Energy =  -4.65166349245340
 Beta HF Exchange     Energy =  -4.45457333991448
 DFT Correlation      Energy =  -1.88973216372333
 DFT Exchange         Energy = -36.08584371591985
 One-Electron (alpha) Energy = -538.63928648135823
 One-Electron (beta)  Energy = -514.19646785671455
 Total Coulomb        Energy = 390.41178481975032
    5    -578.6126153219      8.47e-04  
 Alpha HF Exchange    Energy =  -4.65188783503817
 Beta HF Exchange     Energy =  -4.45432824512912
 DFT Correlation      Energy =  -1.88897080640728
 DFT Exchange         Energy = -36.08431279832067
 One-Electron (alpha) Energy = -538.69222219139454
 One-Electron (beta)  Energy = -514.17636909541307
 Total Coulomb        Energy = 390.43823732168960
    6    -578.6166867415      3.45e-04  
 Alpha HF Exchange    Energy =  -4.65175187534314
 Beta HF Exchange     Energy =  -4.45372745868888
 DFT Correlation      Energy =  -1.88862897623409
 DFT Exchange         Energy = -36.08095401354516
 One-Electron (alpha) Energy = -538.68222797054523
 One-Electron (beta)  Energy = -514.14336433693643
 Total Coulomb        Energy = 390.39015646981250
    7    -578.6173312530      1.06e-04  
 Alpha HF Exchange    Energy =  -4.65203174159900
 Beta HF Exchange     Energy =  -4.45396184709872
 DFT Correlation      Energy =  -1.88862374436443
 DFT Exchange         Energy = -36.08287142035261
 One-Electron (alpha) Energy = -538.70936560081680
 One-Electron (beta)  Energy = -514.16075126058297
 Total Coulomb        Energy = 390.43703352690113
    8    -578.6174051794      1.89e-05  
 Alpha HF Exchange    Energy =  -4.65199044592662
 Beta HF Exchange     Energy =  -4.45394598692952
 DFT Correlation      Energy =  -1.88860019955780
 DFT Exchange         Energy = -36.08263024106536
 One-Electron (alpha) Energy = -538.70652069183825
 One-Electron (beta)  Energy = -514.15882603022487
 Total Coulomb        Energy = 390.43193932977510
    9    -578.6174073573      5.30e-06  
 Alpha HF Exchange    Energy =  -4.65199506208031
 Beta HF Exchange     Energy =  -4.45394647021568
 DFT Correlation      Energy =  -1.88860073115883
 DFT Exchange         Energy = -36.08265220303408
 One-Electron (alpha) Energy = -538.70685700084948
 One-Electron (beta)  Energy = -514.15931347367064
 Total Coulomb        Energy = 390.43279044687017
   10    -578.6174075857      2.05e-06  
 Alpha HF Exchange    Energy =  -4.65199417981540
 Beta HF Exchange     Energy =  -4.45395079624512
 DFT Correlation      Energy =  -1.88860107889691
 DFT Exchange         Energy = -36.08266642543481
 One-Electron (alpha) Energy = -538.70693085438756
 One-Electron (beta)  Energy = -514.15968762543889
 Total Coulomb        Energy = 390.43325635067151
   11    -578.6174077011      1.04e-06  
 Alpha HF Exchange    Energy =  -4.65199302583319
 Beta HF Exchange     Energy =  -4.45395117342065
 DFT Correlation      Energy =  -1.88860104383865
 DFT Exchange         Energy = -36.08266387427582
 One-Electron (alpha) Energy = -538.70682079696496
 One-Electron (beta)  Energy = -514.15974673102073
 Total Coulomb        Energy = 390.43320191862693
   12    -578.6174078183      1.02e-06  
 Alpha HF Exchange    Energy =  -4.65199278432131
 Beta HF Exchange     Energy =  -4.45395128122091
 DFT Correlation      Energy =  -1.88860104517265
 DFT Exchange         Energy = -36.08266356464647
 One-Electron (alpha) Energy = -538.70679562399619
 One-Electron (beta)  Energy = -514.15976451018400
 Total Coulomb        Energy = 390.43319400202915
   13    -578.6174078990      1.02e-06  
 Alpha HF Exchange    Energy =  -4.65199295716608
 Beta HF Exchange     Energy =  -4.45395140401356
 DFT Correlation      Energy =  -1.88860109746330
 DFT Exchange         Energy = -36.08266424456949
 One-Electron (alpha) Energy = -538.70681557285184
 One-Electron (beta)  Energy = -514.15975415073842
 Total Coulomb        Energy = 390.43320486397812
   14    -578.6174076544      1.00e-06  
 Alpha HF Exchange    Energy =  -4.65199326931681
 Beta HF Exchange     Energy =  -4.45395687497072
 DFT Correlation      Energy =  -1.88860145418515
 DFT Exchange         Energy = -36.08267956910893
 One-Electron (alpha) Energy = -538.70686942870918
 One-Electron (beta)  Energy = -514.15984156645516
 Total Coulomb        Energy = 390.43337069655837
   15    -578.6174045577      9.66e-07  Convergence criterion met
 ---------------------------------------
 SCF time:   CPU 34.02s  wall 3.00s 
<S^2> =          2.005556870
 Alpha HF Exchange    Energy =  -4.65199326931681
 Beta HF Exchange     Energy =  -4.45395687497072
 DFT Correlation      Energy =  -1.88860145418515
 DFT Exchange         Energy = -36.08267956910893
 One-Electron (alpha) Energy = -538.70686942870918
 One-Electron (beta)  Energy = -514.15984156645516
 Total Coulomb        Energy = 390.43337069655837
 Nuclear repulsion Energy = 130.89316690847326
 SCF   energy in the final basis set =     -578.6174045577
 Total energy in the final basis set =     -578.6174045577
 
 --------------------------------------------------------------
 
                    Orbital Energies (a.u.)
 --------------------------------------------------------------
 
 Alpha MOs
 -- Occupied --
******* -10.184 -10.182 -10.172  -9.507  -7.282  -7.259  -7.259
 -0.842  -0.777  -0.669  -0.577  -0.450  -0.435  -0.405  -0.401
 -0.356  -0.351  -0.348  -0.345  -0.337  -0.193
 -- Virtual --
  0.105   0.141   0.148   0.155   0.174   0.187   0.203   0.245
  0.279   0.333   0.397   0.411   0.441   0.512   0.524   0.571
  0.579   0.596   0.659   0.678   0.710   0.783   0.797   0.797
  0.804   0.829   0.841   0.847   0.857   0.879   0.913   0.923
  0.945   0.954   0.988   1.196   1.306   1.415   1.452   1.540
  1.675   1.725   1.829   1.853   1.904   1.977   2.027   2.056
  2.074   2.111   2.121   2.251   2.262   2.303   2.358   2.426
  2.465   2.526   2.591   2.671   2.704   2.750   2.812   2.869
  2.888   2.931   3.189   3.277   3.297   3.415   3.442   3.512
  3.549   4.160   4.243   4.409   4.624
 
 Beta MOs
 -- Occupied --
******* -10.185 -10.172 -10.169  -9.501  -7.260  -7.255  -7.255
 -0.788  -0.768  -0.652  -0.562  -0.444  -0.428  -0.395  -0.348
 -0.342  -0.334  -0.332  -0.331
 -- Virtual --
 -0.243  -0.034   0.107   0.150   0.154   0.159   0.176   0.190
  0.208   0.250   0.286   0.350   0.426   0.437   0.448   0.514
  0.527   0.573   0.584   0.632   0.670   0.696   0.722   0.814
  0.836   0.848   0.856   0.858   0.859   0.863   0.868   0.883
  0.918   0.928   0.947   0.973   0.991   1.206   1.318   1.433
  1.467   1.555   1.680   1.733   1.832   1.883   1.911   2.019
  2.033   2.056   2.075   2.116   2.125   2.257   2.271   2.305
  2.363   2.436   2.474   2.546   2.605   2.679   2.711   2.752
  2.815   2.872   2.891   2.934   3.190   3.283   3.300   3.418
  3.445   3.517   3.553   4.182   4.265   4.419   4.627
 --------------------------------------------------------------
 
          Ground-State Mulliken Net Atomic Charges

     Atom                 Charge (a.u.)    Spin (a.u.)
  --------------------------------------------------------
      1 Cl                    0.001111       1.005241
      2 C                    -0.183184      -0.075532
      3 C                    -0.214151       1.075545
      4 C                    -0.319098       0.011588
      5 H                     0.101220       0.016618
      6 H                     0.105562       0.060210
      7 H                     0.096179      -0.047601
      8 H                     0.096076      -0.047830
      9 H                     0.102488      -0.000833
     10 H                     0.098460       0.001419
     11 H                     0.115338       0.001176
  --------------------------------------------------------
  Sum of atomic charges =     0.000000
  Sum of spin   charges =     2.000000

 -----------------------------------------------------------------
                    Cartesian Multipole Moments
 -----------------------------------------------------------------
    Charge (ESU x 10^10)
                 0.0000
    Dipole Moment (Debye)
         X      -0.1855      Y       0.0590      Z      -0.0707
       Tot       0.2071
    Quadrupole Moments (Debye-Ang)
        XX     -33.5803     XY       0.0895     YY     -33.7946
        XZ       0.1638     YZ      -0.9294     ZZ     -31.2457
    Octopole Moments (Debye-Ang^2)
       XXX     -48.0246    XXY      16.8946    XYY     -14.3569
       YYY      46.8035    XXZ       4.1716    XYZ      -1.7682
       YYZ       5.3126    XZZ     -10.9285    YZZ      12.9331
       ZZZ      10.7129
    Hexadecapole Moments (Debye-Ang^3)
      XXXX    -650.2842   XXXY     155.4925   XXYY    -175.1387
      XYYY     153.3170   YYYY    -412.7751   XXXZ      47.1836
      XXYZ     -15.9563   XYYZ      19.9842   YYYZ     -45.1690
      XXZZ    -111.6080   XYZZ      44.8134   YYZZ     -80.1388
      XZZZ      37.8243   YZZZ     -32.6572   ZZZZ     -79.8016
 -----------------------------------------------------------------
 Calculating analytic gradient of the SCF energy
 Gradient of SCF Energy
            1           2           3           4           5           6
    1  -0.0005217  -0.0001159   0.0005980  -0.0003804   0.0000950   0.0000529
    2   0.0007698   0.0003039  -0.0008147  -0.0003874  -0.0000587   0.0001492
    3   0.0003152   0.0000529  -0.0002797   0.0000392   0.0000562  -0.0000933
            7           8           9          10          11
    1  -0.0000542   0.0000470   0.0001094  -0.0000075   0.0001773
    2   0.0000327  -0.0000510   0.0000630   0.0000034  -0.0000102
    3   0.0000102   0.0000019  -0.0000389   0.0000645  -0.0001283
 Max gradient component =       8.147E-04
 RMS gradient           =       2.805E-04
 Gradient time:  CPU 7.75 s  wall 0.96 s
 Geometry Optimization Parameters
   NAtoms,    NIC,     NZ,  NCons,   NDum,   NFix, NCnnct, MaxDiis
       11      66       0       1       0       0       0       0

 Cartesian Hessian Update
 Hessian Updated using BFGS Update


** CONSTRAINED OPTIMIZATION IN DELOCALIZED INTERNAL COORDINATES **
   Searching for a Minimum

   Optimization Cycle:   4

                       Coordinates (Angstroms)
     ATOM                X               Y               Z
      1  Cl        2.4003329478   -1.8597139676   -0.5122365076
      2  C        -0.9344486510    0.7405575442   -0.2776147825
      3  C         0.3574461104    1.0935541850    0.3792909818
      4  C        -1.5207660639   -0.5955803626    0.2018528752
      5  H        -0.8024717803    0.7191016226   -1.3682448881
      6  H        -1.6794073910    1.5387285442   -0.0989036978
      7  H         0.5475914038    0.8054609425    1.4089889354
      8  H         1.0507653913    1.7883080479   -0.0830344756
      9  H        -1.6759496611   -0.5859032667    1.2865326263
     10  H        -2.4858262045   -0.8005940672   -0.2722198622
     11  H        -0.8416671016   -1.4223192224   -0.0297142049
   Point Group: c1    Number of degrees of freedom:    27


   Energy is   -578.617404558

              Constraints and their Current Values
                                        Value     Constraint
   Distance(Angs):        1   3             3.700000     3.700000
 Hessian Updated using BFGS Update

 26 Hessian modes will be used to form the next step
  Hessian Eigenvalues:
     0.021869    0.115515    0.139099    0.140975    0.141239    0.219181
     0.240913    0.248972    0.253153    0.265176    0.348851    0.389656
     0.429907    0.444811    0.494554    0.495143    0.654780    0.896508
     1.003908    1.020817    1.029943    1.045270    1.055599    1.059635
     1.090126    1.094260

 Minimum Search - Taking Simple RFO Step
 Searching for Lamda that Minimizes Along All modes
 Value Taken    Lamda =   0.00000000
 Step Taken.  Stepsize is  0.003452

                             Maximum     Tolerance    Cnvgd?
         Gradient           0.000389      0.000300      NO
         Displacement       0.001568      0.001200      NO
         Energy change     -0.000013      0.000001      NO


 New Cartesian Coordinates Obtained by Inverse Iteration

 Displacement from previous Coordinates is:  0.005232
 ----------------------------------------------------------------
             Standard Nuclear Orientation (Angstroms)
    I     Atom           X                Y                Z
 ----------------------------------------------------------------
    1      Cl      2.3988648640    -1.8604535281    -0.5117800467
    2      C      -0.9341947849     0.7404807134    -0.2775460576
    3      C       0.3575812961     1.0940801804     0.3792264834
    4      C      -1.5203009641    -0.5957081780     0.2016855424
    5      H      -0.8024889021     0.7194028183    -1.3682407740
    6      H      -1.6795695243     1.5381244698    -0.0983909569
    7      H       0.5482095984     0.8057631956     1.4087740235
    8      H       1.0502622023     1.7895250780    -0.0830169794
    9      H      -1.6758162926    -0.5861107841     1.2863372395
   10      H      -2.4852520046    -0.8005260927    -0.2727168789
   11      H      -0.8416964882    -1.4229778727    -0.0296345953
 ----------------------------------------------------------------
 Nuclear Repulsion Energy =   130.9037278813 hartrees
 There are       22 alpha and       20 beta electrons

                       Distance Matrix (Angstroms)
             Cl(  1)   C (  2)   C (  3)   C (  4)   H (  5)   H (  6)
   C (  2)  4.234266
   C (  3)  3.700000  1.491666
   C (  4)  4.179530  1.535768  2.532459
   H (  5)  4.199744  1.098820  2.130678  2.170124
   H (  6)  5.324927  1.106307  2.138990  2.160707  1.747024
   H (  7)  3.771229  2.246210  1.086017  2.774873  3.089281  2.787633
   H (  8)  3.914704  2.253088  1.084951  3.518265  2.495926  2.741427
   H (  9)  4.632516  2.180729  2.789372  1.095786  3.084453  2.535717
   H ( 10)  5.003518  2.186436  3.477968  1.094595  2.518342  2.479677
   H ( 11)  3.305312  2.179580  2.817981  1.094709  2.526499  3.078130
             H (  7)   H (  8)   H (  9)   H ( 10)
   H (  8)  1.856148
   H (  9)  2.626518  3.866559
   H ( 10)  3.822233  4.386823  1.769692
   H ( 11)  2.994686  3.728610  1.768583  1.774207
 
 Applying Cartesian multipole field
    Component          Value
    ---------          -----
     (2,0,0)        1.00000E-11
     (0,2,0)        2.00000E-11
     (0,0,2)       -3.00000E-10
 Nucleus-field energy     =    -0.0000000019 hartrees
 Requested basis set is 6-31G(d,p)
 There are 38 shells and 99 basis functions
 A cutoff of  1.0D-14 yielded    698 shell pairs
 There are      4802 function pairs
 Smallest overlap matrix eigenvalue = 6.24E-03
 Guess from superposition of atomic densities
 Warning:  Energy on first SCF cycle will be non-variational
 SAD guess density has 42.000000 electrons

 -----------------------------------------------------------------------
  General SCF calculation program by
  Eric Jon Sundstrom, Paul Horn, Yuezhi Mao, Dmitri Zuev, Alec White,
  David Stuck, Shaama M.S., Shane Yost, Joonho Lee, David Small,
  Daniel Levine, Susi Lehtola, Hugh Burton, Evgeny Epifanovsky
 -----------------------------------------------------------------------
 Exchange:     0.2000 Hartree-Fock + 0.0800 Slater + 0.7200 B88
 Correlation:  0.1900 VWN1RPA + 0.8100 LYP
 Using SG-1 standard quadrature grid
 using 12 threads for integral computing
 -------------------------------------------------------
 OpenMP Integral computing Module                
 Release: version 1.0, May 2013, Q-Chem Inc. Pittsburgh 
 -------------------------------------------------------
 -------------------------------------------------------
 OpenMP BLAS3 based DFT computing Module                
 Release: version 1.0, May 2013, Q-Chem Inc. Pittsburgh 
 -------------------------------------------------------
 A unrestricted SCF calculation will be
 performed using DIIS
 SCF converges when DIIS error is below 1.0e-06
 Alpha HF Exchange    Energy =  -4.53872301077504
 Beta HF Exchange     Energy =  -4.53872301077504
 DFT Correlation      Energy =  -1.88475114731363
 DFT Exchange         Energy = -35.69496578090329
 One-Electron (alpha) Energy = -524.80542470847138
 One-Electron (beta)  Energy = -524.80542470847138
 Total Coulomb        Energy = 386.54820072996802
 ---------------------------------------
  Cycle       Energy         DIIS error
 ---------------------------------------
    1    -578.8160837573      2.82e-02  
 Alpha HF Exchange    Energy =  -4.67588294182224
 Beta HF Exchange     Energy =  -4.47844198973524
 DFT Correlation      Energy =  -1.90265866850306
 DFT Exchange         Energy = -36.29264109772978
 One-Electron (alpha) Energy = -539.98928276030426
 One-Electron (beta)  Energy = -515.75830313881045
 Total Coulomb        Energy = 393.66054901308667
    2    -578.5329337044      3.87e-03  
 Alpha HF Exchange    Energy =  -4.62413431734053
 Beta HF Exchange     Energy =  -4.43104445818870
 DFT Correlation      Energy =  -1.87547860804873
 DFT Exchange         Energy = -35.88779881005970
[...]
   10      H      -2.4834231556    -0.8000783807    -0.2741832214
   11      H      -0.8417492788    -1.4244049226    -0.0290746682
 ----------------------------------------------------------------
 Nuclear Repulsion Energy =   130.9416466263 hartrees
 There are       22 alpha and       20 beta electrons

                       Distance Matrix (Angstroms)
             Cl(  1)   C (  2)   C (  3)   C (  4)   H (  5)   H (  6)
   C (  2)  4.230919
   C (  3)  3.700000  1.491610
   C (  4)  4.174459  1.535128  2.532785
   H (  5)  4.198158  1.098911  2.131073  2.170106
   H (  6)  5.321810  1.106209  2.138834  2.158325  1.747019
   H (  7)  3.769510  2.246412  1.086030  2.775526  3.089735  2.787775
   H (  8)  3.919308  2.252781  1.084955  3.518613  2.496179  2.740880
   H (  9)  4.628744  2.180619  2.790688  1.095869  3.084727  2.532959
   H ( 10)  4.997888  2.185138  3.477639  1.094658  2.516817  2.476321
   H ( 11)  3.301119  2.180439  2.820669  1.094556  2.528660  3.077232
             H (  7)   H (  8)   H (  9)   H ( 10)
   H (  8)  1.856154
   H (  9)  2.628716  3.867697
   H ( 10)  3.822795  4.386063  1.769622
   H ( 11)  2.996656  3.732321  1.768371  1.773402
 
 Applying Cartesian multipole field
    Component          Value
    ---------          -----
     (2,0,0)        1.00000E-11
     (0,2,0)        2.00000E-11
     (0,0,2)       -3.00000E-10
 Nucleus-field energy     =    -0.0000000019 hartrees
 Requested basis set is 6-31G(d,p)
 There are 38 shells and 99 basis functions
 A cutoff of  1.0D-14 yielded    698 shell pairs
 There are      4802 function pairs
 Smallest overlap matrix eigenvalue = 6.24E-03
 Guess from superposition of atomic densities
 Warning:  Energy on first SCF cycle will be non-variational
 SAD guess density has 42.000000 electrons

 -----------------------------------------------------------------------
  General SCF calculation program by
  Eric Jon Sundstrom, Paul Horn, Yuezhi Mao, Dmitri Zuev, Alec White,
  David Stuck, Shaama M.S., Shane Yost, Joonho Lee, David Small,
  Daniel Levine, Susi Lehtola, Hugh Burton, Evgeny Epifanovsky
 -----------------------------------------------------------------------
 Exchange:     0.2000 Hartree-Fock + 0.0800 Slater + 0.7200 B88
 Correlation:  0.1900 VWN1RPA + 0.8100 LYP
 Using SG-1 standard quadrature grid
 using 12 threads for integral computing
 -------------------------------------------------------
 OpenMP Integral computing Module                
 Release: version 1.0, May 2013, Q-Chem Inc. Pittsburgh 
 -------------------------------------------------------
 -------------------------------------------------------
 OpenMP BLAS3 based DFT computing Module                
 Release: version 1.0, May 2013, Q-Chem Inc. Pittsburgh 
 -------------------------------------------------------
 A unrestricted SCF calculation will be
 performed using DIIS
 SCF converges when DIIS error is below 1.0e-06
 Alpha HF Exchange    Energy =  -4.53879845135051
 Beta HF Exchange     Energy =  -4.53879845135051
 DFT Correlation      Energy =  -1.88477216933094
 DFT Exchange         Energy = -35.69511226472846
 One-Electron (alpha) Energy = -524.84307015878551
 One-Electron (beta)  Energy = -524.84307015878551
 Total Coulomb        Energy = 386.58519009077213
 ---------------------------------------
  Cycle       Energy         DIIS error
 ---------------------------------------
    1    -578.8167849392      2.82e-02  
 Alpha HF Exchange    Energy =  -4.67591702916426
 Beta HF Exchange     Energy =  -4.47847396823321
 DFT Correlation      Energy =  -1.90268456559855
 DFT Exchange         Energy = -36.29288934006492
 One-Electron (alpha) Energy = -540.02857376340660
 One-Electron (beta)  Energy = -515.79614431411426
 Total Coulomb        Energy = 393.70016141900447
    2    -578.5328749372      3.87e-03  
 Alpha HF Exchange    Energy =  -4.62415188884009
 Beta HF Exchange     Energy =  -4.43101542820786
 DFT Correlation      Energy =  -1.87549682754472
 DFT Exchange         Energy = -35.88779957057159
 One-Electron (alpha) Energy = -537.02897806448993
 One-Electron (beta)  Energy = -514.61047842863320
 Total Coulomb        Energy = 389.41455542152448
    3    -578.1017181624      7.33e-03  
 Alpha HF Exchange    Energy =  -4.64066723593305
 Beta HF Exchange     Energy =  -4.44712328594078
 DFT Correlation      Energy =  -1.88711160591115
 DFT Exchange         Energy = -36.01334498100256
 One-Electron (alpha) Energy = -538.01760266236101
 One-Electron (beta)  Energy = -513.75498039494175
 Total Coulomb        Energy = 389.22432728082248
    4    -578.5948562609      1.89e-03  
 Alpha HF Exchange    Energy =  -4.65169654837211
 Beta HF Exchange     Energy =  -4.45460340127088
 DFT Correlation      Energy =  -1.88975816358935
 DFT Exchange         Energy = -36.08607924381380
 One-Electron (alpha) Energy = -538.68868626017661
 One-Electron (beta)  Energy = -514.24419533036632
 Total Coulomb        Energy = 390.46075393567480
    5    -578.6126183875      8.47e-04  
 Alpha HF Exchange    Energy =  -4.65191610284948
 Beta HF Exchange     Energy =  -4.45435419818457
 DFT Correlation      Energy =  -1.88899519278102
 DFT Exchange         Energy = -36.08451143810719
 One-Electron (alpha) Energy = -538.74133765057911
 One-Electron (beta)  Energy = -514.22384100847330
 Total Coulomb        Energy = 390.48661786982706
    6    -578.6166910968      3.44e-04  
 Alpha HF Exchange    Energy =  -4.65178174160151
 Beta HF Exchange     Energy =  -4.45375626184152
 DFT Correlation      Energy =  -1.88865427977169
 DFT Exchange         Energy = -36.08117081291589
 One-Electron (alpha) Energy = -538.73147790482528
 One-Electron (beta)  Energy = -514.19098250270031
 Total Coulomb        Energy = 390.43884303303753
    7    -578.6173338462      1.06e-04  
 Alpha HF Exchange    Energy =  -4.65206053709028
 Beta HF Exchange     Energy =  -4.45399032587132
 DFT Correlation      Energy =  -1.88864890594493
 DFT Exchange         Energy = -36.08308286000576
 One-Electron (alpha) Energy = -538.75857022251444
 One-Electron (beta)  Energy = -514.20833807337692
 Total Coulomb        Energy = 390.48563662464716
    8    -578.6174076758      1.89e-05  
 Alpha HF Exchange    Energy =  -4.65201926617316
 Beta HF Exchange     Energy =  -4.45397435046964
 DFT Correlation      Energy =  -1.88862537692279
 DFT Exchange         Energy = -36.08284141076510
 One-Electron (alpha) Energy = -538.75572712057908
 One-Electron (beta)  Energy = -514.20640912303566
 Total Coulomb        Energy = 390.48054017309425
    9    -578.6174098505      5.25e-06  
 Alpha HF Exchange    Energy =  -4.65202393727205
 Beta HF Exchange     Energy =  -4.45397491368844
 DFT Correlation      Energy =  -1.88862594762990
 DFT Exchange         Energy = -36.08286394944562
 One-Electron (alpha) Energy = -538.75606924196779
 One-Electron (beta)  Energy = -514.20690154735280
 Total Coulomb        Energy = 390.48140283593403
   10    -578.6174100770      2.05e-06  
 Alpha HF Exchange    Energy =  -4.65202302115377
 Beta HF Exchange     Energy =  -4.45397919629210
 DFT Correlation      Energy =  -1.88862628569038
 DFT Exchange         Energy = -36.08287787271843
 One-Electron (alpha) Energy = -538.75614076279544
 One-Electron (beta)  Energy = -514.20727123615188
 Total Coulomb        Energy = 390.48186155739637
   11    -578.6174101930      1.04e-06  
 Alpha HF Exchange    Energy =  -4.65202187349955
 Beta HF Exchange     Energy =  -4.45397956115394
 DFT Correlation      Energy =  -1.88862625150237
 DFT Exchange         Energy = -36.08287530905577
 One-Electron (alpha) Energy = -538.75603114438763
 One-Electron (beta)  Energy = -514.20732981249341
 Total Coulomb        Energy = 390.48180701642832
   12    -578.6174103113      1.02e-06  
 Alpha HF Exchange    Energy =  -4.65202163477765
 Beta HF Exchange     Energy =  -4.45397966436000
 DFT Correlation      Energy =  -1.88862625263318
 DFT Exchange         Energy = -36.08287499651819
 One-Electron (alpha) Energy = -538.75600618587282
 One-Electron (beta)  Energy = -514.20734734633299
 Total Coulomb        Energy = 390.48179906364601
   13    -578.6174103925      1.03e-06  
 Alpha HF Exchange    Energy =  -4.65202180878735
 Beta HF Exchange     Energy =  -4.45397980019416
 DFT Correlation      Energy =  -1.88862630659774
 DFT Exchange         Energy = -36.08287570955278
 One-Electron (alpha) Energy = -538.75602636223846
 One-Electron (beta)  Energy = -514.20733708043770
 Total Coulomb        Energy = 390.48181030152773
   14    -578.6174101419      1.01e-06  
 Alpha HF Exchange    Energy =  -4.65202210384147
 Beta HF Exchange     Energy =  -4.45398546680627
 DFT Correlation      Energy =  -1.88862667319131
 DFT Exchange         Energy = -36.08289148227556
 One-Electron (alpha) Energy = -538.75608010127655
 One-Electron (beta)  Energy = -514.20742827452113
 Total Coulomb        Energy = 390.48198047398762
   15    -578.6174070035      9.75e-07  Convergence criterion met
 ---------------------------------------
 SCF time:   CPU 33.04s  wall 3.00s 
<S^2> =          2.005557782
 Alpha HF Exchange    Energy =  -4.65202210384147
 Beta HF Exchange     Energy =  -4.45398546680627
 DFT Correlation      Energy =  -1.88862667319131
 DFT Exchange         Energy = -36.08289148227556
 One-Electron (alpha) Energy = -538.75608010127655
 One-Electron (beta)  Energy = -514.20742827452113
 Total Coulomb        Energy = 390.48198047398762
 Nuclear repulsion Energy = 130.94164662437620
 SCF   energy in the final basis set =     -578.6174070035
 Total energy in the final basis set =     -578.6174070035
 
 --------------------------------------------------------------
 
                    Orbital Energies (a.u.)
 --------------------------------------------------------------
 
 Alpha MOs
 -- Occupied --
******* -10.184 -10.182 -10.172  -9.507  -7.282  -7.259  -7.259
 -0.842  -0.777  -0.669  -0.577  -0.450  -0.435  -0.405  -0.401
 -0.356  -0.351  -0.348  -0.345  -0.337  -0.193
 -- Virtual --
  0.105   0.141   0.148   0.155   0.174   0.187   0.203   0.245
  0.280   0.333   0.397   0.411   0.441   0.512   0.524   0.571
  0.580   0.596   0.659   0.678   0.710   0.783   0.797   0.797
  0.805   0.828   0.840   0.847   0.857   0.879   0.913   0.923
  0.945   0.954   0.988   1.196   1.306   1.416   1.452   1.540
  1.675   1.725   1.830   1.854   1.904   1.977   2.027   2.056
  2.074   2.111   2.122   2.251   2.262   2.303   2.358   2.425
  2.465   2.526   2.591   2.671   2.704   2.751   2.811   2.869
  2.888   2.931   3.189   3.277   3.297   3.416   3.442   3.512
  3.550   4.160   4.243   4.409   4.624
 
 Beta MOs
 -- Occupied --
******* -10.185 -10.171 -10.169  -9.501  -7.260  -7.255  -7.255
 -0.788  -0.768  -0.652  -0.562  -0.444  -0.428  -0.396  -0.348
 -0.342  -0.335  -0.332  -0.331
 -- Virtual --
 -0.243  -0.034   0.107   0.150   0.154   0.159   0.176   0.190
  0.208   0.250   0.286   0.350   0.426   0.437   0.448   0.514
  0.527   0.573   0.584   0.632   0.671   0.696   0.722   0.814
  0.836   0.848   0.856   0.858   0.859   0.863   0.868   0.883
  0.918   0.928   0.948   0.973   0.991   1.206   1.318   1.433
  1.466   1.555   1.680   1.733   1.832   1.883   1.911   2.019
  2.033   2.056   2.075   2.116   2.125   2.256   2.271   2.305
  2.363   2.436   2.474   2.547   2.605   2.679   2.711   2.753
  2.815   2.873   2.891   2.934   3.190   3.283   3.301   3.419
  3.445   3.517   3.553   4.182   4.265   4.419   4.628
 --------------------------------------------------------------
 
          Ground-State Mulliken Net Atomic Charges

     Atom                 Charge (a.u.)    Spin (a.u.)
  --------------------------------------------------------
      1 Cl                    0.001129       1.005238
      2 C                    -0.183089      -0.075575
      3 C                    -0.214102       1.075508
      4 C                    -0.319097       0.011555
      5 H                     0.101184       0.016674
      6 H                     0.105620       0.060330
      7 H                     0.096172      -0.047607
      8 H                     0.096045      -0.047830
      9 H                     0.102438      -0.000830
     10 H                     0.098403       0.001365
     11 H                     0.115296       0.001173
  --------------------------------------------------------
  Sum of atomic charges =     0.000000
  Sum of spin   charges =     2.000000

 -----------------------------------------------------------------
                    Cartesian Multipole Moments
 -----------------------------------------------------------------
    Charge (ESU x 10^10)
                 0.0000
    Dipole Moment (Debye)
         X      -0.1870      Y       0.0587      Z      -0.0703
       Tot       0.2082
    Quadrupole Moments (Debye-Ang)
        XX     -33.5826     XY       0.0891     YY     -33.7932
        XZ       0.1678     YZ      -0.9268     ZZ     -31.2425
    Octopole Moments (Debye-Ang^2)
       XXX     -47.8584    XXY      16.9241    XYY     -14.3011
       YYY      46.9039    XXZ       4.1676    XYZ      -1.7569
       YYZ       5.2908    XZZ     -10.8820    YZZ      12.9481
       ZZZ      10.6732
    Hexadecapole Moments (Debye-Ang^3)
      XXXX    -647.8629   XXXY     155.2456   XXYY    -174.9207
      XYYY     153.1849   YYYY    -413.8098   XXXZ      46.9429
      XXYZ     -15.9190   XYYZ      19.8663   YYYZ     -45.1544
      XXZZ    -111.2123   XYZZ      44.7296   YYZZ     -80.2440
      XZZZ      37.6039   YZZZ     -32.6439   ZZZZ     -79.6917
 -----------------------------------------------------------------
 Calculating analytic gradient of the SCF energy
 Gradient of SCF Energy
            1           2           3           4           5           6
    1  -0.0005353  -0.0001274   0.0005556  -0.0000470   0.0000608   0.0000169
    2   0.0007718   0.0001172  -0.0007848   0.0000638  -0.0000329  -0.0000656
    3   0.0003170   0.0000599  -0.0002453  -0.0000353  -0.0000299  -0.0000149
            7           8           9          10          11
    1  -0.0000241   0.0000305   0.0000832   0.0000267  -0.0000399
    2   0.0000411  -0.0000465   0.0000149   0.0000103  -0.0000893
    3   0.0000271  -0.0000077   0.0000176  -0.0000150  -0.0000736
 Max gradient component =       7.848E-04
 RMS gradient           =       2.492E-04
 Gradient time:  CPU 7.18 s  wall 0.89 s
 Geometry Optimization Parameters
   NAtoms,    NIC,     NZ,  NCons,   NDum,   NFix, NCnnct, MaxDiis
       11      66       0       1       0       0       0       0

 Cartesian Hessian Update
 Hessian Updated using BFGS Update


** CONSTRAINED OPTIMIZATION IN DELOCALIZED INTERNAL COORDINATES **
   Searching for a Minimum

   Optimization Cycle:   6

                       Coordinates (Angstroms)
     ATOM                X               Y               Z
      1  Cl        2.3944746669   -1.8625845207   -0.5109857404
      2  C        -0.9331728375    0.7399022719   -0.2775340838
      3  C         0.3580140016    1.0955305901    0.3791735856
      4  C        -1.5188428970   -0.5958576561    0.2013739787
      5  H        -0.8022947555    0.7200430364   -1.3684428944
      6  H        -1.6801396950    1.5356332995   -0.0971139986
      7  H         0.5500765646    0.8064769937    1.4082611897
      8  H         1.0485566984    1.7933721567   -0.0826660205
      9  H        -1.6759003122   -0.5864328683    1.2858888733
     10  H        -2.4834231556   -0.8000783807   -0.2741832214
     11  H        -0.8417492788   -1.4244049226   -0.0290746682
   Point Group: c1    Number of degrees of freedom:    27


   Energy is   -578.617407004

              Constraints and their Current Values
                                        Value     Constraint
   Distance(Angs):        1   3             3.700000     3.700000
 Hessian Updated using BFGS Update

 26 Hessian modes will be used to form the next step
  Hessian Eigenvalues:
     0.013879    0.067816    0.137411    0.139506    0.141170    0.166454
     0.236287    0.249983    0.253657    0.277027    0.342539    0.383302
     0.411715    0.442251    0.491144    0.494613    0.650438    0.772627
     0.993539    1.022338    1.029178    1.045440    1.054906    1.059722
     1.090136    1.094277

 Minimum Search - Taking Simple RFO Step
 Searching for Lamda that Minimizes Along All modes
 Value Taken    Lamda =   0.00000000
 Step Taken.  Stepsize is  0.001968

                             Maximum     Tolerance    Cnvgd?
         Gradient           0.000084      0.000300     YES
         Displacement       0.000838      0.001200     YES
         Energy change     -0.000002      0.000001      NO


                       Distance Matrix (Angstroms)
             Cl(  1)   C (  2)   C (  3)   C (  4)   H (  5)   H (  6)
   C (  2)  4.230919
   C (  3)  3.700000  1.491610
   C (  4)  4.174459  1.535128  2.532785
   H (  5)  4.198158  1.098911  2.131073  2.170106
   H (  6)  5.321810  1.106209  2.138834  2.158325  1.747019
   H (  7)  3.769510  2.246412  1.086030  2.775526  3.089735  2.787775
   H (  8)  3.919308  2.252781  1.084955  3.518613  2.496179  2.740880
   H (  9)  4.628744  2.180619  2.790688  1.095869  3.084727  2.532959
   H ( 10)  4.997888  2.185138  3.477639  1.094658  2.516817  2.476321
   H ( 11)  3.301119  2.180439  2.820669  1.094556  2.528660  3.077232
             H (  7)   H (  8)   H (  9)   H ( 10)
   H (  8)  1.856154
   H (  9)  2.628716  3.867697
   H ( 10)  3.822795  4.386063  1.769622
   H ( 11)  2.996656  3.732321  1.768371  1.773402
 
 Final energy is   -578.617407003549     


 ******************************
 **  OPTIMIZATION CONVERGED  **
 ******************************

                       Coordinates (Angstroms)
     ATOM                X               Y               Z
      1  Cl        2.3944746669   -1.8625845207   -0.5109857404
      2  C        -0.9331728375    0.7399022719   -0.2775340838
      3  C         0.3580140016    1.0955305901    0.3791735856
      4  C        -1.5188428970   -0.5958576561    0.2013739787
      5  H        -0.8022947555    0.7200430364   -1.3684428944
      6  H        -1.6801396950    1.5356332995   -0.0971139986
      7  H         0.5500765646    0.8064769937    1.4082611897
      8  H         1.0485566984    1.7933721567   -0.0826660205
      9  H        -1.6759003122   -0.5864328683    1.2858888733
     10  H        -2.4834231556   -0.8000783807   -0.2741832214
     11  H        -0.8417492788   -1.4244049226   -0.0290746682

Z-matrix Print:
$molecule
0 3
Cl
H  1 3.301119
C  2 1.094556 1 137.531943
H  3 1.094658 2 108.204255 1 148.218314 0
H  3 1.095869 2 107.669512 1 -95.549775 0
C  3 1.535128 2 110.914680 1 25.892347 0
H  6 1.098911 3 109.840758 2 61.629020 0
H  6 1.106209 3 108.506649 2 175.646996 0
C  6 1.491610 3 113.600467 2 -61.744270 0
H  9 1.084955 6 121.123857 3 158.198438 0
H  9 1.086030 6 120.451759 3 -32.983345 0
$end

PES scan, value:    3.7000 energy: -578.6174070035
------- Summary of potential scan: ------ 
    3.7000      -578.6174070035
----------------------------------------- 
Archival summary:
1\1\hpc0332\JobtypUnspecified\ProcedureUnspecified\6-31G**\l137(3)\knomura\MonMar1120:36:082019MonMar1120:36:082019\0\\#,JobtypUnspecified,ProcedureUnspecified,6-31G**,\\0,3\Cl\H,1,3.30112\C,2,1.09456,1,137.532\H,3,1.09466,2,108.204,1,148.218,0\H,3,1.09587,2,107.67,1,-95.5498,0\C,3,1.53513,2,110.915,1,25.8923,0\H,6,1.09891,3,109.841,2,61.629,0\H,6,1.10621,3,108.507,2,175.647,0\C,6,1.49161,3,113.6,2,-61.7443,0\H,9,1.08496,6,121.124,3,158.198,0\H,9,1.08603,6,120.452,3,-32.9833,0\\\@

 Total job time:  25.09s(wall), 256.72s(cpu) 
 Mon Mar 11 20:36:08 2019

        *************************************************************
        *                                                           *
        *  Thank you very much for using Q-Chem.  Have a nice day.  *
        *                                                           *
        *************************************************************


