
Running Job 1 of 1 halogens/Flourine/03/F_2_4.xyz.data/inputs/bond_singlet_0.8.in
qchem halogens/Flourine/03/F_2_4.xyz.data/inputs/bond_singlet_0.8.in_3691.0 /staging/scratch/2868761/qchem3691/ 1
/usr/usc/qchem/5.1.1/exe/qcprog.exe_s halogens/Flourine/03/F_2_4.xyz.data/inputs/bond_singlet_0.8.in_3691.0 /staging/scratch/2868761/qchem3691/
Check license passed

                  Welcome to Q-Chem
     A Quantum Leap Into The Future Of Chemistry


 Q-Chem 5.1, Q-Chem, Inc., Pleasanton, CA (2018)

 Yihan Shao,  Zhengting Gan,  E. Epifanovsky,  A. T. B. Gilbert,  M. Wormit,  
 J. Kussmann,  A. W. Lange,  A. Behn,  Jia Deng,  Xintian Feng,  D. Ghosh,  
 M. Goldey,  P. R. Horn,  L. D. Jacobson,  I. Kaliman,  T. Kus,  A. Landau,  
 Jie Liu,  E. I. Proynov,  R. M. Richard,  R. P. Steele,  E. J. Sundstrom,  
 H. L. Woodcock III,  P. M. Zimmerman,  D. Zuev,  B. Albrecht,  E. Alguire,  
 S. A. Baeppler,  D. Barton,  Z. Benda,  Y. A. Bernard,  E. J. Berquist,  
 K. B. Bravaya,  H. Burton,  D. Casanova,  Chun-Min Chang,  Yunqing Chen,  
 A. Chien,  K. D. Closser,  M. P. Coons,  S. Coriani,  S. Dasgupta,  
 A. L. Dempwolff,  M. Diedenhofen,  Hainam Do,  R. G. Edgar,  Po-Tung Fang,  
 S. Faraji,  S. Fatehi,  Qingguo Feng,  K. D. Fenk,  J. Fosso-Tande,  
 Qinghui Ge,  A. Ghysels,  G. Gidofalvi,  J. Gomes,  J. Gonthier,  A. Gunina,  
 D. Hait,  M. W. D. Hanson-Heine,  P. H. P. Harbach,  A. W. Hauser,  
 J. E. Herr,  E. G. Hohenstein,  Z. C. Holden,  Kerwin Hui,  B. C. Huynh,  
 T.-C. Jagau,  Hyunjun Ji,  B. Kaduk,  K. Khistyaev,  Jaehoon Kim,  
 P. Klunzinger,  K. Koh,  D. Kosenkov,  L. Koulias,  T. Kowalczyk,  
 C. M. Krauter,  A. Kunitsa,  Ka Un Lao,  A. Laurent,  K. V. Lawler,  
 Joonho Lee,  D. Lefrancois,  S. Lehtola,  D. S. Levine,  Yi-Pei Li,  
 You-Sheng Lin,  Fenglai Liu,  E. Livshits,  A. Luenser,  P. Manohar,  
 E. Mansoor,  S. F. Manzer,  Shan-Ping Mao,  Yuezhi Mao,  N. Mardirossian,  
 A. V. Marenich,  T. Markovich,  L. A. Martinez-Martinez,  S. A. Maurer,  
 N. J. Mayhall,  S. C. McKenzie,  J.-M. Mewes,  A. F. Morrison,  
 J. W. Mullinax,  K. Nanda,  T. S. Nguyen-Beck,  R. Olivares-Amaya,  
 J. A. Parkhill,  T. M. Perrine,  F. Plasser,  P. Pokhilko,  S. Prager,  
 A. Prociuk,  E. Ramos,  D. R. Rehn,  F. Rob,  M. Schneider,  N. Sergueev,  
 S. M. Sharada,  S. Sharma,  D. W. Small,  T. Stauch,  T. Stein,  
 Yu-Chuan Su,  A. J. W. Thom,  A. Tkatchenko,  T. Tsuchimochi,  N. M. Tubman,  
 L. Vogt,  M. L. Vidal,  O. Vydrov,  M. A. Watson,  J. Wenzel,  
 M. de Wergifosse,  T. A. Wesolowski,  A. White,  J. Witte,  A. Yamada,  
 Jun Yang,  K. Yao,  S. Yeganeh,  S. R. Yost,  Zhi-Qiang You,  A. Zech,  
 Igor Ying Zhang,  Xing Zhang,  Yan Zhao,  Ying Zhu,  B. R. Brooks,  
 G. K. L. Chan,  C. J. Cramer,  M. S. Gordon,  W. J. Hehre,  A. Klamt,  
 M. W. Schmidt,  C. D. Sherrill,  D. G. Truhlar,  A. Aspuru-Guzik,  R. Baer,  
 A. T. Bell,  N. A. Besley,  Jeng-Da Chai,  A. E. DePrince, III,  
 R. A. DiStasio Jr.,  A. Dreuw,  B. D. Dunietz,  T. R. Furlani,  
 Chao-Ping Hsu,  Yousung Jung,  Jing Kong,  D. S. Lambrecht,  WanZhen Liang,  
 C. Ochsenfeld,  V. A. Rassolov,  L. V. Slipchenko,  J. E. Subotnik,  
 T. Van Voorhis,  J. M. Herbert,  A. I. Krylov,  P. M. W. Gill,  M. Head-Gordon

 Contributors to earlier versions of Q-Chem not listed above: 
 R. D. Adamson,  B. Austin,  J. Baker,  G. J. O. Beran,  K. Brandhorst,  
 S. T. Brown,  E. F. C. Byrd,  A. K. Chakraborty,  C.-L. Cheng,  
 Siu Hung Chien,  D. M. Chipman,  D. L. Crittenden,  H. Dachsel,  
 R. J. Doerksen,  A. D. Dutoi,  L. Fusti-Molnar,  W. A. Goddard III,  
 A. Golubeva-Zadorozhnaya,  S. R. Gwaltney,  G. Hawkins,  A. Heyden,  
 S. Hirata,  G. Kedziora,  F. J. Keil,  C. Kelley,  Jihan Kim,  R. A. King,  
 R. Z. Khaliullin,  P. P. Korambath,  W. Kurlancheek,  A. M. Lee,  M. S. Lee,  
 S. V. Levchenko,  Ching Yeh Lin,  D. Liotard,  R. C. Lochan,  I. Lotan,  
 P. E. Maslen,  N. Nair,  D. P. O'Neill,  D. Neuhauser,  E. Neuscamman,  
 C. M. Oana,  R. Olson,  B. Peters,  R. Peverati,  P. A. Pieniazek,  
 Y. M. Rhee,  J. Ritchie,  M. A. Rohrdanz,  E. Rosta,  N. J. Russ,  
 H. F. Schaefer III,  N. E. Schultz,  N. Shenvi,  A. C. Simmonett,  A. Sodt,  
 D. Stuck,  K. S. Thanthiriwatte,  V. Vanovschi,  Tao Wang,  A. Warshel,  
 C. F. Williams,  Q. Wu,  X. Xu,  W. Zhang

 Please cite Q-Chem as follows:
 Y. Shao et al., Mol. Phys. 113, 184-215 (2015)
 DOI: 10.1080/00268976.2014.952696

 Q-Chem 5.1.1 for Intel X86 EM64T Linux

 Parts of Q-Chem use Armadillo 8.300.2 (Tropical Shenanigans).
 http://arma.sourceforge.net/

 Q-Chem begins on Wed Mar 13 18:19:03 2019  

Host: 
0

     Scratch files written to /staging/scratch/2868761/qchem3691//
 Aug318 |scratch|qcdevops|jenkins|workspace|build_RNUM 6013   
Processing $rem in /usr/usc/qchem/5.1.1/config/preferences.
 MEM_TOTAL  2000 
Input Ideriv = 2
Curr. Ideriv = -1
Max.  Ideriv = 2

Checking the input file for inconsistencies... 	...done.

--------------------------------------------------------------
User input:
--------------------------------------------------------------

$comment
potential surface scanner
$end

$rem
JOBTYPE  PES_SCAN
UNRESTRICTED TRUE
SYM_IGNORE  TRUE
GEOM_OPT_MAX_CYCLES 400
SCF_MAX_CYCLES 400
METHOD   B3LYP
BASIS   6-31G**
PDB_PRINT 2
SCF_CONVERGENCE 6
THRESH 14
SCF_PRINT 1
$end
$molecule
0 1
F -0.486400 -1.298900 0.159500
F 1.889200 0.001700 -0.126500
C -0.435600 -0.028600 -0.332400
C 0.768200 0.660400 0.276200
C -1.735300 0.665500 0.023300
H -0.320900 -0.108600 -1.417700
H 0.851700 1.700600 -0.050500
H 0.742100 0.621000 1.368800
H -1.880200 0.688200 1.108400
H -1.756200 1.691300 -0.356400
H -2.582900 0.117800 -0.401000
$end
$scan
stre 2 4 0.800000 0.801000 0.100000
$end
--------------------------------------------------------------
 ----------------------------------------------------------------
             Standard Nuclear Orientation (Angstroms)
    I     Atom           X                Y                Z
 ----------------------------------------------------------------
    1      F      -0.4864000000    -1.2989000000     0.1595000000
    2      F       1.8892000000     0.0017000000    -0.1265000000
    3      C      -0.4356000000    -0.0286000000    -0.3324000000
    4      C       0.7682000000     0.6604000000     0.2762000000
    5      C      -1.7353000000     0.6655000000     0.0233000000
    6      H      -0.3209000000    -0.1086000000    -1.4177000000
    7      H       0.8517000000     1.7006000000    -0.0505000000
    8      H       0.7421000000     0.6210000000     1.3688000000
    9      H      -1.8802000000     0.6882000000     1.1084000000
   10      H      -1.7562000000     1.6913000000    -0.3564000000
   11      H      -2.5829000000     0.1178000000    -0.4010000000
 ----------------------------------------------------------------
 Nuclear Repulsion Energy =   192.1347219537 hartrees
 There are       21 alpha and       21 beta electrons
 Requested basis set is 6-31G(d,p)
 There are 38 shells and 105 basis functions

 Total QAlloc Memory Limit   2000 MB
 Mega-Array Size       188 MB
 MEM_STATIC part       192 MB
A total of 1 constraints
  
            1
    1   1.0100000
    2   2.0100000
    3   4.0100000
    4   0.8000000
    5   0.8010000
    6   0.1000000
    7   0.0000000
    8   0.0000000
    9   0.0000000
   10   0.0000000

                       Distance Matrix (Angstroms)
             F (  1)   F (  2)   C (  3)   C (  4)   C (  5)   H (  6)
   F (  2)  2.723386
   C (  3)  1.363161  2.334097
   C (  4)  2.329484  1.361137  1.514678
   C (  5)  2.331774  3.687827  1.515756  2.516247
   H (  6)  1.982868  2.562012  1.094272  2.155643  2.162461
   H (  7)  3.291141  1.992095  2.174107  1.093490  2.787373  2.552926
   H (  8)  2.580239  1.983757  2.168649  1.093622  2.819550  3.070320
   H (  9)  2.606081  4.025498  2.162539  2.776212  1.094967  3.073677
   H ( 10)  3.289353  4.024493  2.168552  2.799202  1.094018  2.534972
   H ( 11)  2.591623  4.482021  2.153378  3.461631  1.094729  2.490297
             H (  7)   H (  8)   H (  9)   H ( 10)
   H (  8)  1.786606
   H (  9)  3.135487  2.636054
   H ( 10)  2.625796  3.219217  1.779670
   H ( 11)  3.797971  3.800135  1.759952  1.778011
 
 A cutoff of  1.0D-14 yielded    720 shell pairs
 There are      5627 function pairs
 
 -------------------------------------------------------
 OpenMP Integral Computing Module                       
 Release: version 1.0, May 2013, Q-Chem Inc. Pittsburgh 
 -------------------------------------------------------
 Integral Job Info:
 Integral job number is                      11
 Integral operator is                         1
 short-range coefficients                     0
 long-range coefficients              100000000
 Omega coefficients                           0
 if combine SR and LR in K                    0
 Integral screening is                        0
 Integral computing path is                   2
 max size of driver memory is            800000
 size of driver memory is                593474
 size of scratch memory is              2361544
 max col of scratch BK array               1296
 max len of scratch array in speh3          155
 max len of scratch index in speh4           18
 max int batch size is                      520
 min int batch size is                       52
 fixed nKL is                                52
 max L of basis functions is                  2
 order of int derivative is                   0
 number of shells is                         38
 number of basis is                         105
 number of cartesian basis is               105
 number of contracted shell pairs           720
 number of primitive shell pairs           2672
 maxK2 (contraction) of shell pair           36
 max number of K2 of shell pair               1
 max number of CS2 of shell pair             62
 max number of PS2 of shell pair            246
 mem total for path MDJ                  519084
 -------------------------------------------------------
 Smallest overlap matrix eigenvalue = 3.28E-03

 Scale SEOQF with 1.000000e-01/1.000000e-01/1.000000e+00

 Standard Electronic Orientation quadrupole field applied
 Nucleus-field energy     =    -0.0000000029 hartrees
 Guess from superposition of atomic densities
 Warning:  Energy on first SCF cycle will be non-variational
 SAD guess density has 42.000000 electrons

 -----------------------------------------------------------------------
  General SCF calculation program by
  Eric Jon Sundstrom, Paul Horn, Yuezhi Mao, Dmitri Zuev, Alec White,
  David Stuck, Shaama M.S., Shane Yost, Joonho Lee, David Small,
  Daniel Levine, Susi Lehtola, Hugh Burton, Evgeny Epifanovsky
 -----------------------------------------------------------------------
 Exchange:     0.2000 Hartree-Fock + 0.0800 Slater + 0.7200 B88
 Correlation:  0.1900 VWN1RPA + 0.8100 LYP
 Using SG-1 standard quadrature grid
 using 12 threads for integral computing
 -------------------------------------------------------
 OpenMP Integral computing Module                
 Release: version 1.0, May 2013, Q-Chem Inc. Pittsburgh 
 -------------------------------------------------------
 -------------------------------------------------------
 OpenMP BLAS3 based DFT computing Module                
 Release: version 1.0, May 2013, Q-Chem Inc. Pittsburgh 
 -------------------------------------------------------
 A unrestricted SCF calculation will be
 performed using DIIS
 SCF converges when DIIS error is below 1.0e-06
 Alpha HF Exchange    Energy =  -3.79204471419278
 Beta HF Exchange     Energy =  -3.79204471419278
 DFT Correlation      Energy =  -1.85855766612101
 DFT Exchange         Energy = -29.67659817107451
 One-Electron (alpha) Energy = -407.45039050700956
 One-Electron (beta)  Energy = -407.45039050700956
 Total Coulomb        Energy = 343.63647256145191
 ---------------------------------------
  Cycle       Energy         DIIS error
 ---------------------------------------
    1    -318.2488317674      3.24e-02  
 Alpha HF Exchange    Energy =  -3.82233087723281
 Beta HF Exchange     Energy =  -3.82233087723281
 DFT Correlation      Energy =  -1.88331707906225
 DFT Exchange         Energy = -30.36980697835383
 One-Electron (alpha) Energy = -410.67174124900089
 One-Electron (beta)  Energy = -410.67174124900112
 Total Coulomb        Energy = 351.56441083182824
    2    -317.5421355273      3.69e-03  
 Alpha HF Exchange    Energy =  -3.75001015992327
 Beta HF Exchange     Energy =  -3.75001015992327
 DFT Correlation      Energy =  -1.86137912578709
 DFT Exchange         Energy = -29.79381884519563
 One-Electron (alpha) Energy = -407.49883684900419
 One-Electron (beta)  Energy = -407.49883684900408
 Total Coulomb        Energy = 344.48190615134217
    3    -317.5362638867      4.02e-03  
 Alpha HF Exchange    Energy =  -3.78805441808922
 Beta HF Exchange     Energy =  -3.78805441808922
 DFT Correlation      Energy =  -1.87225361837682
 DFT Exchange         Energy = -30.09241715338988
 One-Electron (alpha) Energy = -409.12599303817632
 One-Electron (beta)  Energy = -409.12599303817620
 Total Coulomb        Energy = 348.05185954410302
    4    -317.6061841894      4.54e-04  
 Alpha HF Exchange    Energy =  -3.78639761129064
 Beta HF Exchange     Energy =  -3.78639761129064
 DFT Correlation      Energy =  -1.87258215426006
 DFT Exchange         Energy = -30.08227124291859
 One-Electron (alpha) Energy = -409.15847828678790
 One-Electron (beta)  Energy = -409.15847828678784
 Total Coulomb        Energy = 348.10304878396641
    5    -317.6068344586      2.10e-04  
 Alpha HF Exchange    Energy =  -3.78678154737912
 Beta HF Exchange     Energy =  -3.78678154737912
 DFT Correlation      Energy =  -1.87236544179638
 DFT Exchange         Energy = -30.08414694569584
 One-Electron (alpha) Energy = -409.13131470552582
 One-Electron (beta)  Energy = -409.13131470552571
 Total Coulomb        Energy = 348.05095515639653
    6    -317.6070277861      2.63e-05  
 Alpha HF Exchange    Energy =  -3.78666834792539
 Beta HF Exchange     Energy =  -3.78666834792540
 DFT Correlation      Energy =  -1.87235138965975
 DFT Exchange         Energy = -30.08326480520492
 One-Electron (alpha) Energy = -409.12711931017179
 One-Electron (beta)  Energy = -409.12711931017179
 Total Coulomb        Energy = 348.04143912924985
    7    -317.6070304310      1.10e-05  
 Alpha HF Exchange    Energy =  -3.78671664435523
 Beta HF Exchange     Energy =  -3.78671664435523
 DFT Correlation      Energy =  -1.87236712873601
 DFT Exchange         Energy = -30.08366149407536
 One-Electron (alpha) Energy = -409.13049445057754
 One-Electron (beta)  Energy = -409.13049445057743
 Total Coulomb        Energy = 348.04869783067403
    8    -317.6070310312      9.75e-07  Convergence criterion met
 ---------------------------------------
 SCF time:   CPU 19.45s  wall 2.00s 
<S^2> =          0.000000000
 Alpha HF Exchange    Energy =  -3.78671664435523
 Beta HF Exchange     Energy =  -3.78671664435523
 DFT Correlation      Energy =  -1.87236712873601
 DFT Exchange         Energy = -30.08366149407536
 One-Electron (alpha) Energy = -409.13049445057754
 One-Electron (beta)  Energy = -409.13049445057743
 Total Coulomb        Energy = 348.04869783067403
 Nuclear repulsion Energy = 192.13472195078685
 SCF   energy in the final basis set =     -317.6070310312
 Total energy in the final basis set =     -317.6070310312
 
 --------------------------------------------------------------
 
                    Orbital Energies (a.u.)
 --------------------------------------------------------------
 
 Alpha MOs
 -- Occupied --
-24.674 -24.673 -10.265 -10.260 -10.191  -1.199  -1.184  -0.791
 -0.698  -0.613  -0.526  -0.502  -0.497  -0.463  -0.445  -0.408
 -0.397  -0.378  -0.337  -0.331  -0.312
 -- Virtual --
  0.091   0.103   0.114   0.150   0.166   0.179   0.181   0.199
  0.239   0.258   0.512   0.529   0.539   0.558   0.591   0.618
  0.641   0.662   0.715   0.796   0.847   0.861   0.869   0.893
  0.913   0.942   1.080   1.144   1.194   1.208   1.292   1.374
  1.387   1.389   1.414   1.416   1.526   1.609   1.638   1.740
  1.752   1.803   1.810   1.848   1.895   1.948   1.993   2.013
  2.023   2.029   2.058   2.071   2.086   2.105   2.122   2.212
  2.241   2.302   2.326   2.394   2.446   2.487   2.633   2.693
  2.696   2.734   2.796   2.841   2.893   2.912   2.919   3.068
  3.125   3.180   3.244   3.315   3.438   3.476   3.486   4.211
  4.316   4.496   4.600   4.652
 
 Beta MOs
 -- Occupied --
-24.674 -24.673 -10.265 -10.260 -10.191  -1.199  -1.184  -0.791
 -0.698  -0.613  -0.526  -0.502  -0.497  -0.463  -0.445  -0.408
 -0.397  -0.378  -0.337  -0.331  -0.312
 -- Virtual --
  0.091   0.103   0.114   0.150   0.166   0.179   0.181   0.199
  0.239   0.258   0.512   0.529   0.539   0.558   0.591   0.618
  0.641   0.662   0.715   0.796   0.847   0.861   0.869   0.893
  0.913   0.942   1.080   1.144   1.194   1.208   1.292   1.374
  1.387   1.389   1.414   1.416   1.526   1.609   1.638   1.740
  1.752   1.803   1.810   1.848   1.895   1.948   1.993   2.013
  2.023   2.029   2.058   2.071   2.086   2.105   2.122   2.212
  2.241   2.302   2.326   2.394   2.446   2.487   2.633   2.693
  2.696   2.734   2.796   2.841   2.893   2.912   2.919   3.068
  3.125   3.180   3.244   3.315   3.438   3.476   3.486   4.211
  4.316   4.496   4.600   4.652
 --------------------------------------------------------------
 
          Ground-State Mulliken Net Atomic Charges

     Atom                 Charge (a.u.)    Spin (a.u.)
  --------------------------------------------------------
      1 F                    -0.311107       0.000000
      2 F                    -0.310193      -0.000000
      3 C                     0.217758      -0.000000
      4 C                     0.133750       0.000000
      5 C                    -0.354811      -0.000000
      6 H                     0.092573      -0.000000
      7 H                     0.084019      -0.000000
      8 H                     0.096168       0.000000
      9 H                     0.119163      -0.000000
     10 H                     0.106905       0.000000
     11 H                     0.125775      -0.000000
  --------------------------------------------------------
  Sum of atomic charges =     0.000000
  Sum of spin   charges =    -0.000000

 -----------------------------------------------------------------
                    Cartesian Multipole Moments
 -----------------------------------------------------------------
    Charge (ESU x 10^10)
                -0.0000
    Dipole Moment (Debye)
         X      -1.4030      Y       2.0805      Z      -0.0638
       Tot       2.5102
    Quadrupole Moments (Debye-Ang)
        XX     -31.2948     XY       0.0130     YY     -29.8409
        XZ       0.8793     YZ       0.4749     ZZ     -27.7222
    Octopole Moments (Debye-Ang^2)
       XXX       4.4486    XXY      -3.6994    XYY       5.8805
       YYY      -8.3796    XXZ       0.1553    XYZ      -0.0977
       YYZ      -0.9433    XZZ       4.2132    YZZ      -3.9593
       ZZZ      -0.0582
    Hexadecapole Moments (Debye-Ang^3)
      XXXX    -322.3678   XXXY       8.8791   XXYY     -73.5927
      XYYY       6.1078   YYYY    -127.5276   XXXZ      -0.2002
      XXYZ      -0.1554   XYYZ      -0.2931   YYYZ      -4.1810
      XXZZ     -60.6447   XYZZ       2.4281   YYZZ     -30.9785
      XZZZ      -2.8213   YZZZ      -1.5534   ZZZZ     -52.3679
 -----------------------------------------------------------------
 Calculating analytic gradient of the SCF energy
 Gradient of SCF Energy
            1           2           3           4           5           6
    1  -0.0007120  -0.0212058   0.0063730   0.0048296   0.0058588  -0.0029890
    2   0.0245443   0.0106685  -0.0195959  -0.0036954  -0.0019710  -0.0031373
    3  -0.0087922   0.0073340  -0.0005564   0.0001915   0.0007879   0.0026986
            7           8           9          10          11
    1   0.0040297   0.0057274  -0.0017139   0.0008544  -0.0010522
    2  -0.0035753  -0.0012543  -0.0007729  -0.0002788  -0.0009319
    3   0.0000155  -0.0026150  -0.0000706   0.0001621   0.0008447
 Max gradient component =       2.454E-02
 RMS gradient           =       7.591E-03
 Gradient time:  CPU 8.58 s  wall 0.77 s
 Geometry Optimization Parameters
   NAtoms,    NIC,     NZ,  NCons,   NDum,   NFix, NCnnct, MaxDiis
       11      68       0       1       0       0       0       0


** CONSTRAINED OPTIMIZATION IN DELOCALIZED INTERNAL COORDINATES **
   Searching for a Minimum

   Optimization Cycle:   1

                       Coordinates (Angstroms)
     ATOM                X               Y               Z
      1  F        -0.4864000000   -1.2989000000    0.1595000000
      2  F         1.8892000000    0.0017000000   -0.1265000000
      3  C        -0.4356000000   -0.0286000000   -0.3324000000
      4  C         0.7682000000    0.6604000000    0.2762000000
      5  C        -1.7353000000    0.6655000000    0.0233000000
      6  H        -0.3209000000   -0.1086000000   -1.4177000000
      7  H         0.8517000000    1.7006000000   -0.0505000000
      8  H         0.7421000000    0.6210000000    1.3688000000
      9  H        -1.8802000000    0.6882000000    1.1084000000
     10  H        -1.7562000000    1.6913000000   -0.3564000000
     11  H        -2.5829000000    0.1178000000   -0.4010000000
   Point Group: c1    Number of degrees of freedom:    27


   Energy is   -317.607031031

              Constraints and their Current Values
                                        Value     Constraint
   Distance(Angs):        2   4             1.361137     0.800000

 Attempting to Generate Delocalized Internal Coordinates
**WARNING** Constraint Gradient Reduced for constraint   1

   Using Lagrange Multiplier Algorithm


 28 Hessian modes will be used to form the next step
  Hessian Eigenvalues:
    -0.770565    0.045000    0.045000    0.073792    0.082489    0.083926
     0.083980    0.084052    0.085207    0.112759    0.160000    0.160000
     0.160000    0.160000    0.160000    0.177486    0.223461    0.231280
     0.307790    0.308850    0.342449    0.342718    0.343235    0.343524
     0.343974    0.344124    0.523137    1.297749

 Minimum Search - Taking P-RFO Step
 Searching for Lamda that Maximizes Along the Constraint modes Only
 Value Taken    Lamda =   0.07551519


 ********************************************
 ** ERROR IN DETERMINING Lamda IN CONFormD **
 ********************************************


 ** Scaling Hessian by  3.356231 **


 28 Hessian modes will be used to form the next step
  Hessian Eigenvalues:
    -0.450484    0.151030    0.151030    0.247663    0.276852    0.281674
     0.281856    0.282097    0.285974    0.378446    0.536997    0.536997
     0.536997    0.536997    0.536997    0.595683    0.749987    0.776229
     1.033014    1.036571    1.149336    1.150241    1.151977    1.152947
     1.154457    1.154959    1.755767    2.219834

 Minimum Search - Taking P-RFO Step
 Searching for Lamda that Maximizes Along the Constraint modes Only
 Value Taken    Lamda =   0.13700929
 Searching for Lamda that Minimizes Along All other modes
 Value Taken    Lamda =  -0.00542465
 Step Taken.  Stepsize is  0.242657

                             Maximum     Tolerance    Cnvgd?
         Gradient            0.300000       0.000300      NO
         Displacement        0.421733       0.001200      NO
         Energy change     *********       0.000001      NO


 New Cartesian Coordinates Obtained by Inverse Iteration

 Displacement from previous Coordinates is:  0.215335
 ----------------------------------------------------------------
             Standard Nuclear Orientation (Angstroms)
    I     Atom           X                Y                Z
 ----------------------------------------------------------------
    1      F      -0.4809302660    -1.3142675999     0.1591266123
    2      F       1.8005542759     0.0519986107    -0.1004750869
    3      C      -0.4290303175    -0.0357854642    -0.3331870837
    4      C       0.7836887308     0.6473914676     0.2671344415
    5      C      -1.7266724280     0.6666454411     0.0240735844
    6      H      -0.3134440852    -0.1111774305    -1.4199951095
    7      H       0.8580966003     1.6896432982    -0.0599575765
    8      H       0.7495271123     0.6087985412     1.3607762006
    9      H      -1.8670171060     0.6904451352     1.1096831875
   10      H      -1.7440996361     1.6927692254    -0.3553641623
   11      H      -2.5769728805     0.1239387753    -0.4001150074
 ----------------------------------------------------------------
 Nuclear Repulsion Energy =   195.4063238574 hartrees
 There are       21 alpha and       21 beta electrons

                       Distance Matrix (Angstroms)
             F (  1)   F (  2)   C (  3)   C (  4)   C (  5)   H (  6)
   F (  2)  2.671937
   C (  3)  1.370979  2.243414
   C (  4)  2.336457  1.234360  1.515851
   C (  5)  2.343956  3.582545  1.518196  2.522174
   H (  6)  1.992261  2.497348  1.095534  2.150705  2.165077
   H (  7)  3.296130  1.889907  2.169897  1.094904  2.781118  2.542669
   H (  8)  2.579956  1.884128  2.161943  1.094856  2.814549  3.062836
   H (  9)  2.616040  3.914483  2.162658  2.781723  1.094902  3.074973
   H ( 10)  3.301904  3.914290  2.172050  2.805358  1.094169  2.536619
   H ( 11)  2.602803  4.388360  2.154913  3.466017  1.094293  2.493792
             H (  7)   H (  8)   H (  9)   H ( 10)
   H (  8)  1.788434
   H (  9)  3.129329  2.629832
   H ( 10)  2.618912  3.215323  1.779361
   H ( 11)  3.790361  3.794921  1.761947  1.776769
 
 Applying Cartesian multipole field
    Component          Value
    ---------          -----
     (2,0,0)        1.00000E-11
     (0,2,0)        2.00000E-11
     (0,0,2)       -3.00000E-10
 Nucleus-field energy     =    -0.0000000029 hartrees
 Requested basis set is 6-31G(d,p)
 There are 38 shells and 105 basis functions
 A cutoff of  1.0D-14 yielded    723 shell pairs
 There are      5669 function pairs
 Smallest overlap matrix eigenvalue = 3.00E-03
 Guess from superposition of atomic densities
 Warning:  Energy on first SCF cycle will be non-variational
 SAD guess density has 42.000000 electrons

 -----------------------------------------------------------------------
  General SCF calculation program by
  Eric Jon Sundstrom, Paul Horn, Yuezhi Mao, Dmitri Zuev, Alec White,
  David Stuck, Shaama M.S., Shane Yost, Joonho Lee, David Small,
  Daniel Levine, Susi Lehtola, Hugh Burton, Evgeny Epifanovsky
 -----------------------------------------------------------------------
 Exchange:     0.2000 Hartree-Fock + 0.0800 Slater + 0.7200 B88
 Correlation:  0.1900 VWN1RPA + 0.8100 LYP
 Using SG-1 standard quadrature grid
 using 12 threads for integral computing
 -------------------------------------------------------
 OpenMP Integral computing Module                
 Release: version 1.0, May 2013, Q-Chem Inc. Pittsburgh 
 -------------------------------------------------------
 -------------------------------------------------------
 OpenMP BLAS3 based DFT computing Module                
 Release: version 1.0, May 2013, Q-Chem Inc. Pittsburgh 
 -------------------------------------------------------
 A unrestricted SCF calculation will be
 performed using DIIS
 SCF converges when DIIS error is below 1.0e-06
 Alpha HF Exchange    Energy =  -3.80994290115873
 Beta HF Exchange     Energy =  -3.80994290115873
 DFT Correlation      Energy =  -1.86244921206023
 DFT Exchange         Energy = -29.71563502855517
 One-Electron (alpha) Energy = -410.60812615577089
 One-Electron (beta)  Energy = -410.60812615577089
 Total Coulomb        Energy = 346.56709474793456
 ---------------------------------------
  Cycle       Energy         DIIS error
 ---------------------------------------
    1    -318.4408037520      3.46e-02  
 Alpha HF Exchange    Energy =  -3.82972360955424
 Beta HF Exchange     Energy =  -3.82972360955425
 DFT Correlation      Energy =  -1.88747401116713
 DFT Exchange         Energy = -30.42301222764459
 One-Electron (alpha) Energy = -413.85381299826918
 One-Electron (beta)  Energy = -413.85381299826940
 Total Coulomb        Energy = 354.75095574463478
    2    -317.5202798553      3.70e-03  
 Alpha HF Exchange    Energy =  -3.75789798179121
 Beta HF Exchange     Energy =  -3.75789798179121
 DFT Correlation      Energy =  -1.86492338925274
 DFT Exchange         Energy = -29.84744351313945
 One-Electron (alpha) Energy = -410.55639727445697
 One-Electron (beta)  Energy = -410.55639727445697
 Total Coulomb        Energy = 347.41827319395838
    3    -317.5163603664      3.93e-03  
 Alpha HF Exchange    Energy =  -3.79511058331746
 Beta HF Exchange     Energy =  -3.79511058331746
 DFT Correlation      Energy =  -1.87622364534841
 DFT Exchange         Energy = -30.14184082260814
 One-Electron (alpha) Energy = -412.25770807860022
 One-Electron (beta)  Energy = -412.25770807860016
 Total Coulomb        Energy = 351.13185422995429
    4    -317.5855237073      3.81e-04  
 Alpha HF Exchange    Energy =  -3.79364847602097
 Beta HF Exchange     Energy =  -3.79364847602098
 DFT Correlation      Energy =  -1.87641922068195
 DFT Exchange         Energy = -30.13257281172940
 One-Electron (alpha) Energy = -412.27650368916403
 One-Electron (beta)  Energy = -412.27650368916397
 Total Coulomb        Energy = 351.15703628995379
    5    -317.5859362183      1.97e-04  
 Alpha HF Exchange    Energy =  -3.79397896826917
 Beta HF Exchange     Energy =  -3.79397896826918
 DFT Correlation      Energy =  -1.87622222834553
 DFT Exchange         Energy = -30.13417328199208
 One-Electron (alpha) Energy = -412.24992459378421
 One-Electron (beta)  Energy = -412.24992459378461
 Total Coulomb        Energy = 351.10577847841284
    6    -317.5861003015      2.59e-05  
 Alpha HF Exchange    Energy =  -3.79388896340791
 Beta HF Exchange     Energy =  -3.79388896340791
 DFT Correlation      Energy =  -1.87621306445275
 DFT Exchange         Energy = -30.13347981623106
 One-Electron (alpha) Energy = -412.24686348457283
 One-Electron (beta)  Energy = -412.24686348457277
 Total Coulomb        Energy = 351.09877126646728
    7    -317.5861026556      1.08e-05  
 Alpha HF Exchange    Energy =  -3.79392548698496
 Beta HF Exchange     Energy =  -3.79392548698495
 DFT Correlation      Energy =  -1.87622721897405
 DFT Exchange         Energy = -30.13378516253357
 One-Electron (alpha) Energy = -412.24989703663880
 One-Electron (beta)  Energy = -412.24989703663863
 Total Coulomb        Energy = 351.10523038391045
    8    -317.5861031903      1.14e-06  
 Alpha HF Exchange    Energy =  -3.79392546692984
 Beta HF Exchange     Energy =  -3.79392546692985
 DFT Correlation      Energy =  -1.87622668082281
 DFT Exchange         Energy = -30.13378333637072
 One-Electron (alpha) Energy = -412.24977674175068
 One-Electron (beta)  Energy = -412.24977674175068
 Total Coulomb        Energy = 351.10498738461990
    9    -317.5861031954      4.24e-07  Convergence criterion met
 ---------------------------------------
 SCF time:   CPU 21.70s  wall 2.00s 
<S^2> =          0.000000000
 Alpha HF Exchange    Energy =  -3.79392546692984
 Beta HF Exchange     Energy =  -3.79392546692985
 DFT Correlation      Energy =  -1.87622668082281
 DFT Exchange         Energy = -30.13378333637072
 One-Electron (alpha) Energy = -412.24977674175068
 One-Electron (beta)  Energy = -412.24977674175068
 Total Coulomb        Energy = 351.10498738461990
 Nuclear repulsion Energy = 195.40632385454924
 SCF   energy in the final basis set =     -317.5861031954
 Total energy in the final basis set =     -317.5861031954
 
 --------------------------------------------------------------
 
                    Orbital Energies (a.u.)
 --------------------------------------------------------------
 
 Alpha MOs
 -- Occupied --
-24.690 -24.671 -10.259 -10.254 -10.187  -1.262  -1.186  -0.785
 -0.694  -0.617  -0.540  -0.528  -0.514  -0.480  -0.445  -0.410
 -0.394  -0.382  -0.332  -0.326  -0.302
 -- Virtual --
  0.096   0.114   0.120   0.152   0.171   0.185   0.194   0.223
  0.242   0.274   0.522   0.537   0.558   0.574   0.601   0.617
  0.643   0.673   0.714   0.801   0.854   0.865   0.874   0.897
  0.915   0.947   1.072   1.128   1.201   1.215   1.295   1.378
  1.385   1.391   1.417   1.418   1.536   1.610   1.639   1.723
  1.750   1.788   1.816   1.848   1.906   1.952   2.021   2.032
  2.040   2.067   2.082   2.096   2.123   2.126   2.152   2.232
  2.278   2.310   2.353   2.407   2.470   2.514   2.651   2.699
  2.713   2.762   2.809   2.869   2.921   2.946   2.969   3.133
  3.147   3.184   3.277   3.316   3.445   3.480   3.495   4.213
  4.416   4.491   4.631   4.809
 
 Beta MOs
 -- Occupied --
-24.690 -24.671 -10.259 -10.254 -10.187  -1.262  -1.186  -0.785
 -0.694  -0.617  -0.540  -0.528  -0.514  -0.480  -0.445  -0.410
 -0.394  -0.382  -0.332  -0.326  -0.302
 -- Virtual --
  0.096   0.114   0.120   0.152   0.171   0.185   0.194   0.223
  0.242   0.274   0.522   0.537   0.558   0.574   0.601   0.617
  0.643   0.673   0.714   0.801   0.854   0.865   0.874   0.897
  0.915   0.947   1.072   1.128   1.201   1.215   1.295   1.378
  1.385   1.391   1.417   1.418   1.536   1.610   1.639   1.723
  1.750   1.788   1.816   1.848   1.906   1.952   2.021   2.032
  2.040   2.067   2.082   2.096   2.123   2.126   2.152   2.232
  2.278   2.310   2.353   2.407   2.470   2.514   2.651   2.699
  2.713   2.762   2.809   2.869   2.921   2.946   2.969   3.133
  3.147   3.184   3.277   3.316   3.445   3.480   3.495   4.213
  4.416   4.491   4.631   4.809
 --------------------------------------------------------------
 
          Ground-State Mulliken Net Atomic Charges

     Atom                 Charge (a.u.)    Spin (a.u.)
  --------------------------------------------------------
      1 F                    -0.317272       0.000000
      2 F                    -0.228502       0.000000
      3 C                     0.203810       0.000000
      4 C                     0.137028      -0.000000
      5 C                    -0.352582      -0.000000
      6 H                     0.086521      -0.000000
      7 H                     0.056489       0.000000
      8 H                     0.068473      -0.000000
      9 H                     0.118234       0.000000
     10 H                     0.106032       0.000000
     11 H                     0.121769       0.000000
  --------------------------------------------------------
  Sum of atomic charges =     0.000000
  Sum of spin   charges =     0.000000

 -----------------------------------------------------------------
                    Cartesian Multipole Moments
 -----------------------------------------------------------------
    Charge (ESU x 10^10)
                -0.0000
    Dipole Moment (Debye)
         X      -0.8799      Y       1.8547      Z      -0.2100
       Tot       2.0635
    Quadrupole Moments (Debye-Ang)
        XX     -30.3382     XY      -0.1626     YY     -30.2674
        XZ       0.6976     YZ       0.3590     ZZ     -27.9353
    Octopole Moments (Debye-Ang^2)
       XXX       8.2929    XXY      -3.8540    XYY       6.0615
       YYY      -9.2795    XXZ      -0.0481    XYZ      -0.1750
       YYZ      -1.0781    XZZ       4.5888    YZZ      -4.1949
       ZZZ      -0.6746
    Hexadecapole Moments (Debye-Ang^3)
      XXXX    -307.3191   XXXY       7.7247   XXYY     -71.9829
      XYYY       4.0666   YYYY    -130.5189   XXXZ      -1.2155
      XXYZ      -0.1949   XYYZ      -0.6161   YYYZ      -3.9589
      XXZZ     -58.6941   XYZZ       1.8423   YYZZ     -31.3553
      XZZZ      -3.9875   YZZZ      -1.6761   ZZZZ     -53.3549
 -----------------------------------------------------------------
 Calculating analytic gradient of the SCF energy
 Gradient of SCF Energy
            1           2           3           4           5           6
    1  -0.0016010  -0.1462010   0.0164824   0.1080181   0.0049671  -0.0026149
    2   0.0192069   0.0839294  -0.0213573  -0.0633855   0.0006942  -0.0018939
    3  -0.0067143   0.0520400  -0.0019491  -0.0381731   0.0014908   0.0022178
            7           8           9          10          11
    1   0.0105994   0.0118932  -0.0014884   0.0002461  -0.0003011
    2  -0.0098402  -0.0056518  -0.0007118  -0.0000411  -0.0009490
    3  -0.0019917  -0.0075875  -0.0000322   0.0001945   0.0005047
 Max gradient component =       1.462E-01
 RMS gradient           =       3.889E-02
 Gradient time:  CPU 8.45 s  wall 0.72 s
 Geometry Optimization Parameters
   NAtoms,    NIC,     NZ,  NCons,   NDum,   NFix, NCnnct, MaxDiis
       11      68       0       1       0       0       0       0

 Cartesian Hessian Update
 Hessian Updated using BFGS Update


** CONSTRAINED OPTIMIZATION IN DELOCALIZED INTERNAL COORDINATES **
   Searching for a Minimum

   Optimization Cycle:   2

                       Coordinates (Angstroms)
     ATOM                X               Y               Z
      1  F        -0.4809302660   -1.3142675999    0.1591266123
      2  F         1.8005542759    0.0519986107   -0.1004750869
      3  C        -0.4290303175   -0.0357854642   -0.3331870837
      4  C         0.7836887308    0.6473914676    0.2671344415
      5  C        -1.7266724280    0.6666454411    0.0240735844
      6  H        -0.3134440852   -0.1111774305   -1.4199951095
      7  H         0.8580966003    1.6896432982   -0.0599575765
      8  H         0.7495271123    0.6087985412    1.3607762006
      9  H        -1.8670171060    0.6904451352    1.1096831875
     10  H        -1.7440996361    1.6927692254   -0.3553641623
     11  H        -2.5769728805    0.1239387753   -0.4001150074
   Point Group: c1    Number of degrees of freedom:    27


   Energy is   -317.586103195

              Constraints and their Current Values
                                        Value     Constraint
   Distance(Angs):        2   4             1.234360     0.800000
 Hessian Updated using BFGS Update
**WARNING** Constraint Gradient Reduced for constraint   1

   Using Lagrange Multiplier Algorithm


 25 Hessian modes will be used to form the next step
  Hessian Eigenvalues:
    -0.730500    0.151029    0.151035    0.247594    0.276853    0.281551
     0.281840    0.283440    0.285989    0.378240    0.535557    0.537342
     0.595638    0.749033    0.775870    1.032223    1.035791    1.149208
     1.149376    1.150347    1.152467    1.152953    1.154710    1.383860
     1.763008

 Minimum Search - Taking P-RFO Step
 Searching for Lamda that Maximizes Along the Constraint modes Only
 Value Taken    Lamda =   0.01223285
 Searching for Lamda that Minimizes Along All other modes
 Value Taken    Lamda =  -0.10201997
 Calculated Step too Large.  Step scaled by  0.976176
 Step Taken.  Stepsize is  0.300000

                             Maximum     Tolerance    Cnvgd?
         Gradient            0.300000       0.000300      NO
         Displacement        0.275738       0.001200      NO
         Energy change      0.020928       0.000001      NO


 New Cartesian Coordinates Obtained by Inverse Iteration

 Displacement from previous Coordinates is:  0.231166
 ----------------------------------------------------------------
             Standard Nuclear Orientation (Angstroms)
    I     Atom           X                Y                Z
 ----------------------------------------------------------------
    1      F      -0.4737657695    -1.3340378486     0.1590180589
    2      F       1.7181175949     0.1084485024    -0.0680415725
    3      C      -0.4220024304    -0.0427117536    -0.3346486233
    4      C       0.8157037412     0.6257141015     0.2525830494
    5      C      -1.7169933313     0.6692060897     0.0258810679
    6      H      -0.3072290191    -0.1135492358    -1.4240010620
    7      H       0.8492785637     1.6780428982    -0.0731948434
    8      H       0.7410085362     0.5942490668     1.3513952606
    9      H      -1.8489199053     0.6947141734     1.1123737193
   10      H      -1.7284674175     1.6955205013    -0.3535691441
   11      H      -2.5730305629     0.1348035046    -0.3960959108
 ----------------------------------------------------------------
 Nuclear Repulsion Energy =   199.2958859211 hartrees
 There are       21 alpha and       21 beta electrons

                       Distance Matrix (Angstroms)
             F (  1)   F (  2)   C (  3)   C (  4)   C (  5)   H (  6)
   F (  2)  2.633757
   C (  3)  1.383441  2.161953
   C (  4)  2.347789  1.088446  1.524320
   C (  5)  2.361425  3.481847  1.521121  2.543195
   H (  6)  2.005811  2.447435  1.097670  2.149052  2.168479
   H (  7)  3.298030  1.794027  2.155345  1.102114  2.759224  2.524280
   H (  8)  2.572106  1.790404  2.145008  1.101797  2.793632  3.050017
   H (  9)  2.629785  3.802742  2.161889  2.800754  1.094770  3.076247
   H ( 10)  3.318922  3.805164  2.174548  2.825723  1.094274  2.537415
   H ( 11)  2.621557  4.303750  2.159215  3.485010  1.093824  2.500425
             H (  7)   H (  8)   H (  9)   H ( 10)
   H (  8)  1.793262
   H (  9)  3.106893  2.602874
   H ( 10)  2.593008  3.196563  1.779076
   H ( 11)  3.768030  3.774609  1.764459  1.775087
 
 Applying Cartesian multipole field
    Component          Value
    ---------          -----
     (2,0,0)        1.00000E-11
     (0,2,0)        2.00000E-11
     (0,0,2)       -3.00000E-10
 Nucleus-field energy     =    -0.0000000029 hartrees
 Requested basis set is 6-31G(d,p)
 There are 38 shells and 105 basis functions
 A cutoff of  1.0D-14 yielded    726 shell pairs
 There are      5677 function pairs
 Smallest overlap matrix eigenvalue = 2.52E-03
 Guess from superposition of atomic densities
 Warning:  Energy on first SCF cycle will be non-variational
 SAD guess density has 42.000000 electrons

 -----------------------------------------------------------------------
  General SCF calculation program by
  Eric Jon Sundstrom, Paul Horn, Yuezhi Mao, Dmitri Zuev, Alec White,
  David Stuck, Shaama M.S., Shane Yost, Joonho Lee, David Small,
  Daniel Levine, Susi Lehtola, Hugh Burton, Evgeny Epifanovsky
 -----------------------------------------------------------------------
 Exchange:     0.2000 Hartree-Fock + 0.0800 Slater + 0.7200 B88
 Correlation:  0.1900 VWN1RPA + 0.8100 LYP
 Using SG-1 standard quadrature grid
 using 12 threads for integral computing
 -------------------------------------------------------
 OpenMP Integral computing Module                
 Release: version 1.0, May 2013, Q-Chem Inc. Pittsburgh 
 -------------------------------------------------------
 -------------------------------------------------------
 OpenMP BLAS3 based DFT computing Module                
 Release: version 1.0, May 2013, Q-Chem Inc. Pittsburgh 
 -------------------------------------------------------
 A unrestricted SCF calculation will be
 performed using DIIS
 SCF converges when DIIS error is below 1.0e-06
 Alpha HF Exchange    Energy =  -3.83526066868453
 Beta HF Exchange     Energy =  -3.83526066868453
 DFT Correlation      Energy =  -1.86707830929672
 DFT Exchange         Energy = -29.77221283867554
 One-Electron (alpha) Energy = -414.24895420080730
 One-Electron (beta)  Energy = -414.24895420080730
 Total Coulomb        Energy = 349.79214419803799
 ---------------------------------------
  Cycle       Energy         DIIS error
 ---------------------------------------
    1    -318.7196907707      3.86e-02  
 Alpha HF Exchange    Energy =  -3.84145788395446
 Beta HF Exchange     Energy =  -3.84145788395447
 DFT Correlation      Energy =  -1.89270423267333
 DFT Exchange         Energy = -30.51267338902310
 One-Electron (alpha) Energy = -417.54409163378307
 One-Electron (beta)  Energy = -417.54409163378335
 Total Coulomb        Energy = 358.45230598930033
    2    -317.4282847497      3.79e-03  
 Alpha HF Exchange    Energy =  -3.76662458517276
 Beta HF Exchange     Energy =  -3.76662458517276
 DFT Correlation      Energy =  -1.86878735081139
 DFT Exchange         Energy = -29.91080817475257
 One-Electron (alpha) Energy = -413.96899674404318
 One-Electron (beta)  Energy = -413.96899674404307
 Total Coulomb        Energy = 350.53128004970000
    3    -317.4236722161      4.01e-03  
 Alpha HF Exchange    Energy =  -3.80525532040004
 Beta HF Exchange     Energy =  -3.80525532040005
 DFT Correlation      Energy =  -1.88094879119494
 DFT Exchange         Energy = -30.21765488923772
 One-Electron (alpha) Energy = -415.83367134752405
 One-Electron (beta)  Energy = -415.83367134752405
 Total Coulomb        Energy = 354.58348911436860
    4    -317.4970819837      3.53e-04  
 Alpha HF Exchange    Energy =  -3.80380102558144
 Beta HF Exchange     Energy =  -3.80380102558144
 DFT Correlation      Energy =  -1.88105312901353
 DFT Exchange         Energy = -30.20822773458184
 One-Electron (alpha) Energy = -415.84152010379432
 One-Electron (beta)  Energy = -415.84152010379410
 Total Coulomb        Energy = 354.58662927762464
    5    -317.4974079265      1.97e-04  
 Alpha HF Exchange    Energy =  -3.80411733161369
 Beta HF Exchange     Energy =  -3.80411733161369
 DFT Correlation      Energy =  -1.88087068369501
 DFT Exchange         Energy = -30.20979370675382
 One-Electron (alpha) Energy = -415.81545962990401
 One-Electron (beta)  Energy = -415.81545962990418
 Total Coulomb        Energy = 354.53636383418603
    6    -317.4975685611      2.50e-05  
 Alpha HF Exchange    Energy =  -3.80405306513165
 Beta HF Exchange     Energy =  -3.80405306513166
 DFT Correlation      Energy =  -1.88086414445271
 DFT Exchange         Energy = -30.20928804911978
 One-Electron (alpha) Energy = -415.81333385657831
 One-Electron (beta)  Energy = -415.81333385657842
 Total Coulomb        Energy = 354.53146943611608
    7    -317.4975706827      9.72e-06  
 Alpha HF Exchange    Energy =  -3.80407959465902
 Beta HF Exchange     Energy =  -3.80407959465902
 DFT Correlation      Energy =  -1.88087699444161
 DFT Exchange         Energy = -30.20951854600713
 One-Electron (alpha) Energy = -415.81606246235185
 One-Electron (beta)  Energy = -415.81606246235185
 Total Coulomb        Energy = 354.53722265108206
    8    -317.4975710852      1.11e-06  
 Alpha HF Exchange    Energy =  -3.80407825883457
 Beta HF Exchange     Energy =  -3.80407825883457
 DFT Correlation      Energy =  -1.88087616329070
 DFT Exchange         Energy = -30.20950622685862
 One-Electron (alpha) Energy = -415.81585088647620
 One-Electron (beta)  Energy = -415.81585088647637
 Total Coulomb        Energy = 354.53678367201604
    9    -317.4975710905      2.49e-07  Convergence criterion met
 ---------------------------------------
 SCF time:   CPU 20.67s  wall 1.00s 
<S^2> =          0.000000000
 Alpha HF Exchange    Energy =  -3.80407825883457
 Beta HF Exchange     Energy =  -3.80407825883457
 DFT Correlation      Energy =  -1.88087616329070
 DFT Exchange         Energy = -30.20950622685862
 One-Electron (alpha) Energy = -415.81585088647620
 One-Electron (beta)  Energy = -415.81585088647637
 Total Coulomb        Energy = 354.53678367201604
 Nuclear repulsion Energy = 199.29588591820900
 SCF   energy in the final basis set =     -317.4975710905
 Total energy in the final basis set =     -317.4975710905
 
 --------------------------------------------------------------
 
                    Orbital Energies (a.u.)
 --------------------------------------------------------------
 
 Alpha MOs
 -- Occupied --
-24.719 -24.667 -10.256 -10.249 -10.182  -1.373  -1.178  -0.778
 -0.694  -0.634  -0.589  -0.572  -0.540  -0.486  -0.441  -0.411
 -0.390  -0.380  -0.327  -0.311  -0.286
 -- Virtual --
  0.101   0.119   0.128   0.154   0.175   0.190   0.201   0.241
  0.247   0.291   0.510   0.540   0.558   0.585   0.606   0.637
  0.661   0.699   0.759   0.814   0.864   0.872   0.886   0.903
  0.919   0.960   1.041   1.117   1.208   1.222   1.303   1.371
  1.387   1.394   1.420   1.426   1.557   1.615   1.641   1.686
  1.725   1.791   1.835   1.847   1.916   1.956   2.019   2.038
  2.055   2.077   2.102   2.132   2.144   2.159   2.199   2.261
  2.311   2.321   2.392   2.421   2.482   2.615   2.664   2.708
  2.722   2.793   2.819   2.878   2.932   3.020   3.043   3.144
  3.188   3.259   3.314   3.442   3.461   3.480   3.517   4.213
  4.443   4.487   4.636   5.243
 
 Beta MOs
 -- Occupied --
-24.719 -24.667 -10.256 -10.249 -10.182  -1.373  -1.178  -0.778
 -0.694  -0.634  -0.589  -0.572  -0.540  -0.486  -0.441  -0.411
 -0.390  -0.380  -0.327  -0.311  -0.286
 -- Virtual --
  0.101   0.119   0.128   0.154   0.175   0.190   0.201   0.241
  0.247   0.291   0.510   0.540   0.558   0.585   0.606   0.637
  0.661   0.699   0.759   0.814   0.864   0.872   0.886   0.903
  0.919   0.960   1.041   1.117   1.208   1.222   1.303   1.371
  1.387   1.394   1.420   1.426   1.557   1.615   1.641   1.686
  1.725   1.791   1.835   1.847   1.916   1.956   2.019   2.038
  2.055   2.077   2.102   2.132   2.144   2.159   2.199   2.261
  2.311   2.321   2.392   2.421   2.482   2.615   2.664   2.708
  2.722   2.793   2.819   2.878   2.932   3.020   3.043   3.144
  3.188   3.259   3.314   3.442   3.461   3.480   3.517   4.213
  4.443   4.487   4.636   5.243
 --------------------------------------------------------------
 
          Ground-State Mulliken Net Atomic Charges

     Atom                 Charge (a.u.)    Spin (a.u.)
  --------------------------------------------------------
      1 F                    -0.326023       0.000000
      2 F                    -0.050628       0.000000
      3 C                     0.178022       0.000000
      4 C                     0.094906      -0.000000
      5 C                    -0.349364       0.000000
      6 H                     0.078182      -0.000000
      7 H                     0.009871       0.000000
      8 H                     0.023166      -0.000000
      9 H                     0.117855       0.000000
     10 H                     0.105781      -0.000000
     11 H                     0.118232       0.000000
  --------------------------------------------------------
  Sum of atomic charges =     0.000000
  Sum of spin   charges =     0.000000

 -----------------------------------------------------------------
                    Cartesian Multipole Moments
 -----------------------------------------------------------------
    Charge (ESU x 10^10)
                 0.0000
    Dipole Moment (Debye)
         X      -0.1956      Y       1.5369      Z      -0.4295
       Tot       1.6077
    Quadrupole Moments (Debye-Ang)
        XX     -29.0111     XY      -0.4448     YY     -30.9804
        XZ       0.4301     YZ       0.2018     ZZ     -28.3342
    Octopole Moments (Debye-Ang^2)
       XXX      12.4762    XXY      -3.9879    XYY       5.9868
       YYY     -10.6034    XXZ      -0.3227    XYZ      -0.2803
       YYZ      -1.2166    XZZ       4.8267    YZZ      -4.5100
       ZZZ      -1.5867
    Hexadecapole Moments (Debye-Ang^3)
      XXXX    -291.8426   XXXY       6.6941   XXYY     -70.8103
      XYYY       1.5151   YYYY    -135.4377   XXXZ      -2.2179
      XXYZ      -0.2773   XYYZ      -0.9354   YYYZ      -3.6365
      XXZZ     -56.9994   XYZZ       1.1674   YYZZ     -32.0247
      XZZZ      -5.4770   YZZZ      -1.9369   ZZZZ     -55.2972
 -----------------------------------------------------------------
 Calculating analytic gradient of the SCF energy
 Gradient of SCF Energy
            1           2           3           4           5           6
    1  -0.0023098  -0.4539305   0.0263114   0.3977669   0.0023971  -0.0017278
    2   0.0122578   0.2591455  -0.0193957  -0.2257454   0.0029155  -0.0001081
    3  -0.0037471   0.1600845  -0.0017444  -0.1404762   0.0016102   0.0017732
            7           8           9          10          11
    1   0.0158991   0.0168382  -0.0011045  -0.0002957   0.0001557
    2  -0.0176171  -0.0102401  -0.0007082   0.0001759  -0.0006802
    3  -0.0039079  -0.0139497  -0.0000552   0.0001802   0.0002324
 Max gradient component =       4.539E-01
 RMS gradient           =       1.268E-01
 Gradient time:  CPU 8.56 s  wall 0.74 s
 Geometry Optimization Parameters
   NAtoms,    NIC,     NZ,  NCons,   NDum,   NFix, NCnnct, MaxDiis
       11      68       0       1       0       0       0       0

 Cartesian Hessian Update
 Hessian Updated using BFGS Update


** CONSTRAINED OPTIMIZATION IN DELOCALIZED INTERNAL COORDINATES **
   Searching for a Minimum

   Optimization Cycle:   3

                       Coordinates (Angstroms)
     ATOM                X               Y               Z
      1  F        -0.4737657695   -1.3340378486    0.1590180589
      2  F         1.7181175949    0.1084485024   -0.0680415725
      3  C        -0.4220024304   -0.0427117536   -0.3346486233
      4  C         0.8157037412    0.6257141015    0.2525830494
      5  C        -1.7169933313    0.6692060897    0.0258810679
      6  H        -0.3072290191   -0.1135492358   -1.4240010620
      7  H         0.8492785637    1.6780428982   -0.0731948434
      8  H         0.7410085362    0.5942490668    1.3513952606
      9  H        -1.8489199053    0.6947141734    1.1123737193
     10  H        -1.7284674175    1.6955205013   -0.3535691441
     11  H        -2.5730305629    0.1348035046   -0.3960959108
   Point Group: c1    Number of degrees of freedom:    27


   Energy is   -317.497571091

              Constraints and their Current Values
                                        Value     Constraint
   Distance(Angs):        2   4             1.088446     0.800000
 Hessian Updated using BFGS Update
**WARNING** Constraint Gradient Reduced for constraint   1

   Using Lagrange Multiplier Algorithm


 26 Hessian modes will be used to form the next step
  Hessian Eigenvalues:
    -0.524319    0.151028    0.151036    0.247624    0.276848    0.280338
     0.281803    0.282006    0.285875    0.378135    0.531194    0.536999
     0.537139    0.595505    0.747403    0.775120    1.030352    1.033827
     1.143959    1.149337    1.150260    1.152151    1.152949    1.154705
     1.710740    2.025767

 Minimum Search - Taking P-RFO Step
 Searching for Lamda that Maximizes Along the Constraint modes Only
 Value Taken    Lamda =   0.16963729


 ********************************************
 ** ERROR IN DETERMINING Lamda IN CONFormD **
 ********************************************


 ** Scaling Hessian by  2.246430 **


 26 Hessian modes will be used to form the next step
  Hessian Eigenvalues:
    -0.300353    0.339271    0.339288    0.556230    0.617152    0.621980
     0.632876    0.633206    0.642094    0.849164    1.181238    1.206330
     1.206531    1.337447    1.674396    1.739411    2.298076    2.321242
     2.542688    2.581905    2.583956    2.588059    2.590018    2.593960
     3.532151    4.061583

 Minimum Search - Taking P-RFO Step
 Searching for Lamda that Maximizes Along the Constraint modes Only
 Value Taken    Lamda =   0.21468371
 Searching for Lamda that Minimizes Along All other modes
 Value Taken    Lamda =  -0.00749219
 Step Taken.  Stepsize is  0.229237

                             Maximum     Tolerance    Cnvgd?
         Gradient            0.300000       0.000300      NO
         Displacement        0.609787       0.001200      NO
         Energy change      0.088532       0.000001      NO


 New Cartesian Coordinates Obtained by Inverse Iteration

 Displacement from previous Coordinates is:  0.158222
 ----------------------------------------------------------------
             Standard Nuclear Orientation (Angstroms)
    I     Atom           X                Y                Z
 ----------------------------------------------------------------
    1      F      -0.4684704728    -1.3482661259     0.1563539719
    2      F       1.6845323921     0.1408484061    -0.0465033207
    3      C      -0.4176887281    -0.0475965408    -0.3368730680
    4      C       0.8472405052     0.6056995031     0.2396602345
    5      C      -1.7081448269     0.6719655577     0.0285271804
    6      H      -0.3056698652    -0.1168400992    -1.4283446013
    7      H       0.8225433694     1.6708223003    -0.0791108902
    8      H       0.7141387657     0.5899481536     1.3430122154
    9      H      -1.8309002629     0.6999394359     1.1159537670
   10      H      -1.7129950231     1.6981126934    -0.3514969393
   11      H      -2.5708858534     0.1457667159    -0.3894785497
 ----------------------------------------------------------------
 Nuclear Repulsion Energy =   201.7290858347 hartrees
 There are       21 alpha and       21 beta electrons

                       Distance Matrix (Angstroms)
             F (  1)   F (  2)   C (  3)   C (  4)   C (  5)   H (  6)
   F (  2)  2.625649
   C (  3)  1.391975  2.130530
   C (  4)  2.357120  0.999517  1.535979
   C (  5)  2.373703  3.434818  1.522026  2.564949
   H (  6)  2.013500  2.436554  1.099388  2.152558  2.170628
   H (  7)  3.291968  1.756391  2.134849  1.112075  2.722808  2.507795
   H (  8)  2.561913  1.753313  2.123561  1.111463  2.757183  3.036442
   H (  9)  2.640491  3.744617  2.160251  2.819434  1.094691  3.076835
   H ( 10)  3.329741  3.749838  2.173829  2.845635  1.094267  2.536576
   H ( 11)  2.636327  4.269220  2.162502  3.505844  1.093589  2.505875
             H (  7)   H (  8)   H (  9)   H ( 10)
   H (  8)  1.789546
   H (  9)  3.067826  2.557514
   H ( 10)  2.550273  3.160754  1.778669
   H ( 11)  3.733294  3.740349  1.766639  1.774034
 
 Applying Cartesian multipole field
    Component          Value
    ---------          -----
     (2,0,0)        1.00000E-11
     (0,2,0)        2.00000E-11
     (0,0,2)       -3.00000E-10
 Nucleus-field energy     =    -0.0000000028 hartrees
 Requested basis set is 6-31G(d,p)
 There are 38 shells and 105 basis functions
 A cutoff of  1.0D-14 yielded    726 shell pairs
 There are      5677 function pairs
 Smallest overlap matrix eigenvalue = 2.22E-03
 Guess from superposition of atomic densities
 Warning:  Energy on first SCF cycle will be non-variational
 SAD guess density has 42.000000 electrons

 -----------------------------------------------------------------------
  General SCF calculation program by
  Eric Jon Sundstrom, Paul Horn, Yuezhi Mao, Dmitri Zuev, Alec White,
  David Stuck, Shaama M.S., Shane Yost, Joonho Lee, David Small,
  Daniel Levine, Susi Lehtola, Hugh Burton, Evgeny Epifanovsky
 -----------------------------------------------------------------------
 Exchange:     0.2000 Hartree-Fock + 0.0800 Slater + 0.7200 B88
 Correlation:  0.1900 VWN1RPA + 0.8100 LYP
 Using SG-1 standard quadrature grid
 using 12 threads for integral computing
 -------------------------------------------------------
 OpenMP Integral computing Module                
 Release: version 1.0, May 2013, Q-Chem Inc. Pittsburgh 
 -------------------------------------------------------
 -------------------------------------------------------
 OpenMP BLAS3 based DFT computing Module                
 Release: version 1.0, May 2013, Q-Chem Inc. Pittsburgh 
 -------------------------------------------------------
 A unrestricted SCF calculation will be
 performed using DIIS
 SCF converges when DIIS error is below 1.0e-06
 Alpha HF Exchange    Energy =  -3.85297384443998
 Beta HF Exchange     Energy =  -3.85297384443998
 DFT Correlation      Energy =  -1.86993807914612
 DFT Exchange         Energy = -29.81300380660440
 One-Electron (alpha) Energy = -416.41967267829790
 One-Electron (beta)  Energy = -416.41967267829790
 Total Coulomb        Energy = 351.58912032339407
 ---------------------------------------
  Cycle       Energy         DIIS error
 ---------------------------------------
    1    -318.9100287759      4.20e-02  
 Alpha HF Exchange    Energy =  -3.85046104131999
 Beta HF Exchange     Energy =  -3.85046104131999
 DFT Correlation      Energy =  -1.89600505982656
 DFT Exchange         Energy = -30.58453067020834
 One-Electron (alpha) Energy = -419.74848293455511
 One-Electron (beta)  Energy = -419.74848293455534
 Total Coulomb        Energy = 360.64307073443484
    2    -317.3062671154      3.91e-03  
 Alpha HF Exchange    Energy =  -3.77246641868518
 Beta HF Exchange     Energy =  -3.77246641868518
 DFT Correlation      Energy =  -1.87102650159353
 DFT Exchange         Energy = -29.95595584303710
 One-Electron (alpha) Energy = -415.94600541679131
 One-Electron (beta)  Energy = -415.94600541679137
 Total Coulomb        Energy = 352.23371444734300
    3    -317.3011257363      4.12e-03  
 Alpha HF Exchange    Energy =  -3.81286504439758
 Beta HF Exchange     Energy =  -3.81286504439758
 DFT Correlation      Energy =  -1.88390145910123
 DFT Exchange         Energy = -30.27742386289106
 One-Electron (alpha) Energy = -417.95232372414688
 One-Electron (beta)  Energy = -417.95232372414705
 Total Coulomb        Energy = 356.58403720421967
    4    -317.3785798229      3.53e-04  
 Alpha HF Exchange    Energy =  -3.81120808582840
 Beta HF Exchange     Energy =  -3.81120808582841
 DFT Correlation      Energy =  -1.88391359111231
 DFT Exchange         Energy = -30.26640129401136
 One-Electron (alpha) Energy = -417.94543080765459
 One-Electron (beta)  Energy = -417.94543080765510
 Total Coulomb        Energy = 356.55560742638841
    5    -317.3788994138      2.01e-04  
 Alpha HF Exchange    Energy =  -3.81153677407984
 Beta HF Exchange     Energy =  -3.81153677407985
 DFT Correlation      Energy =  -1.88373169273286
 DFT Exchange         Energy = -30.26805860765296
 One-Electron (alpha) Energy = -417.91933968829341
 One-Electron (beta)  Energy = -417.91933968829346
 Total Coulomb        Energy = 356.50539123441132
    6    -317.3790661588      2.54e-05  
 Alpha HF Exchange    Energy =  -3.81148807899795
 Beta HF Exchange     Energy =  -3.81148807899795
 DFT Correlation      Energy =  -1.88372962403239
 DFT Exchange         Energy = -30.26767001789166
 One-Electron (alpha) Energy = -417.91832748162153
 One-Electron (beta)  Energy = -417.91832748162153
 Total Coulomb        Energy = 356.50287655548016
    7    -317.3790683758      9.21e-06  
 Alpha HF Exchange    Energy =  -3.81150795383909
 Beta HF Exchange     Energy =  -3.81150795383909
 DFT Correlation      Energy =  -1.88374113267328
 DFT Exchange         Energy = -30.26785011504457
 One-Electron (alpha) Energy = -417.92068209451730
 One-Electron (beta)  Energy = -417.92068209451725
 Total Coulomb        Energy = 356.50781680761020
    8    -317.3790687049      1.29e-06  
 Alpha HF Exchange    Energy =  -3.81150663704443
 Beta HF Exchange     Energy =  -3.81150663704443
 DFT Correlation      Energy =  -1.88374028234029
 DFT Exchange         Energy = -30.26783754985194
 One-Electron (alpha) Energy = -417.92046256277894
 One-Electron (beta)  Energy = -417.92046256277882
 Total Coulomb        Energy = 356.50736168814603
    9    -317.3790687118      2.96e-07  Convergence criterion met
 ---------------------------------------
 SCF time:   CPU 21.66s  wall 2.00s 
<S^2> =          0.000000000
 Alpha HF Exchange    Energy =  -3.81150663704443
 Beta HF Exchange     Energy =  -3.81150663704443
 DFT Correlation      Energy =  -1.88374028234029
 DFT Exchange         Energy = -30.26783754985194
 One-Electron (alpha) Energy = -417.92046256277894
 One-Electron (beta)  Energy = -417.92046256277882
 Total Coulomb        Energy = 356.50736168814603
 Nuclear repulsion Energy = 201.72908583192435
 SCF   energy in the final basis set =     -317.3790687118
 Total energy in the final basis set =     -317.3790687118
 
 --------------------------------------------------------------
 
                    Orbital Energies (a.u.)
 --------------------------------------------------------------
 
 Alpha MOs
 -- Occupied --
-24.747 -24.664 -10.266 -10.242 -10.179  -1.459  -1.172  -0.774
 -0.702  -0.661  -0.639  -0.606  -0.551  -0.484  -0.437  -0.409
 -0.387  -0.378  -0.325  -0.298  -0.273
 -- Virtual --
  0.103   0.122   0.134   0.155   0.177   0.194   0.210   0.246
  0.253   0.293   0.497   0.542   0.555   0.583   0.606   0.624
  0.665   0.691   0.802   0.841   0.868   0.875   0.889   0.910
  0.934   1.002   1.036   1.115   1.208   1.227   1.314   1.358
  1.389   1.397   1.421   1.430   1.568   1.605   1.641   1.660
  1.733   1.792   1.841   1.860   1.920   1.960   2.015   2.042
  2.060   2.082   2.101   2.133   2.156   2.186   2.211   2.261
  2.328   2.338   2.410   2.433   2.482   2.669   2.697   2.717
  2.730   2.816   2.827   2.882   2.948   3.052   3.115   3.148
  3.201   3.311   3.329   3.467   3.480   3.551   3.656   4.215
  4.440   4.494   4.642   5.639
 
 Beta MOs
 -- Occupied --
-24.747 -24.664 -10.266 -10.242 -10.179  -1.459  -1.172  -0.774
 -0.702  -0.661  -0.639  -0.606  -0.551  -0.484  -0.437  -0.409
 -0.387  -0.378  -0.325  -0.298  -0.273
 -- Virtual --
  0.103   0.122   0.134   0.155   0.177   0.194   0.210   0.246
  0.253   0.293   0.497   0.542   0.555   0.583   0.606   0.624
  0.665   0.691   0.802   0.841   0.868   0.875   0.889   0.910
  0.934   1.002   1.036   1.115   1.208   1.227   1.314   1.358
  1.389   1.397   1.421   1.430   1.568   1.605   1.641   1.660
  1.733   1.792   1.841   1.860   1.920   1.960   2.015   2.042
  2.060   2.082   2.101   2.133   2.156   2.186   2.211   2.261
  2.328   2.338   2.410   2.433   2.482   2.669   2.697   2.717
  2.730   2.816   2.827   2.882   2.948   3.052   3.115   3.148
  3.201   3.311   3.329   3.467   3.480   3.551   3.656   4.215
  4.440   4.494   4.642   5.639
 --------------------------------------------------------------
 
          Ground-State Mulliken Net Atomic Charges

     Atom                 Charge (a.u.)    Spin (a.u.)
  --------------------------------------------------------
      1 F                    -0.332205       0.000000
      2 F                     0.105362       0.000000
      3 C                     0.156216      -0.000000
      4 C                     0.044836      -0.000000
      5 C                    -0.347208      -0.000000
      6 H                     0.071399      -0.000000
      7 H                    -0.027418       0.000000
      8 H                    -0.012029       0.000000
      9 H                     0.117967      -0.000000
     10 H                     0.106248       0.000000
     11 H                     0.116833      -0.000000
  --------------------------------------------------------
  Sum of atomic charges =     0.000000
  Sum of spin   charges =    -0.000000

 -----------------------------------------------------------------
                    Cartesian Multipole Moments
 -----------------------------------------------------------------
    Charge (ESU x 10^10)
                 0.0000
    Dipole Moment (Debye)
         X       0.3143      Y       1.3024      Z      -0.5896
       Tot       1.4638
    Quadrupole Moments (Debye-Ang)
        XX     -27.9613     XY      -0.6723     YY     -31.5803
        XZ       0.2246     YZ       0.1030     ZZ     -28.7113
    Octopole Moments (Debye-Ang^2)
       XXX      14.9915    XXY      -4.0215    XYY       5.7322
       YYY     -11.5511    XXZ      -0.5069    XYZ      -0.3397
       YYZ      -1.2460    XZZ       4.8195    YZZ      -4.7176
       ZZZ      -2.2223
    Hexadecapole Moments (Debye-Ang^3)
      XXXX    -282.5935   XXXY       6.2944   XXYY     -70.4581
      XYYY      -0.1724   YYYY    -139.5035   XXXZ      -2.6735
      XXYZ      -0.3730   XYYZ      -1.0702   YYYZ      -3.4556
      XXZZ     -56.2437   XYZZ       0.7565   YYZZ     -32.6024
      XZZZ      -6.4572   YZZZ      -2.2551   ZZZZ     -57.0956
 -----------------------------------------------------------------
 Calculating analytic gradient of the SCF energy
 Gradient of SCF Energy
            1           2           3           4           5           6
    1  -0.0020797  -0.8148148   0.0280822   0.7602014  -0.0000376  -0.0006526
    2   0.0088476   0.4512553  -0.0150587  -0.4173472   0.0034403   0.0010323
    3  -0.0021700   0.2767999   0.0008481  -0.2581514   0.0011822   0.0018218
            7           8           9          10          11
    1   0.0147127   0.0156034  -0.0007409  -0.0004271   0.0001529
    2  -0.0207158  -0.0106746  -0.0006932   0.0002694  -0.0003555
    3  -0.0033752  -0.0170723  -0.0001325   0.0001697   0.0000795
 Max gradient component =       8.148E-01
 RMS gradient           =       2.313E-01
 Gradient time:  CPU 8.61 s  wall 0.75 s
 Geometry Optimization Parameters
   NAtoms,    NIC,     NZ,  NCons,   NDum,   NFix, NCnnct, MaxDiis
       11      68       0       1       0       0       0       0

 Cartesian Hessian Update
 Hessian Updated using BFGS Update


** CONSTRAINED OPTIMIZATION IN DELOCALIZED INTERNAL COORDINATES **
   Searching for a Minimum

   Optimization Cycle:   4

                       Coordinates (Angstroms)
     ATOM                X               Y               Z
      1  F        -0.4684704728   -1.3482661259    0.1563539719
      2  F         1.6845323921    0.1408484061   -0.0465033207
      3  C        -0.4176887281   -0.0475965408   -0.3368730680
      4  C         0.8472405052    0.6056995031    0.2396602345
      5  C        -1.7081448269    0.6719655577    0.0285271804
      6  H        -0.3056698652   -0.1168400992   -1.4283446013
      7  H         0.8225433694    1.6708223003   -0.0791108902
      8  H         0.7141387657    0.5899481536    1.3430122154
      9  H        -1.8309002629    0.6999394359    1.1159537670
     10  H        -1.7129950231    1.6981126934   -0.3514969393
     11  H        -2.5708858534    0.1457667159   -0.3894785497
   Point Group: c1    Number of degrees of freedom:    27


   Energy is   -317.379068712

              Constraints and their Current Values
                                        Value     Constraint
   Distance(Angs):        2   4             0.999517     0.800000
 Hessian Updated using BFGS Update
**WARNING** Constraint Gradient Reduced for constraint   1

   Using Lagrange Multiplier Algorithm


 27 Hessian modes will be used to form the next step
  Hessian Eigenvalues:
    -0.327517    0.339212    0.339281    0.555315    0.560448    0.621943
     0.632784    0.633177    0.642036    0.848690    1.151508    1.206324
     1.206326    1.206409    1.336722    1.663796    1.737365    2.243448
     2.320529    2.498752    2.581904    2.583941    2.587918    2.590016
     2.593958    3.618820    4.161853

 Minimum Search - Taking P-RFO Step
 Searching for Lamda that Maximizes Along the Constraint modes Only
 Value Taken    Lamda =   0.15284602
 Searching for Lamda that Minimizes Along All other modes
 Value Taken    Lamda =  -0.01958216
 Calculated Step too Large.  Step scaled by  0.880100
 Step Taken.  Stepsize is  0.300000

                             Maximum     Tolerance    Cnvgd?
         Gradient            0.300000       0.000300      NO
         Displacement        0.479754       0.001200      NO
         Energy change      0.118502       0.000001      NO


 New Cartesian Coordinates Obtained by Inverse Iteration

 Displacement from previous Coordinates is:  0.214417
 ----------------------------------------------------------------
             Standard Nuclear Orientation (Angstroms)
    I     Atom           X                Y                Z
 ----------------------------------------------------------------
    1      F      -0.4616386494    -1.3663429377     0.1511503692
    2      F       1.6560275355     0.1772078592    -0.0201579957
    3      C      -0.4124809160    -0.0535115041    -0.3404238236
    4      C       0.8912109059     0.5792680095     0.2231824831
    5      C      -1.6950852970     0.6761212812     0.0328081713
    6      H      -0.3056009132    -0.1222100049    -1.4348911829
    7      H       0.7761271065     1.6594144289    -0.0823512718
    8      H       0.6674778376     0.5894737713     1.3280344398
    9      H      -1.8044381640     0.7079938227     1.1215011122
   10      H      -1.6905097397     1.7017434903    -0.3484659601
   11      H      -2.5673897062     0.1612417836    -0.3786863414
 ----------------------------------------------------------------
 Nuclear Repulsion Energy =   204.8368552757 hartrees
 There are       21 alpha and       21 beta electrons

                       Distance Matrix (Angstroms)
             F (  1)   F (  2)   C (  3)   C (  4)   C (  5)   H (  6)
   F (  2)  2.626101
   C (  3)  1.402707  2.105832
   C (  4)  2.370821  0.897670  1.554887
   C (  5)  2.388944  3.388462  1.522084  2.595101
   H (  6)  2.021817  2.437028  1.101817  2.161860  2.173049
   H (  7)  3.277468  1.724827  2.100835  1.128411  2.662145  2.484690
   H (  8)  2.546601  1.721864  2.088898  1.127324  2.695705  3.014487
   H (  9)  2.654725  3.682383  2.157466  2.844305  1.094635  3.077482
   H ( 10)  3.342588  3.692060  2.171254  2.872632  1.094208  2.534778
   H ( 11)  2.654888  4.238638  2.165921  3.535380  1.093318  2.512290
             H (  7)   H (  8)   H (  9)   H ( 10)
   H (  8)  1.773631
   H (  9)  3.002296  2.483359
   H ( 10)  2.481311  3.099662  1.778010
   H ( 11)  3.675791  3.682478  1.769631  1.772844
 
 Applying Cartesian multipole field
    Component          Value
    ---------          -----
     (2,0,0)        1.00000E-11
     (0,2,0)        2.00000E-11
     (0,0,2)       -3.00000E-10
 Nucleus-field energy     =    -0.0000000027 hartrees
 Requested basis set is 6-31G(d,p)
 There are 38 shells and 105 basis functions
 A cutoff of  1.0D-14 yielded    726 shell pairs
 There are      5677 function pairs
 Smallest overlap matrix eigenvalue = 1.91E-03
 Guess from superposition of atomic densities
 Warning:  Energy on first SCF cycle will be non-variational
 SAD guess density has 42.000000 electrons

 -----------------------------------------------------------------------
  General SCF calculation program by
  Eric Jon Sundstrom, Paul Horn, Yuezhi Mao, Dmitri Zuev, Alec White,
  David Stuck, Shaama M.S., Shane Yost, Joonho Lee, David Small,
  Daniel Levine, Susi Lehtola, Hugh Burton, Evgeny Epifanovsky
 -----------------------------------------------------------------------
 Exchange:     0.2000 Hartree-Fock + 0.0800 Slater + 0.7200 B88
 Correlation:  0.1900 VWN1RPA + 0.8100 LYP
 Using SG-1 standard quadrature grid
 using 12 threads for integral computing
 -------------------------------------------------------
 OpenMP Integral computing Module                
 Release: version 1.0, May 2013, Q-Chem Inc. Pittsburgh 
 -------------------------------------------------------
 -------------------------------------------------------
 OpenMP BLAS3 based DFT computing Module                
 Release: version 1.0, May 2013, Q-Chem Inc. Pittsburgh 
 -------------------------------------------------------
 A unrestricted SCF calculation will be
 performed using DIIS
 SCF converges when DIIS error is below 1.0e-06
 Alpha HF Exchange    Energy =  -3.87599585240860
 Beta HF Exchange     Energy =  -3.87599585240860
 DFT Correlation      Energy =  -1.87340815002996
 DFT Exchange         Energy = -29.86726780138785
 One-Electron (alpha) Energy = -419.04204511423205
 One-Electron (beta)  Energy = -419.04204511423205
 Total Coulomb        Energy = 353.61378989958700
 ---------------------------------------
  Cycle       Energy         DIIS error
 ---------------------------------------
    1    -319.1261127122      4.70e-02  
 Alpha HF Exchange    Energy =  -3.86369130838263
 Beta HF Exchange     Energy =  -3.86369130838263
 DFT Correlation      Energy =  -1.90010498433202
 DFT Exchange         Energy = -30.69198054633780
 One-Electron (alpha) Energy = -422.42292768064317
 One-Electron (beta)  Energy = -422.42292768064306
 Total Coulomb        Energy = 363.28232570981498
    2    -317.0461425260      4.13e-03  
 Alpha HF Exchange    Energy =  -3.78083855084514
 Beta HF Exchange     Energy =  -3.78083855084513
 DFT Correlation      Energy =  -1.87374138710758
 DFT Exchange         Energy = -30.02248368732129
 One-Electron (alpha) Energy = -418.30769728607936
 One-Electron (beta)  Energy = -418.30769728607902
 Total Coulomb        Energy = 354.19467856088738
    3    -317.0417629144      4.28e-03  
 Alpha HF Exchange    Energy =  -3.82402708094910
 Beta HF Exchange     Energy =  -3.82402708094910
 DFT Correlation      Energy =  -1.88761871227027
 DFT Exchange         Energy = -30.36707264744934
 One-Electron (alpha) Energy = -420.51807859405176
 One-Electron (beta)  Energy = -420.51807859405187
 Total Coulomb        Energy = 358.97707500481715
    4    -317.1249724320      3.79e-04  
 Alpha HF Exchange    Energy =  -3.82184857276258
 Beta HF Exchange     Energy =  -3.82184857276259
 DFT Correlation      Energy =  -1.88742771213978
 DFT Exchange         Energy = -30.35192471578523
 One-Electron (alpha) Energy = -420.47789402389634
 One-Electron (beta)  Energy = -420.47789402389674
 Total Coulomb        Energy = 358.87662786768163
    5    -317.1253544806      2.11e-04  
 Alpha HF Exchange    Energy =  -3.82218377265140
 Beta HF Exchange     Energy =  -3.82218377265140
 DFT Correlation      Energy =  -1.88723515022516
 DFT Exchange         Energy = -30.35358937187917
 One-Electron (alpha) Energy = -420.45047242540971
 One-Electron (beta)  Energy = -420.45047242541000
 Total Coulomb        Energy = 358.82374191592226
    6    -317.1255397294      2.70e-05  
 Alpha HF Exchange    Energy =  -3.82215354986879
 Beta HF Exchange     Energy =  -3.82215354986879
 DFT Correlation      Energy =  -1.88724234747026
 DFT Exchange         Energy = -30.35335122627747
 One-Electron (alpha) Energy = -420.45141836433697
 One-Electron (beta)  Energy = -420.45141836433680
 Total Coulomb        Energy = 358.82533973539046
    7    -317.1255423938      8.62e-06  
 Alpha HF Exchange    Energy =  -3.82216764930625
 Beta HF Exchange     Energy =  -3.82216764930625
 DFT Correlation      Energy =  -1.88725228990647
 DFT Exchange         Energy = -30.35348602257216
 One-Electron (alpha) Energy = -420.45327116132091
 One-Electron (beta)  Energy = -420.45327116132103
 Total Coulomb        Energy = 358.82921800681527
    8    -317.1255426540      1.64e-06  
 Alpha HF Exchange    Energy =  -3.82216696372380
 Beta HF Exchange     Energy =  -3.82216696372380
 DFT Correlation      Energy =  -1.88725150045766
 DFT Exchange         Energy = -30.35347774401156
 One-Electron (alpha) Energy = -420.45308168827586
 One-Electron (beta)  Energy = -420.45308168827592
 Total Coulomb        Energy = 358.82882861135846
    9    -317.1255426642      3.82e-07  Convergence criterion met
 ---------------------------------------
 SCF time:   CPU 21.92s  wall 2.00s 
<S^2> =          0.000000000
 Alpha HF Exchange    Energy =  -3.82216696372380
 Beta HF Exchange     Energy =  -3.82216696372380
 DFT Correlation      Energy =  -1.88725150045766
 DFT Exchange         Energy = -30.35347774401156
 One-Electron (alpha) Energy = -420.45308168827586
 One-Electron (beta)  Energy = -420.45308168827592
 Total Coulomb        Energy = 358.82882861135846
 Nuclear repulsion Energy = 204.83685527294270
 SCF   energy in the final basis set =     -317.1255426642
 Total energy in the final basis set =     -317.1255426642
 
 --------------------------------------------------------------
 
                    Orbital Energies (a.u.)
 --------------------------------------------------------------
 
 Alpha MOs
 -- Occupied --
-24.794 -24.658 -10.295 -10.232 -10.175  -1.573  -1.163  -0.774
 -0.732  -0.718  -0.715  -0.634  -0.556  -0.479  -0.432  -0.405
 -0.382  -0.373  -0.321  -0.279  -0.255
 -- Virtual --
  0.106   0.125   0.141   0.157   0.179   0.198   0.225   0.251
  0.258   0.291   0.475   0.532   0.546   0.579   0.603   0.616
  0.668   0.690   0.814   0.834   0.873   0.879   0.893   0.915
  0.950   0.998   1.108   1.169   1.203   1.247   1.324   1.350
  1.381   1.402   1.420   1.434   1.564   1.577   1.632   1.655
  1.767   1.795   1.843   1.886   1.923   1.968   2.006   2.047
  2.066   2.085   2.097   2.131   2.172   2.209   2.234   2.260
  2.343   2.354   2.426   2.453   2.483   2.678   2.721   2.725
  2.759   2.815   2.871   2.886   2.981   3.075   3.142   3.183
[...]
      9  H        -1.7070788937    0.7287247549    1.1360566810
     10  H        -1.7102477032    1.6699828537   -0.3701935161
     11  H        -2.5860892336    0.1314210496   -0.2859829481
   Point Group: c1    Number of degrees of freedom:    27


   Energy is   -316.674889850

              Constraints and their Current Values
                                        Value     Constraint
   Distance(Angs):        2   4             0.800000     0.800000
 Hessian Updated using BFGS Update

 26 Hessian modes will be used to form the next step
  Hessian Eigenvalues:
     0.003861    0.061615    0.100990    0.227916    0.332727    0.346409
     0.488117    0.621558    0.631934    0.663083    0.693830    0.947758
     1.026272    1.194914    1.207853    1.222898    1.242970    1.609333
     2.153891    2.295171    2.440266    2.537724    2.582081    2.583558
     2.590052    3.860271

 Minimum Search - Taking Simple RFO Step
 Searching for Lamda that Minimizes Along All modes
 Value Taken    Lamda =   0.00000000
 Step Taken.  Stepsize is  0.002701

                             Maximum     Tolerance    Cnvgd?
         Gradient           0.000257      0.000300     YES
         Displacement       0.001388      0.001200      NO
         Energy change     -0.000001      0.000001      NO


 New Cartesian Coordinates Obtained by Inverse Iteration

 Displacement from previous Coordinates is:  0.003425
 ----------------------------------------------------------------
             Standard Nuclear Orientation (Angstroms)
    I     Atom           X                Y                Z
 ----------------------------------------------------------------
    1      F      -0.4527983162    -1.4075055288     0.0405931159
    2      F       1.6294427413     0.1420051738     0.1131957389
    3      C      -0.4408488915    -0.0587179390    -0.4082663572
    4      C       0.9498045940     0.5440566235     0.2414409771
    5      C      -1.6849834681     0.6570765937     0.0435038176
    6      H      -0.3685525223    -0.1060532342    -1.5083042849
    7      H       0.8618837939     1.7082190914    -0.1328297069
    8      H       0.5633120112     0.7011615584     1.3823225535
    9      H      -1.7073693770     0.7287883113     1.1362134352
   10      H      -1.7103828384     1.6700890369    -0.3700620826
   11      H      -2.5858077271     0.1312803131    -0.2861072065
 ----------------------------------------------------------------
 Nuclear Repulsion Energy =   206.4663021352 hartrees
 There are       21 alpha and       21 beta electrons

                       Distance Matrix (Angstroms)
             F (  1)   F (  2)   C (  3)   C (  4)   C (  5)   H (  6)
   F (  2)  2.596533
   C (  3)  1.421564  2.144369
   C (  4)  2.411686  0.800000  1.649052
   C (  5)  2.404327  3.354933  1.504769  2.644629
   H (  6)  2.024835  2.585107  1.103427  2.285239  2.173354
   H (  7)  3.386178  1.761449  2.212475  1.226003  2.760892  2.587951
   H (  8)  2.697998  1.749278  2.189056  1.214771  2.617100  3.142561
   H (  9)  2.708890  3.539095  2.147011  2.809861  1.095289  3.079426
   H ( 10)  3.349887  3.704459  2.145216  2.952708  1.094475  2.500157
   H ( 11)  2.650344  4.234134  2.156820  3.598506  1.093887  2.542895
             H (  7)   H (  8)   H (  9)   H ( 10)
   H (  8)  1.843637
   H (  9)  3.028336  2.284147
   H ( 10)  2.583464  3.029746  1.776210
   H ( 11)  3.794312  3.609069  1.775293  1.772385
 
 Applying Cartesian multipole field
    Component          Value
    ---------          -----
     (2,0,0)        1.00000E-11
     (0,2,0)        2.00000E-11
     (0,0,2)       -3.00000E-10
 Nucleus-field energy     =    -0.0000000034 hartrees
 Requested basis set is 6-31G(d,p)
 There are 38 shells and 105 basis functions
 A cutoff of  1.0D-14 yielded    726 shell pairs
 There are      5677 function pairs
 Smallest overlap matrix eigenvalue = 1.74E-03
 Guess from superposition of atomic densities
 Warning:  Energy on first SCF cycle will be non-variational
 SAD guess density has 42.000000 electrons

 -----------------------------------------------------------------------
  General SCF calculation program by
  Eric Jon Sundstrom, Paul Horn, Yuezhi Mao, Dmitri Zuev, Alec White,
  David Stuck, Shaama M.S., Shane Yost, Joonho Lee, David Small,
  Daniel Levine, Susi Lehtola, Hugh Burton, Evgeny Epifanovsky
 -----------------------------------------------------------------------
 Exchange:     0.2000 Hartree-Fock + 0.0800 Slater + 0.7200 B88
 Correlation:  0.1900 VWN1RPA + 0.8100 LYP
 Using SG-1 standard quadrature grid
 using 12 threads for integral computing
 -------------------------------------------------------
 OpenMP Integral computing Module                
 Release: version 1.0, May 2013, Q-Chem Inc. Pittsburgh 
 -------------------------------------------------------
 -------------------------------------------------------
 OpenMP BLAS3 based DFT computing Module                
 Release: version 1.0, May 2013, Q-Chem Inc. Pittsburgh 
 -------------------------------------------------------
 A unrestricted SCF calculation will be
 performed using DIIS
 SCF converges when DIIS error is below 1.0e-06
 Alpha HF Exchange    Energy =  -3.88526454634630
 Beta HF Exchange     Energy =  -3.88526454634630
 DFT Correlation      Energy =  -1.87329975350324
 DFT Exchange         Energy = -29.89692514758290
 One-Electron (alpha) Energy = -419.96925614484604
 One-Electron (beta)  Energy = -419.96925614484604
 Total Coulomb        Energy = 353.86339288021094
 ---------------------------------------
  Cycle       Energy         DIIS error
 ---------------------------------------
    1    -319.1495712715      5.19e-02  
 Alpha HF Exchange    Energy =  -3.87026118294392
 Beta HF Exchange     Energy =  -3.87026118294392
 DFT Correlation      Energy =  -1.89923492128691
 DFT Exchange         Energy = -30.75501399029204
 One-Electron (alpha) Energy = -423.13795583612449
 One-Electron (beta)  Energy = -423.13795583612466
 Total Coulomb        Energy = 363.61289950019966
    2    -316.5914813177      4.35e-03  
 Alpha HF Exchange    Energy =  -3.78638531196714
 Beta HF Exchange     Energy =  -3.78638531196714
 DFT Correlation      Energy =  -1.87311958022210
 DFT Exchange         Energy = -30.07540293694201
 One-Electron (alpha) Energy = -419.00533832348850
 One-Electron (beta)  Energy = -419.00533832348856
 Total Coulomb        Energy = 354.47636619795696
    3    -316.5893014583      4.34e-03  
 Alpha HF Exchange    Energy =  -3.83076475338454
 Beta HF Exchange     Energy =  -3.83076475338453
 DFT Correlation      Energy =  -1.88744289072347
 DFT Exchange         Energy = -30.43017133264440
 One-Electron (alpha) Energy = -421.31199215096836
 One-Electron (beta)  Energy = -421.31199215096791
 Total Coulomb        Energy = 359.46283476639275
    4    -316.6739911339      4.67e-04  
 Alpha HF Exchange    Energy =  -3.82748666374780
 Beta HF Exchange     Energy =  -3.82748666374781
 DFT Correlation      Energy =  -1.88679481811325
 DFT Exchange         Energy = -30.40614257927613
 One-Electron (alpha) Energy = -421.19392077437021
 One-Electron (beta)  Energy = -421.19392077437016
 Total Coulomb        Energy = 359.19478721399520
    5    -316.6746629278      2.33e-04  
 Alpha HF Exchange    Energy =  -3.82786203626525
 Beta HF Exchange     Energy =  -3.82786203626525
 DFT Correlation      Energy =  -1.88660345797043
 DFT Exchange         Energy = -30.40809345980838
 One-Electron (alpha) Energy = -421.16917838273076
 One-Electron (beta)  Energy = -421.16917838273059
 Total Coulomb        Energy = 359.14758910145713
    6    -316.6748865225      2.88e-05  
 Alpha HF Exchange    Energy =  -3.82787026963253
 Beta HF Exchange     Energy =  -3.82787026963254
 DFT Correlation      Energy =  -1.88663843293194
 DFT Exchange         Energy = -30.40820067741491
 One-Electron (alpha) Energy = -421.17531217919918
 One-Electron (beta)  Energy = -421.17531217919935
 Total Coulomb        Energy = 359.16001161853347
    7    -316.6748902577      4.74e-06  
 Alpha HF Exchange    Energy =  -3.82786410949268
 Beta HF Exchange     Energy =  -3.82786410949268
 DFT Correlation      Energy =  -1.88663731342847
 DFT Exchange         Energy = -30.40815444316361
 One-Electron (alpha) Energy = -421.17474372756357
 One-Electron (beta)  Energy = -421.17474372756345
 Total Coulomb        Energy = 359.15881492889650
    8    -316.6748903700      1.41e-06  
 Alpha HF Exchange    Energy =  -3.82786904869917
 Beta HF Exchange     Energy =  -3.82786904869917
 DFT Correlation      Energy =  -1.88663888237389
 DFT Exchange         Energy = -30.40819363962969
 One-Electron (alpha) Energy = -421.17513101764888
 One-Electron (beta)  Energy = -421.17513101764888
 Total Coulomb        Energy = 359.15964014385838
    9    -316.6748903791      3.98e-07  Convergence criterion met
 ---------------------------------------
 SCF time:   CPU 21.74s  wall 2.00s 
<S^2> =         -0.000000000
 Alpha HF Exchange    Energy =  -3.82786904869917
 Beta HF Exchange     Energy =  -3.82786904869917
 DFT Correlation      Energy =  -1.88663888237389
 DFT Exchange         Energy = -30.40819363962969
 One-Electron (alpha) Energy = -421.17513101764888
 One-Electron (beta)  Energy = -421.17513101764888
 Total Coulomb        Energy = 359.15964014385838
 Nuclear repulsion Energy = 206.46630213178125
 SCF   energy in the final basis set =     -316.6748903791
 Total energy in the final basis set =     -316.6748903791
 
 --------------------------------------------------------------
 
                    Orbital Energies (a.u.)
 --------------------------------------------------------------
 
 Alpha MOs
 -- Occupied --
-24.878 -24.652 -10.372 -10.226 -10.170  -1.700  -1.153  -0.834
 -0.827  -0.796  -0.747  -0.627  -0.553  -0.471  -0.426  -0.401
 -0.377  -0.367  -0.319  -0.252  -0.234
 -- Virtual --
  0.103   0.122   0.140   0.158   0.178   0.200   0.220   0.251
  0.267   0.279   0.448   0.484   0.549   0.582   0.589   0.614
  0.670   0.686   0.770   0.820   0.874   0.887   0.898   0.921
  0.958   0.983   1.099   1.172   1.215   1.274   1.321   1.352
  1.396   1.405   1.435   1.442   1.496   1.537   1.630   1.668
  1.778   1.807   1.848   1.898   1.916   1.956   1.989   2.045
  2.060   2.074   2.087   2.113   2.131   2.216   2.226   2.255
  2.316   2.353   2.413   2.445   2.461   2.648   2.692   2.703
  2.764   2.769   2.863   2.876   2.921   3.029   3.110   3.196
  3.323   3.362   3.455   3.481   3.558   3.600   4.184   4.369
  4.487   4.637   4.876   6.744
 
 Beta MOs
 -- Occupied --
-24.878 -24.652 -10.372 -10.226 -10.170  -1.700  -1.153  -0.834
 -0.827  -0.796  -0.747  -0.627  -0.553  -0.471  -0.426  -0.401
 -0.377  -0.367  -0.319  -0.252  -0.234
 -- Virtual --
  0.103   0.122   0.140   0.158   0.178   0.200   0.220   0.251
  0.267   0.279   0.448   0.484   0.549   0.582   0.589   0.614
  0.670   0.686   0.770   0.820   0.874   0.887   0.898   0.921
  0.958   0.983   1.099   1.172   1.215   1.274   1.321   1.352
  1.396   1.405   1.435   1.442   1.496   1.537   1.630   1.668
  1.778   1.807   1.848   1.898   1.916   1.956   1.989   2.045
  2.060   2.074   2.087   2.113   2.131   2.216   2.226   2.255
  2.316   2.353   2.413   2.445   2.461   2.648   2.692   2.703
  2.764   2.769   2.863   2.876   2.921   3.029   3.110   3.196
  3.323   3.362   3.455   3.481   3.558   3.600   4.184   4.369
  4.487   4.637   4.876   6.744
 --------------------------------------------------------------
 
          Ground-State Mulliken Net Atomic Charges

     Atom                 Charge (a.u.)    Spin (a.u.)
  --------------------------------------------------------
      1 F                    -0.354876       0.000000
      2 F                     0.639208       0.000000
      3 C                     0.097064      -0.000000
      4 C                    -0.199965       0.000000
      5 C                    -0.337045      -0.000000
      6 H                     0.064951      -0.000000
      7 H                    -0.141557      -0.000000
      8 H                    -0.111010      -0.000000
      9 H                     0.118688       0.000000
     10 H                     0.110500       0.000000
     11 H                     0.114041       0.000000
  --------------------------------------------------------
  Sum of atomic charges =    -0.000000
  Sum of spin   charges =     0.000000

 -----------------------------------------------------------------
                    Cartesian Multipole Moments
 -----------------------------------------------------------------
    Charge (ESU x 10^10)
                 0.0000
    Dipole Moment (Debye)
         X       1.8812      Y       0.3719      Z      -0.8099
       Tot       2.0816
    Quadrupole Moments (Debye-Ang)
        XX     -24.5170     XY      -1.7143     YY     -34.1184
        XZ       0.1415     YZ      -0.2436     ZZ     -30.0420
    Octopole Moments (Debye-Ang^2)
       XXX      22.4329    XXY      -4.2092    XYY       4.0365
       YYY     -14.1892    XXZ      -0.2034    XYZ      -0.1385
       YYZ      -0.7653    XZZ       4.7403    YZZ      -5.4847
       ZZZ      -4.0936
    Hexadecapole Moments (Debye-Ang^3)
      XXXX    -260.6332   XXXY       4.3986   XXYY     -72.0272
      XYYY      -6.9919   YYYY    -156.7317   XXXZ      -6.1789
      XXYZ      -1.4480   XYYZ      -2.1403   YYYZ      -6.2437
      XXZZ     -56.0137   XYZZ      -0.7954   YYZZ     -36.0090
      XZZZ     -11.6746   YZZZ      -6.6996   ZZZZ     -67.2782
 -----------------------------------------------------------------
 Calculating analytic gradient of the SCF energy
 Gradient of SCF Energy
            1           2           3           4           5           6
    1  -0.0000328  -2.7960689   0.0000321   2.7959817  -0.0000148  -0.0000381
    2  -0.0002241   1.6539463   0.0002588  -1.6538982  -0.0000452  -0.0000828
    3   0.0000361   0.5275516  -0.0001570  -0.5273217   0.0000373   0.0000332
            7           8           9          10          11
    1   0.0001054   0.0000375  -0.0000421   0.0000301   0.0000099
    2   0.0000684  -0.0001311   0.0000224   0.0000568   0.0000289
    3  -0.0000799  -0.0001120   0.0000181   0.0000272  -0.0000329
 Max gradient component =       2.796E+00
 RMS gradient           =       8.102E-01
 Gradient time:  CPU 8.53 s  wall 0.73 s
 Geometry Optimization Parameters
   NAtoms,    NIC,     NZ,  NCons,   NDum,   NFix, NCnnct, MaxDiis
       11      68       0       1       0       0       0       0

 Cartesian Hessian Update
 Hessian Updated using BFGS Update


** CONSTRAINED OPTIMIZATION IN DELOCALIZED INTERNAL COORDINATES **
   Searching for a Minimum

   Optimization Cycle:  32

                       Coordinates (Angstroms)
     ATOM                X               Y               Z
      1  F        -0.4527983162   -1.4075055288    0.0405931159
      2  F         1.6294427413    0.1420051738    0.1131957389
      3  C        -0.4408488915   -0.0587179390   -0.4082663572
      4  C         0.9498045940    0.5440566235    0.2414409771
      5  C        -1.6849834681    0.6570765937    0.0435038176
      6  H        -0.3685525223   -0.1060532342   -1.5083042849
      7  H         0.8618837939    1.7082190914   -0.1328297069
      8  H         0.5633120112    0.7011615584    1.3823225535
      9  H        -1.7073693770    0.7287883113    1.1362134352
     10  H        -1.7103828384    1.6700890369   -0.3700620826
     11  H        -2.5858077271    0.1312803131   -0.2861072065
   Point Group: c1    Number of degrees of freedom:    27


   Energy is   -316.674890379

              Constraints and their Current Values
                                        Value     Constraint
   Distance(Angs):        2   4             0.800000     0.800000
 Hessian Updated using BFGS Update

 26 Hessian modes will be used to form the next step
  Hessian Eigenvalues:
     0.003883    0.058683    0.104966    0.193857    0.270083    0.345815
     0.493508    0.621885    0.631913    0.661602    0.727992    0.952779
     1.024646    1.192989    1.207202    1.215891    1.242911    1.610159
     2.114116    2.295182    2.426089    2.538228    2.581364    2.583565
     2.589720    3.814269

 Minimum Search - Taking Simple RFO Step
 Searching for Lamda that Minimizes Along All modes
 Value Taken    Lamda =   0.00000000
 Step Taken.  Stepsize is  0.001310

                             Maximum     Tolerance    Cnvgd?
         Gradient           0.000147      0.000300     YES
         Displacement       0.000626      0.001200     YES
         Energy change     -0.000001      0.000001     YES


                       Distance Matrix (Angstroms)
             F (  1)   F (  2)   C (  3)   C (  4)   C (  5)   H (  6)
   F (  2)  2.596533
   C (  3)  1.421564  2.144369
   C (  4)  2.411686  0.800000  1.649052
   C (  5)  2.404327  3.354933  1.504769  2.644629
   H (  6)  2.024835  2.585107  1.103427  2.285239  2.173354
   H (  7)  3.386178  1.761449  2.212475  1.226003  2.760892  2.587951
   H (  8)  2.697998  1.749278  2.189056  1.214771  2.617100  3.142561
   H (  9)  2.708890  3.539095  2.147011  2.809861  1.095289  3.079426
   H ( 10)  3.349887  3.704459  2.145216  2.952708  1.094475  2.500157
   H ( 11)  2.650344  4.234134  2.156820  3.598506  1.093887  2.542895
             H (  7)   H (  8)   H (  9)   H ( 10)
   H (  8)  1.843637
   H (  9)  3.028336  2.284147
   H ( 10)  2.583464  3.029746  1.776210
   H ( 11)  3.794312  3.609069  1.775293  1.772385
 
 Final energy is   -316.674890379060     


 ******************************
 **  OPTIMIZATION CONVERGED  **
 ******************************

                       Coordinates (Angstroms)
     ATOM                X               Y               Z
      1  F        -0.4527983162   -1.4075055288    0.0405931159
      2  F         1.6294427413    0.1420051738    0.1131957389
      3  C        -0.4408488915   -0.0587179390   -0.4082663572
      4  C         0.9498045940    0.5440566235    0.2414409771
      5  C        -1.6849834681    0.6570765937    0.0435038176
      6  H        -0.3685525223   -0.1060532342   -1.5083042849
      7  H         0.8618837939    1.7082190914   -0.1328297069
      8  H         0.5633120112    0.7011615584    1.3823225535
      9  H        -1.7073693770    0.7287883113    1.1362134352
     10  H        -1.7103828384    1.6700890369   -0.3700620826
     11  H        -2.5858077271    0.1312803131   -0.2861072065

Z-matrix Print:
$molecule
0 1
F 
C  1 0.800000
H  2 1.214771 1 119.067814
H  2 1.226003 1 119.288051 3 119.792222 0
C  2 1.649052 1 118.006209 3 -119.255281 0
H  5 1.103427 2 110.683511 1 -60.806190 0
F  5 1.421564 2 103.267719 1 52.187007 0
C  5 1.504769 2 113.896045 1 172.009639 0
H  8 1.093887 5 111.208396 2 -171.206789 0
H  8 1.094475 5 110.244103 2 68.811596 0
H  8 1.095289 5 110.338229 2 -50.910439 0
$end

PES scan, value:    0.8000 energy: -316.6748903791
------- Summary of potential scan: ------ 
    0.8000      -316.6748903791
----------------------------------------- 
Archival summary:
1\1\hpc0244\JobtypUnspecified\ProcedureUnspecified\6-31G**\236\knomura\WedMar1318:20:372019WedMar1318:20:372019\0\\#,JobtypUnspecified,ProcedureUnspecified,6-31G**,\\0,1\F\C,1,0.8\H,2,1.21477,1,119.068\H,2,1.226,1,119.288,3,119.792,0\C,2,1.64905,1,118.006,3,-119.255,0\H,5,1.10343,2,110.684,1,-60.8062,0\F,5,1.42156,2,103.268,1,52.187,0\C,5,1.50477,2,113.896,1,172.01,0\H,8,1.09389,5,111.208,2,-171.207,0\H,8,1.09448,5,110.244,2,68.8116,0\H,8,1.09529,5,110.338,2,-50.9104,0\\\@

 Total job time:  94.32s(wall), 1094.81s(cpu) 
 Wed Mar 13 18:20:37 2019

        *************************************************************
        *                                                           *
        *  Thank you very much for using Q-Chem.  Have a nice day.  *
        *                                                           *
        *************************************************************


