
Running Job 1 of 1 halogens/Flourine/03/F_2_4.xyz.data/inputs/bond_singlet_2.5.in
qchem halogens/Flourine/03/F_2_4.xyz.data/inputs/bond_singlet_2.5.in_4265.0 /staging/scratch/2868761/qchem4265/ 1
/usr/usc/qchem/5.1.1/exe/qcprog.exe_s halogens/Flourine/03/F_2_4.xyz.data/inputs/bond_singlet_2.5.in_4265.0 /staging/scratch/2868761/qchem4265/
Check license passed

                  Welcome to Q-Chem
     A Quantum Leap Into The Future Of Chemistry


 Q-Chem 5.1, Q-Chem, Inc., Pleasanton, CA (2018)

 Yihan Shao,  Zhengting Gan,  E. Epifanovsky,  A. T. B. Gilbert,  M. Wormit,  
 J. Kussmann,  A. W. Lange,  A. Behn,  Jia Deng,  Xintian Feng,  D. Ghosh,  
 M. Goldey,  P. R. Horn,  L. D. Jacobson,  I. Kaliman,  T. Kus,  A. Landau,  
 Jie Liu,  E. I. Proynov,  R. M. Richard,  R. P. Steele,  E. J. Sundstrom,  
 H. L. Woodcock III,  P. M. Zimmerman,  D. Zuev,  B. Albrecht,  E. Alguire,  
 S. A. Baeppler,  D. Barton,  Z. Benda,  Y. A. Bernard,  E. J. Berquist,  
 K. B. Bravaya,  H. Burton,  D. Casanova,  Chun-Min Chang,  Yunqing Chen,  
 A. Chien,  K. D. Closser,  M. P. Coons,  S. Coriani,  S. Dasgupta,  
 A. L. Dempwolff,  M. Diedenhofen,  Hainam Do,  R. G. Edgar,  Po-Tung Fang,  
 S. Faraji,  S. Fatehi,  Qingguo Feng,  K. D. Fenk,  J. Fosso-Tande,  
 Qinghui Ge,  A. Ghysels,  G. Gidofalvi,  J. Gomes,  J. Gonthier,  A. Gunina,  
 D. Hait,  M. W. D. Hanson-Heine,  P. H. P. Harbach,  A. W. Hauser,  
 J. E. Herr,  E. G. Hohenstein,  Z. C. Holden,  Kerwin Hui,  B. C. Huynh,  
 T.-C. Jagau,  Hyunjun Ji,  B. Kaduk,  K. Khistyaev,  Jaehoon Kim,  
 P. Klunzinger,  K. Koh,  D. Kosenkov,  L. Koulias,  T. Kowalczyk,  
 C. M. Krauter,  A. Kunitsa,  Ka Un Lao,  A. Laurent,  K. V. Lawler,  
 Joonho Lee,  D. Lefrancois,  S. Lehtola,  D. S. Levine,  Yi-Pei Li,  
 You-Sheng Lin,  Fenglai Liu,  E. Livshits,  A. Luenser,  P. Manohar,  
 E. Mansoor,  S. F. Manzer,  Shan-Ping Mao,  Yuezhi Mao,  N. Mardirossian,  
 A. V. Marenich,  T. Markovich,  L. A. Martinez-Martinez,  S. A. Maurer,  
 N. J. Mayhall,  S. C. McKenzie,  J.-M. Mewes,  A. F. Morrison,  
 J. W. Mullinax,  K. Nanda,  T. S. Nguyen-Beck,  R. Olivares-Amaya,  
 J. A. Parkhill,  T. M. Perrine,  F. Plasser,  P. Pokhilko,  S. Prager,  
 A. Prociuk,  E. Ramos,  D. R. Rehn,  F. Rob,  M. Schneider,  N. Sergueev,  
 S. M. Sharada,  S. Sharma,  D. W. Small,  T. Stauch,  T. Stein,  
 Yu-Chuan Su,  A. J. W. Thom,  A. Tkatchenko,  T. Tsuchimochi,  N. M. Tubman,  
 L. Vogt,  M. L. Vidal,  O. Vydrov,  M. A. Watson,  J. Wenzel,  
 M. de Wergifosse,  T. A. Wesolowski,  A. White,  J. Witte,  A. Yamada,  
 Jun Yang,  K. Yao,  S. Yeganeh,  S. R. Yost,  Zhi-Qiang You,  A. Zech,  
 Igor Ying Zhang,  Xing Zhang,  Yan Zhao,  Ying Zhu,  B. R. Brooks,  
 G. K. L. Chan,  C. J. Cramer,  M. S. Gordon,  W. J. Hehre,  A. Klamt,  
 M. W. Schmidt,  C. D. Sherrill,  D. G. Truhlar,  A. Aspuru-Guzik,  R. Baer,  
 A. T. Bell,  N. A. Besley,  Jeng-Da Chai,  A. E. DePrince, III,  
 R. A. DiStasio Jr.,  A. Dreuw,  B. D. Dunietz,  T. R. Furlani,  
 Chao-Ping Hsu,  Yousung Jung,  Jing Kong,  D. S. Lambrecht,  WanZhen Liang,  
 C. Ochsenfeld,  V. A. Rassolov,  L. V. Slipchenko,  J. E. Subotnik,  
 T. Van Voorhis,  J. M. Herbert,  A. I. Krylov,  P. M. W. Gill,  M. Head-Gordon

 Contributors to earlier versions of Q-Chem not listed above: 
 R. D. Adamson,  B. Austin,  J. Baker,  G. J. O. Beran,  K. Brandhorst,  
 S. T. Brown,  E. F. C. Byrd,  A. K. Chakraborty,  C.-L. Cheng,  
 Siu Hung Chien,  D. M. Chipman,  D. L. Crittenden,  H. Dachsel,  
 R. J. Doerksen,  A. D. Dutoi,  L. Fusti-Molnar,  W. A. Goddard III,  
 A. Golubeva-Zadorozhnaya,  S. R. Gwaltney,  G. Hawkins,  A. Heyden,  
 S. Hirata,  G. Kedziora,  F. J. Keil,  C. Kelley,  Jihan Kim,  R. A. King,  
 R. Z. Khaliullin,  P. P. Korambath,  W. Kurlancheek,  A. M. Lee,  M. S. Lee,  
 S. V. Levchenko,  Ching Yeh Lin,  D. Liotard,  R. C. Lochan,  I. Lotan,  
 P. E. Maslen,  N. Nair,  D. P. O'Neill,  D. Neuhauser,  E. Neuscamman,  
 C. M. Oana,  R. Olson,  B. Peters,  R. Peverati,  P. A. Pieniazek,  
 Y. M. Rhee,  J. Ritchie,  M. A. Rohrdanz,  E. Rosta,  N. J. Russ,  
 H. F. Schaefer III,  N. E. Schultz,  N. Shenvi,  A. C. Simmonett,  A. Sodt,  
 D. Stuck,  K. S. Thanthiriwatte,  V. Vanovschi,  Tao Wang,  A. Warshel,  
 C. F. Williams,  Q. Wu,  X. Xu,  W. Zhang

 Please cite Q-Chem as follows:
 Y. Shao et al., Mol. Phys. 113, 184-215 (2015)
 DOI: 10.1080/00268976.2014.952696

 Q-Chem 5.1.1 for Intel X86 EM64T Linux

 Parts of Q-Chem use Armadillo 8.300.2 (Tropical Shenanigans).
 http://arma.sourceforge.net/

 Q-Chem begins on Wed Mar 13 18:29:02 2019  

Host: 
0

     Scratch files written to /staging/scratch/2868761/qchem4265//
 Aug318 |scratch|qcdevops|jenkins|workspace|build_RNUM 6013   
Processing $rem in /usr/usc/qchem/5.1.1/config/preferences.
 MEM_TOTAL  2000 
Input Ideriv = 2
Curr. Ideriv = -1
Max.  Ideriv = 2

Checking the input file for inconsistencies... 	...done.

--------------------------------------------------------------
User input:
--------------------------------------------------------------

$comment
potential surface scanner
$end

$rem
JOBTYPE  PES_SCAN
UNRESTRICTED TRUE
SYM_IGNORE  TRUE
GEOM_OPT_MAX_CYCLES 400
SCF_MAX_CYCLES 400
METHOD   B3LYP
BASIS   6-31G**
PDB_PRINT 2
SCF_CONVERGENCE 6
THRESH 14
SCF_PRINT 1
$end
$molecule
0 1
F -0.613194 -1.272303 0.445727
F 2.324918 -0.010321 -0.926517
C -0.485194 -0.020154 -0.134145
C 0.581021 0.738634 0.542459
C -1.841462 0.698119 -0.064386
H -0.161746 -0.142733 -1.176118
H 0.764564 1.769471 0.265467
H 1.020792 0.360642 1.458564
H -2.152933 0.844723 0.973232
H -1.796522 1.667837 -0.566577
H -2.586545 0.076486 -0.566003
$end
$scan
stre 2 4 2.500000 2.501000 0.100000
$end
--------------------------------------------------------------
 ----------------------------------------------------------------
             Standard Nuclear Orientation (Angstroms)
    I     Atom           X                Y                Z
 ----------------------------------------------------------------
    1      F      -0.6131940000    -1.2723030000     0.4457270000
    2      F       2.3249180000    -0.0103210000    -0.9265170000
    3      C      -0.4851940000    -0.0201540000    -0.1341450000
    4      C       0.5810210000     0.7386340000     0.5424590000
    5      C      -1.8414620000     0.6981190000    -0.0643860000
    6      H      -0.1617460000    -0.1427330000    -1.1761180000
    7      H       0.7645640000     1.7694710000     0.2654670000
    8      H       1.0207920000     0.3606420000     1.4585640000
    9      H      -2.1529330000     0.8447230000     0.9732320000
   10      H      -1.7965220000     1.6678370000    -0.5665770000
   11      H      -2.5865450000     0.0764860000    -0.5660030000
 ----------------------------------------------------------------
 Nuclear Repulsion Energy =   173.6943648792 hartrees
 There are       21 alpha and       21 beta electrons
 Requested basis set is 6-31G(d,p)
 There are 38 shells and 105 basis functions

 Total QAlloc Memory Limit   2000 MB
 Mega-Array Size       188 MB
 MEM_STATIC part       192 MB
A total of 1 constraints
  
            1
    1   1.0100000
    2   2.0100000
    3   4.0100000
    4   2.5000000
    5   2.5010000
    6   0.1000000
    7   0.0000000
    8   0.0000000
    9   0.0000000
   10   0.0000000

                       Distance Matrix (Angstroms)
             F (  1)   F (  2)   C (  3)   C (  4)   C (  5)   H (  6)
   F (  2)  3.479677
   C (  3)  1.385826  2.919705
   C (  4)  2.340806  2.400000  1.473216
   C (  5)  2.377272  4.313221  1.536309  2.497664
   H (  6)  2.027342  2.502665  1.097885  2.069304  2.182757
   H (  7)  3.344114  2.650130  2.219086  1.083069  2.836894  2.567633
   H (  8)  2.522352  2.743532  2.224797  1.084216  3.259719  2.931439
   H (  9)  2.670366  4.938755  2.180745  2.769716  1.093233  3.091860
   H ( 10)  3.327078  4.464531  2.180801  2.783180  1.092963  2.514398
   H ( 11)  2.595562  4.925442  2.147444  3.420614  1.092335  2.509970
             H (  7)   H (  8)   H (  9)   H ( 10)
   H (  8)  1.863849
   H (  9)  3.141318  3.246908
   H ( 10)  2.694771  3.707723  1.782009
   H ( 11)  3.845448  4.146384  1.774106  1.776664
 
 A cutoff of  1.0D-14 yielded    709 shell pairs
 There are      5531 function pairs
 
 -------------------------------------------------------
 OpenMP Integral Computing Module                       
 Release: version 1.0, May 2013, Q-Chem Inc. Pittsburgh 
 -------------------------------------------------------
 Integral Job Info:
 Integral job number is                      11
 Integral operator is                         1
 short-range coefficients                     0
 long-range coefficients              100000000
 Omega coefficients                           0
 if combine SR and LR in K                    0
 Integral screening is                        0
 Integral computing path is                   2
 max size of driver memory is            800000
 size of driver memory is                593474
 size of scratch memory is              2361544
 max col of scratch BK array               1296
 max len of scratch array in speh3          155
 max len of scratch index in speh4           18
 max int batch size is                      520
 min int batch size is                       52
 fixed nKL is                                52
 max L of basis functions is                  2
 order of int derivative is                   0
 number of shells is                         38
 number of basis is                         105
 number of cartesian basis is               105
 number of contracted shell pairs           709
 number of primitive shell pairs           2582
 maxK2 (contraction) of shell pair           36
 max number of K2 of shell pair               1
 max number of CS2 of shell pair             60
 max number of PS2 of shell pair            264
 mem total for path MDJ                  519084
 -------------------------------------------------------
 Smallest overlap matrix eigenvalue = 3.67E-03

 Scale SEOQF with 1.000000e-01/1.000000e-01/1.000000e+00

 Standard Electronic Orientation quadrupole field applied
 Nucleus-field energy     =    -0.0000000125 hartrees
 Guess from superposition of atomic densities
 Warning:  Energy on first SCF cycle will be non-variational
 SAD guess density has 42.000000 electrons

 -----------------------------------------------------------------------
  General SCF calculation program by
  Eric Jon Sundstrom, Paul Horn, Yuezhi Mao, Dmitri Zuev, Alec White,
  David Stuck, Shaama M.S., Shane Yost, Joonho Lee, David Small,
  Daniel Levine, Susi Lehtola, Hugh Burton, Evgeny Epifanovsky
 -----------------------------------------------------------------------
 Exchange:     0.2000 Hartree-Fock + 0.0800 Slater + 0.7200 B88
 Correlation:  0.1900 VWN1RPA + 0.8100 LYP
 Using SG-1 standard quadrature grid
 using 12 threads for integral computing
 -------------------------------------------------------
 OpenMP Integral computing Module                
 Release: version 1.0, May 2013, Q-Chem Inc. Pittsburgh 
 -------------------------------------------------------
 -------------------------------------------------------
 OpenMP BLAS3 based DFT computing Module                
 Release: version 1.0, May 2013, Q-Chem Inc. Pittsburgh 
 -------------------------------------------------------
 A unrestricted SCF calculation will be
 performed using DIIS
 SCF converges when DIIS error is below 1.0e-06
 Alpha HF Exchange    Energy =  -3.74351953110650
 Beta HF Exchange     Energy =  -3.74351953110650
 DFT Correlation      Energy =  -1.83963376704170
 DFT Exchange         Energy = -29.57313150739315
 One-Electron (alpha) Energy = -389.15290643921259
 One-Electron (beta)  Energy = -389.15290643921259
 Total Coulomb        Energy = 325.73538173112615
 ---------------------------------------
  Cycle       Energy         DIIS error
 ---------------------------------------
    1    -317.7758706172      2.86e-02  
 Alpha HF Exchange    Energy =  -3.82851204376718
 Beta HF Exchange     Energy =  -3.82851204376718
 DFT Correlation      Energy =  -1.86910127750855
 DFT Exchange         Energy = -30.40874982326391
 One-Electron (alpha) Energy = -392.60728510937770
 One-Electron (beta)  Energy = -392.60728510937787
 Total Coulomb        Energy = 334.17054636471568
    2    -317.2845341756      5.89e-03  
 Alpha HF Exchange    Energy =  -3.59758482311396
 Beta HF Exchange     Energy =  -3.59758482311396
 DFT Correlation      Energy =  -1.81134483005156
 DFT Exchange         Energy = -28.72323376505384
 One-Electron (alpha) Energy = -384.12193009522804
 One-Electron (beta)  Energy = -384.12193009522787
 Total Coulomb        Energy = 321.95681281446849
    3    -310.3224307506      3.03e-02  
 Alpha HF Exchange    Energy =  -3.73161836814682
 Beta HF Exchange     Energy =  -3.73161836814682
 DFT Correlation      Energy =  -1.84765065353642
 DFT Exchange         Energy = -29.72135356006741
 One-Electron (alpha) Energy = -389.81858693539817
 One-Electron (beta)  Energy = -389.81858693539834
 Total Coulomb        Energy = 327.55491701036539
    4    -317.4201329436      3.76e-03  
 Alpha HF Exchange    Energy =  -3.74993869756142
 Beta HF Exchange     Energy =  -3.74993869756142
 DFT Correlation      Energy =  -1.85373312779586
 DFT Exchange         Energy = -29.87781692822698
 One-Electron (alpha) Energy = -390.68472243809424
 One-Electron (beta)  Energy = -390.68472243809413
 Total Coulomb        Energy = 329.48846791184906
    5    -317.4180395488      3.39e-03  
 Alpha HF Exchange    Energy =  -3.75469622538668
 Beta HF Exchange     Energy =  -3.75469622538668
 DFT Correlation      Energy =  -1.85399213055750
 DFT Exchange         Energy = -29.90559253337653
 One-Electron (alpha) Energy = -390.68985325198042
 One-Electron (beta)  Energy = -390.68985325198054
 Total Coulomb        Energy = 329.49032127266190
    6    -317.4639974793      1.60e-03  
 Alpha HF Exchange    Energy =  -3.76273013165331
 Beta HF Exchange     Energy =  -3.76273013165330
 DFT Correlation      Energy =  -1.85555184945622
 DFT Exchange         Energy = -29.95982132261643
 One-Electron (alpha) Energy = -390.88452203277529
 One-Electron (beta)  Energy = -390.88452203277524
 Total Coulomb        Energy = 329.93920107528282
    7    -317.4763115589      3.69e-04  
 Alpha HF Exchange    Energy =  -3.76427192342939
 Beta HF Exchange     Energy =  -3.76427192342939
 DFT Correlation      Energy =  -1.85560120655893
 DFT Exchange         Energy = -29.96748611219755
 One-Electron (alpha) Energy = -390.88409068308209
 One-Electron (beta)  Energy = -390.88409068308204
 Total Coulomb        Energy = 329.94836968031552
    8    -317.4770779847      2.47e-05  
 Alpha HF Exchange    Energy =  -3.76417230581694
 Beta HF Exchange     Energy =  -3.76417230581695
 DFT Correlation      Energy =  -1.85558947082098
 DFT Exchange         Energy = -29.96701070733413
 One-Electron (alpha) Energy = -390.88165823871617
 One-Electron (beta)  Energy = -390.88165823871645
 Total Coulomb        Energy = 329.94281437746986
    9    -317.4770820230      6.01e-06  
 Alpha HF Exchange    Energy =  -3.76421596420122
 Beta HF Exchange     Energy =  -3.76421596420122
 DFT Correlation      Energy =  -1.85560077646311
 DFT Exchange         Energy = -29.96732000604349
 One-Electron (alpha) Energy = -390.88381550183794
 One-Electron (beta)  Energy = -390.88381550183783
 Total Coulomb        Energy = 329.94753660223603
   10    -317.4770822456      1.71e-06  
 Alpha HF Exchange    Energy =  -3.76421681877814
 Beta HF Exchange     Energy =  -3.76421681877814
 DFT Correlation      Energy =  -1.85559976579351
 DFT Exchange         Energy = -29.96730694094945
 One-Electron (alpha) Energy = -390.88346704030175
 One-Electron (beta)  Energy = -390.88346704030175
 Total Coulomb        Energy = 329.94682729310085
   11    -317.4770822651      6.85e-07  Convergence criterion met
 ---------------------------------------
 SCF time:   CPU 25.91s  wall 2.00s 
<S^2> =          0.000000000
 Alpha HF Exchange    Energy =  -3.76421681877814
 Beta HF Exchange     Energy =  -3.76421681877814
 DFT Correlation      Energy =  -1.85559976579351
 DFT Exchange         Energy = -29.96730694094945
 One-Electron (alpha) Energy = -390.88346704030175
 One-Electron (beta)  Energy = -390.88346704030175
 Total Coulomb        Energy = 329.94682729310085
 Nuclear repulsion Energy = 173.69436486673180
 SCF   energy in the final basis set =     -317.4770822651
 Total energy in the final basis set =     -317.4770822651
 
 --------------------------------------------------------------
 
                    Orbital Energies (a.u.)
 --------------------------------------------------------------
 
 Alpha MOs
 -- Occupied --
-24.696 -24.566 -10.305 -10.303 -10.221  -1.206  -0.989  -0.831
 -0.733  -0.631  -0.540  -0.511  -0.494  -0.458  -0.428  -0.419
 -0.368  -0.363  -0.278  -0.262  -0.261
 -- Virtual --
 -0.134   0.074   0.085   0.109   0.132   0.148   0.159   0.185
  0.197   0.230   0.473   0.494   0.509   0.542   0.555   0.599
  0.608   0.658   0.719   0.742   0.807   0.836   0.845   0.884
  0.893   0.911   1.038   1.125   1.141   1.182   1.254   1.322
  1.330   1.350   1.378   1.419   1.499   1.543   1.605   1.619
  1.741   1.782   1.811   1.872   1.890   1.916   1.953   1.963
  1.977   1.981   2.004   2.010   2.029   2.042   2.055   2.082
  2.109   2.155   2.233   2.261   2.346   2.384   2.438   2.493
  2.512   2.638   2.686   2.709   2.753   2.792   2.841   2.881
  3.057   3.163   3.261   3.308   3.398   3.423   3.462   3.655
  4.188   4.404   4.427   4.588
 
 Beta MOs
 -- Occupied --
-24.696 -24.566 -10.305 -10.303 -10.221  -1.206  -0.989  -0.831
 -0.733  -0.631  -0.540  -0.511  -0.494  -0.458  -0.428  -0.419
 -0.368  -0.363  -0.278  -0.262  -0.261
 -- Virtual --
 -0.134   0.074   0.085   0.109   0.132   0.148   0.159   0.185
  0.197   0.230   0.473   0.494   0.509   0.542   0.555   0.599
  0.608   0.658   0.719   0.742   0.807   0.836   0.845   0.884
  0.893   0.911   1.038   1.125   1.141   1.182   1.254   1.322
  1.330   1.350   1.378   1.419   1.499   1.543   1.605   1.619
  1.741   1.782   1.811   1.872   1.890   1.916   1.953   1.963
  1.977   1.981   2.004   2.010   2.029   2.042   2.055   2.082
  2.109   2.155   2.233   2.261   2.346   2.384   2.438   2.493
  2.512   2.638   2.686   2.709   2.753   2.792   2.841   2.881
  3.057   3.163   3.261   3.308   3.398   3.423   3.462   3.655
  4.188   4.404   4.427   4.588
 --------------------------------------------------------------
 
          Ground-State Mulliken Net Atomic Charges

     Atom                 Charge (a.u.)    Spin (a.u.)
  --------------------------------------------------------
      1 F                    -0.310308      -0.000000
      2 F                    -0.416364       0.000000
      3 C                     0.222080       0.000000
      4 C                    -0.086027      -0.000000
      5 C                    -0.361233      -0.000000
      6 H                     0.176774      -0.000000
      7 H                     0.178214       0.000000
      8 H                     0.191375       0.000000
      9 H                     0.130861       0.000000
     10 H                     0.124929      -0.000000
     11 H                     0.149697       0.000000
  --------------------------------------------------------
  Sum of atomic charges =     0.000000
  Sum of spin   charges =     0.000000

 -----------------------------------------------------------------
                    Cartesian Multipole Moments
 -----------------------------------------------------------------
    Charge (ESU x 10^10)
                 0.0000
    Dipole Moment (Debye)
         X      -4.1956      Y       2.7965      Z       1.9706
       Tot       5.4136
    Quadrupole Moments (Debye-Ang)
        XX     -37.1003     XY      -0.1806     YY     -28.1561
        XZ       5.8107     YZ       1.3742     ZZ     -28.0838
    Octopole Moments (Debye-Ang^2)
       XXX     -16.5241    XXY      -3.4632    XYY       5.6598
       YYY      -6.6235    XXZ       9.8760    XYZ       0.2350
       YYZ      -0.1223    XZZ       1.4123    YZZ      -3.9664
       ZZZ       4.8499
    Hexadecapole Moments (Debye-Ang^3)
      XXXX    -433.4943   XXXY       9.2261   XXYY     -85.6264
      XYYY      11.0128   YYYY    -121.5146   XXXZ      45.9311
      XXYZ       2.5794   XYYZ       9.6069   YYYZ      -0.0679
      XXZZ     -82.1274   XYZZ       2.4576   YYZZ     -35.8385
      XZZZ      28.3362   YZZZ       1.9481   ZZZZ     -81.0929
 -----------------------------------------------------------------
 Calculating analytic gradient of the SCF energy
 Gradient of SCF Energy
            1           2           3           4           5           6
    1  -0.0000232   0.0419716   0.0002453  -0.0420377  -0.0000805  -0.0000573
    2   0.0000064  -0.0180072  -0.0000332   0.0179634   0.0000816  -0.0000043
    3  -0.0000082  -0.0354026  -0.0000408   0.0353427   0.0000269  -0.0000104
            7           8           9          10          11
    1   0.0000119  -0.0000501   0.0000057   0.0000063   0.0000080
    2   0.0000008   0.0000160  -0.0000215   0.0000005  -0.0000026
    3   0.0000318   0.0000465   0.0000023   0.0000171  -0.0000052
 Max gradient component =       4.204E-02
 RMS gradient           =       1.423E-02
 Gradient time:  CPU 8.26 s  wall 0.73 s
 Geometry Optimization Parameters
   NAtoms,    NIC,     NZ,  NCons,   NDum,   NFix, NCnnct, MaxDiis
       11      78       0       1       0       0       0       0


** CONSTRAINED OPTIMIZATION IN DELOCALIZED INTERNAL COORDINATES **
   Searching for a Minimum

   Optimization Cycle:   1

                       Coordinates (Angstroms)
     ATOM                X               Y               Z
      1  F        -0.6131940000   -1.2723030000    0.4457270000
      2  F         2.3249180000   -0.0103210000   -0.9265170000
      3  C        -0.4851940000   -0.0201540000   -0.1341450000
      4  C         0.5810210000    0.7386340000    0.5424590000
      5  C        -1.8414620000    0.6981190000   -0.0643860000
      6  H        -0.1617460000   -0.1427330000   -1.1761180000
      7  H         0.7645640000    1.7694710000    0.2654670000
      8  H         1.0207920000    0.3606420000    1.4585640000
      9  H        -2.1529330000    0.8447230000    0.9732320000
     10  H        -1.7965220000    1.6678370000   -0.5665770000
     11  H        -2.5865450000    0.0764860000   -0.5660030000
   Point Group: c1    Number of degrees of freedom:    27


   Energy is   -317.477082265

              Constraints and their Current Values
                                        Value     Constraint
   Distance(Angs):        2   4             2.400000     2.500000

 Attempting to Generate Delocalized Internal Coordinates

   Using Lagrange Multiplier Algorithm


 28 Hessian modes will be used to form the next step
  Hessian Eigenvalues:
    -0.979115    0.040118    0.045000    0.046235    0.068398    0.071189
     0.081893    0.082966    0.083433    0.085298    0.106077    0.118883
     0.130820    0.153948    0.160000    0.160000    0.160000    0.182760
     0.288484    0.321490    0.336666    0.344417    0.344724    0.345442
     0.354897    0.356261    0.480526    1.021330

 Minimum Search - Taking P-RFO Step
 Searching for Lamda that Maximizes Along the Constraint modes Only
 Value Taken    Lamda =   0.03049680
 Searching for Lamda that Minimizes Along All other modes
 Value Taken    Lamda =  -0.00802719
 Step Taken.  Stepsize is  0.184694

                             Maximum     Tolerance    Cnvgd?
         Gradient            0.188972       0.000300      NO
         Displacement        0.184689       0.001200      NO
         Energy change     *********       0.000001      NO


 New Cartesian Coordinates Obtained by Inverse Iteration

 Displacement from previous Coordinates is:  0.179596
 ----------------------------------------------------------------
             Standard Nuclear Orientation (Angstroms)
    I     Atom           X                Y                Z
 ----------------------------------------------------------------
    1      F      -0.6123219667    -1.2727429152     0.4485749011
    2      F       2.3561368672    -0.0421901834    -0.9921404000
    3      C      -0.4830896996    -0.0184907664    -0.1264666692
    4      C       0.5661551709     0.7472865735     0.5607164332
    5      C      -1.8402592534     0.6984934252    -0.0645583887
    6      H      -0.1485317348    -0.1431886195    -1.1729327261
    7      H       0.7459431281     1.7790056385     0.2845559003
    8      H       1.0027860747     0.3727824585     1.4797375308
    9      H      -2.1587867342     0.8431800010     0.9711935097
   10      H      -1.7927863000     1.6690938552    -0.5648299010
   11      H      -2.5815465523     0.0771715325    -0.5721471900
 ----------------------------------------------------------------
 Nuclear Repulsion Energy =   172.7292166358 hartrees
 There are       21 alpha and       21 beta electrons

                       Distance Matrix (Angstroms)
             F (  1)   F (  2)   C (  3)   C (  4)   C (  5)   H (  6)
   F (  2)  3.521600
   C (  3)  1.385829  2.968360
   C (  4)  2.341346  2.497733  1.469541
   C (  5)  2.378426  4.361050  1.536167  2.486801
   H (  6)  2.029848  2.513215  1.105699  2.075876  2.190631
   H (  7)  3.344392  2.745803  2.215955  1.083066  2.824505  2.572778
   H (  8)  2.525792  2.848498  2.222794  1.084205  3.251745  2.937417
   H (  9)  2.672417  5.002309  2.180664  2.757353  1.093241  3.100214
   H ( 10)  3.327896  4.508287  2.180690  2.771496  1.092973  2.521454
   H ( 11)  2.596534  4.956951  2.147395  3.411812  1.092334  2.515763
             H (  7)   H (  8)   H (  9)   H ( 10)
   H (  8)  1.863301
   H (  9)  3.128050  3.236577
   H ( 10)  2.679307  3.698095  1.781981
   H ( 11)  3.834367  4.140659  1.774090  1.776630
 
 Applying Cartesian multipole field
    Component          Value
    ---------          -----
     (2,0,0)        1.00000E-11
     (0,2,0)        2.00000E-11
     (0,0,2)       -3.00000E-10
 Nucleus-field energy     =    -0.0000000139 hartrees
 Requested basis set is 6-31G(d,p)
 There are 38 shells and 105 basis functions
 A cutoff of  1.0D-14 yielded    708 shell pairs
 There are      5525 function pairs
 Smallest overlap matrix eigenvalue = 3.65E-03
 Guess from superposition of atomic densities
 Warning:  Energy on first SCF cycle will be non-variational
 SAD guess density has 42.000000 electrons

 -----------------------------------------------------------------------
  General SCF calculation program by
  Eric Jon Sundstrom, Paul Horn, Yuezhi Mao, Dmitri Zuev, Alec White,
  David Stuck, Shaama M.S., Shane Yost, Joonho Lee, David Small,
  Daniel Levine, Susi Lehtola, Hugh Burton, Evgeny Epifanovsky
 -----------------------------------------------------------------------
 Exchange:     0.2000 Hartree-Fock + 0.0800 Slater + 0.7200 B88
 Correlation:  0.1900 VWN1RPA + 0.8100 LYP
 Using SG-1 standard quadrature grid
 using 12 threads for integral computing
 -------------------------------------------------------
 OpenMP Integral computing Module                
 Release: version 1.0, May 2013, Q-Chem Inc. Pittsburgh 
 -------------------------------------------------------
 -------------------------------------------------------
 OpenMP BLAS3 based DFT computing Module                
 Release: version 1.0, May 2013, Q-Chem Inc. Pittsburgh 
 -------------------------------------------------------
 A unrestricted SCF calculation will be
 performed using DIIS
 SCF converges when DIIS error is below 1.0e-06
 Alpha HF Exchange    Energy =  -3.74292856173633
 Beta HF Exchange     Energy =  -3.74292856173633
 DFT Correlation      Energy =  -1.83885862785167
 DFT Exchange         Energy = -29.57184404114216
 One-Electron (alpha) Energy = -388.19007175345371
 One-Electron (beta)  Energy = -388.19007175345371
 Total Coulomb        Energy = 324.77546524820298
 ---------------------------------------
  Cycle       Energy         DIIS error
 ---------------------------------------
    1    -317.7720214292      2.86e-02  
 Alpha HF Exchange    Energy =  -3.82968671720363
 Beta HF Exchange     Energy =  -3.82968671720363
 DFT Correlation      Energy =  -1.86865506037661
 DFT Exchange         Energy = -30.41545265368054
 One-Electron (alpha) Energy = -391.64190241890515
 One-Electron (beta)  Energy = -391.64190241890515
 Total Coulomb        Energy = 333.23463378908093
    2    -317.2634355753      6.00e-03  
 Alpha HF Exchange    Energy =  -3.59296149830170
 Beta HF Exchange     Energy =  -3.59296149830171
 DFT Correlation      Energy =  -1.80779267461581
 DFT Exchange         Energy = -28.62821594343890
 One-Electron (alpha) Energy = -382.17233173595883
 One-Electron (beta)  Energy = -382.17233173595901
 Total Coulomb        Energy = 322.61930859751578
    3    -306.6180698671      2.89e-02  
 Alpha HF Exchange    Energy =  -3.75066615789734
 Beta HF Exchange     Energy =  -3.75066615789735
 DFT Correlation      Energy =  -1.84957710097961
 DFT Exchange         Energy = -29.83618952778554
 One-Electron (alpha) Energy = -389.11156931069002
 One-Electron (beta)  Energy = -389.11156931069030
 Total Coulomb        Energy = 327.26826305246675
    4    -317.4127578915      2.97e-03  
 Alpha HF Exchange    Energy =  -3.74500571519284
 Beta HF Exchange     Energy =  -3.74500571519283
 DFT Correlation      Energy =  -1.85316788491405
 DFT Exchange         Energy = -29.84687131750296
 One-Electron (alpha) Energy = -389.81108973353025
 One-Electron (beta)  Energy = -389.81108973353025
 Total Coulomb        Energy = 328.83463659117393
    5    -317.2483768868      6.39e-03  
 Alpha HF Exchange    Energy =  -3.74901882851894
 Beta HF Exchange     Energy =  -3.74901882851894
 DFT Correlation      Energy =  -1.85274342413651
 DFT Exchange         Energy = -29.87434081062295
 One-Electron (alpha) Energy = -389.68033000548513
 One-Electron (beta)  Energy = -389.68033000548536
 Total Coulomb        Energy = 328.43129286460083
    6    -317.4252724162      2.80e-03  
 Alpha HF Exchange    Energy =  -3.75906190160897
 Beta HF Exchange     Energy =  -3.75906190160897
 DFT Correlation      Energy =  -1.85454874315507
 DFT Exchange         Energy = -29.94179403940406
 One-Electron (alpha) Energy = -389.87637029330676
 One-Electron (beta)  Energy = -389.87637029330682
 Total Coulomb        Energy = 328.87604969335609
    7    -317.4619408571      9.35e-04  
 Alpha HF Exchange    Energy =  -3.76253689061258
 Beta HF Exchange     Energy =  -3.76253689061258
 DFT Correlation      Energy =  -1.85481817495665
 DFT Exchange         Energy = -29.96017204099370
 One-Electron (alpha) Energy = -389.90013625128319
 One-Electron (beta)  Energy = -389.90013625128330
 Total Coulomb        Energy = 328.94445799929099
    8    -317.4666618785      1.48e-04  
 Alpha HF Exchange    Energy =  -3.76286118400778
 Beta HF Exchange     Energy =  -3.76286118400778
 DFT Correlation      Energy =  -1.85481920915696
 DFT Exchange         Energy = -29.96223395200640
 One-Electron (alpha) Energy = -389.89608249833941
 One-Electron (beta)  Energy = -389.89608249833958
 Total Coulomb        Energy = 328.93898635509771
    9    -317.4667375488      7.03e-05  
 Alpha HF Exchange    Energy =  -3.76315196213002
 Beta HF Exchange     Energy =  -3.76315196213002
 DFT Correlation      Energy =  -1.85489240072515
 DFT Exchange         Energy = -29.96410811343576
 One-Electron (alpha) Energy = -389.90577446986714
 One-Electron (beta)  Energy = -389.90577446986703
 Total Coulomb        Energy = 328.96087519146948
   10    -317.4667615648      2.45e-05  
 Alpha HF Exchange    Energy =  -3.76329986572260
 Beta HF Exchange     Energy =  -3.76329986572260
 DFT Correlation      Energy =  -1.85490474154858
 DFT Exchange         Energy = -29.96495870726622
 One-Electron (alpha) Energy = -389.90716805799224
 One-Electron (beta)  Energy = -389.90716805799235
 Total Coulomb        Energy = 328.96481759397233
   11    -317.4667650803      1.75e-06  
 Alpha HF Exchange    Energy =  -3.76330749011019
 Beta HF Exchange     Energy =  -3.76330749011019
 DFT Correlation      Energy =  -1.85490579980846
 DFT Exchange         Energy = -29.96499501988590
 One-Electron (alpha) Energy = -389.90707619835672
 One-Electron (beta)  Energy = -389.90707619835661
 Total Coulomb        Energy = 328.96468648791142
   12    -317.4667650868      1.18e-06  
 Alpha HF Exchange    Energy =  -3.76330615813408
 Beta HF Exchange     Energy =  -3.76330615813408
 DFT Correlation      Energy =  -1.85490616966701
 DFT Exchange         Energy = -29.96499416425619
 One-Electron (alpha) Energy = -389.90719332695335
 One-Electron (beta)  Energy = -389.90719332695335
 Total Coulomb        Energy = 328.96491758800857
   13    -317.4667650942      4.33e-07  Convergence criterion met
 ---------------------------------------
 SCF time:   CPU 29.70s  wall 3.00s 
<S^2> =          0.000000000
 Alpha HF Exchange    Energy =  -3.76330615813408
 Beta HF Exchange     Energy =  -3.76330615813408
 DFT Correlation      Energy =  -1.85490616966701
 DFT Exchange         Energy = -29.96499416425619
 One-Electron (alpha) Energy = -389.90719332695335
 One-Electron (beta)  Energy = -389.90719332695335
 Total Coulomb        Energy = 328.96491758800857
 Nuclear repulsion Energy = 172.72921662193122
 SCF   energy in the final basis set =     -317.4667650942
 Total energy in the final basis set =     -317.4667650942
 
 --------------------------------------------------------------
 
                    Orbital Energies (a.u.)
 --------------------------------------------------------------
 
 Alpha MOs
 -- Occupied --
-24.698 -24.561 -10.307 -10.305 -10.222  -1.207  -0.983  -0.834
 -0.735  -0.633  -0.542  -0.513  -0.496  -0.460  -0.429  -0.421
 -0.369  -0.364  -0.270  -0.257  -0.256
 -- Virtual --
 -0.142   0.071   0.083   0.107   0.130   0.147   0.157   0.184
  0.195   0.228   0.472   0.492   0.508   0.542   0.552   0.591
  0.603   0.655   0.716   0.741   0.804   0.835   0.842   0.879
  0.890   0.909   1.038   1.120   1.140   1.182   1.258   1.317
  1.327   1.346   1.377   1.417   1.496   1.523   1.603   1.613
  1.741   1.779   1.812   1.873   1.891   1.916   1.950   1.960
  1.981   1.982   2.002   2.004   2.025   2.037   2.049   2.070
  2.103   2.152   2.229   2.256   2.340   2.382   2.414   2.491
  2.508   2.635   2.681   2.705   2.749   2.788   2.837   2.878
  3.055   3.161   3.256   3.301   3.394   3.419   3.459   3.635
  4.186   4.392   4.426   4.583
 
 Beta MOs
 -- Occupied --
-24.698 -24.561 -10.307 -10.305 -10.222  -1.207  -0.983  -0.834
 -0.735  -0.633  -0.542  -0.513  -0.496  -0.460  -0.429  -0.421
 -0.369  -0.364  -0.270  -0.257  -0.256
 -- Virtual --
 -0.142   0.071   0.083   0.107   0.130   0.147   0.157   0.184
  0.195   0.228   0.472   0.492   0.508   0.542   0.552   0.591
  0.603   0.655   0.716   0.741   0.804   0.835   0.842   0.879
  0.890   0.909   1.038   1.120   1.140   1.182   1.258   1.317
  1.327   1.346   1.377   1.417   1.496   1.523   1.603   1.613
  1.741   1.779   1.812   1.873   1.891   1.916   1.950   1.960
  1.981   1.982   2.002   2.004   2.025   2.037   2.049   2.070
  2.103   2.152   2.229   2.256   2.340   2.382   2.414   2.491
  2.508   2.635   2.681   2.705   2.749   2.788   2.837   2.878
  3.055   3.161   3.256   3.301   3.394   3.419   3.459   3.635
  4.186   4.392   4.426   4.583
 --------------------------------------------------------------
 
          Ground-State Mulliken Net Atomic Charges

     Atom                 Charge (a.u.)    Spin (a.u.)
  --------------------------------------------------------
      1 F                    -0.309349       0.000000
      2 F                    -0.420485       0.000000
      3 C                     0.219874      -0.000000
      4 C                    -0.090233       0.000000
      5 C                    -0.361361       0.000000
      6 H                     0.180975      -0.000000
      7 H                     0.179536      -0.000000
      8 H                     0.192264       0.000000
      9 H                     0.131675      -0.000000
     10 H                     0.126126      -0.000000
     11 H                     0.150977      -0.000000
  --------------------------------------------------------
  Sum of atomic charges =     0.000000
  Sum of spin   charges =     0.000000

 -----------------------------------------------------------------
                    Cartesian Multipole Moments
 -----------------------------------------------------------------
    Charge (ESU x 10^10)
                 0.0000
    Dipole Moment (Debye)
         X      -4.3759      Y       2.8804      Z       2.1486
       Tot       5.6623
    Quadrupole Moments (Debye-Ang)
        XX     -37.5299     XY      -0.0631     YY     -28.0886
        XZ       6.2307     YZ       1.3729     ZZ     -28.2579
    Octopole Moments (Debye-Ang^2)
       XXX     -18.4713    XXY      -3.0184    XYY       5.5019
       YYY      -6.2189    XXZ      11.1116    XYZ       0.1610
       YYZ       0.0980    XZZ       0.7063    YZZ      -3.8037
       ZZZ       5.7597
    Hexadecapole Moments (Debye-Ang^3)
      XXXX    -440.8390   XXXY      11.0879   XXYY     -86.2709
      XYYY      12.2587   YYYY    -121.7856   XXXZ      51.5605
      XXYZ       2.1169   XYYZ      10.6028   YYYZ      -0.8030
      XXZZ     -84.8953   XYZZ       2.9638   YYZZ     -36.6971
      XZZZ      31.9760   YZZZ       1.2007   ZZZZ     -85.8177
 -----------------------------------------------------------------
 Calculating analytic gradient of the SCF energy
 Gradient of SCF Energy
            1           2           3           4           5           6
    1  -0.0000600   0.0382026  -0.0010429  -0.0377719   0.0009668   0.0010996
    2  -0.0006149  -0.0169972   0.0017461   0.0162649  -0.0000636  -0.0011576
    3  -0.0002568  -0.0331749   0.0043374   0.0316902   0.0005125  -0.0042290
            7           8           9          10          11
    1  -0.0006330  -0.0007112  -0.0000711   0.0000005   0.0000204
    2   0.0001688   0.0005004   0.0000376   0.0000721   0.0000434
    3   0.0007356   0.0003295   0.0000127   0.0000159   0.0000270
 Max gradient component =       3.820E-02
 RMS gradient           =       1.302E-02
 Gradient time:  CPU 8.22 s  wall 0.72 s
 Geometry Optimization Parameters
   NAtoms,    NIC,     NZ,  NCons,   NDum,   NFix, NCnnct, MaxDiis
       11      78       0       1       0       0       0       0

 Cartesian Hessian Update
 Hessian Updated using BFGS Update
**WARNING** Hereditary positive definiteness endangered


** CONSTRAINED OPTIMIZATION IN DELOCALIZED INTERNAL COORDINATES **
   Searching for a Minimum

   Optimization Cycle:   2

                       Coordinates (Angstroms)
     ATOM                X               Y               Z
      1  F        -0.6123219667   -1.2727429152    0.4485749011
      2  F         2.3561368672   -0.0421901834   -0.9921404000
      3  C        -0.4830896996   -0.0184907664   -0.1264666692
      4  C         0.5661551709    0.7472865735    0.5607164332
      5  C        -1.8402592534    0.6984934252   -0.0645583887
      6  H        -0.1485317348   -0.1431886195   -1.1729327261
      7  H         0.7459431281    1.7790056385    0.2845559003
      8  H         1.0027860747    0.3727824585    1.4797375308
      9  H        -2.1587867342    0.8431800010    0.9711935097
     10  H        -1.7927863000    1.6690938552   -0.5648299010
     11  H        -2.5815465523    0.0771715325   -0.5721471900
   Point Group: c1    Number of degrees of freedom:    27


   Energy is   -317.466765094

              Constraints and their Current Values
                                        Value     Constraint
   Distance(Angs):        2   4             2.497733     2.500000
 Hessian Updated using BFGS Update
**WARNING** Hereditary positive definiteness endangered

   Using Lagrange Multiplier Algorithm


 27 Hessian modes will be used to form the next step
  Hessian Eigenvalues:
    -1.010857    0.040055    0.045000    0.046233    0.066704    0.070719
     0.081875    0.082966    0.083391    0.085298    0.106030    0.118865
     0.130819    0.152549    0.159963    0.160000    0.178053    0.285880
     0.299968    0.336611    0.344416    0.344722    0.345440    0.354868
     0.356248    0.480272    0.990002

 Minimum Search - Taking P-RFO Step
 Searching for Lamda that Maximizes Along the Constraint modes Only
 Value Taken    Lamda =   0.00000947
 Searching for Lamda that Minimizes Along All other modes
 Value Taken    Lamda =  -0.00020551
 Step Taken.  Stepsize is  0.030029

                             Maximum     Tolerance    Cnvgd?
         Gradient            0.008487       0.000300      NO
         Displacement        0.013591       0.001200      NO
         Energy change      0.010317       0.000001      NO


 New Cartesian Coordinates Obtained by Inverse Iteration

 Displacement from previous Coordinates is:  0.045804
 ----------------------------------------------------------------
             Standard Nuclear Orientation (Angstroms)
    I     Atom           X                Y                Z
 ----------------------------------------------------------------
    1      F      -0.6124869081    -1.2690927502     0.4521368587
    2      F       2.3552450933    -0.0418971972    -0.9965006574
    3      C      -0.4834364864    -0.0159913478    -0.1240058500
    4      C       0.5690538091     0.7474147567     0.5644296885
    5      C      -1.8443939898     0.6977911828    -0.0672926654
    6      H      -0.1510018713    -0.1366092797    -1.1635592985
    7      H       0.7555109430     1.7773402454     0.2851460184
    8      H       1.0116747328     0.3677874511     1.4788585307
    9      H      -2.1661421153     0.8418815947     0.9674834580
   10      H      -1.7981927806     1.6680465703    -0.5681204635
   11      H      -2.5821314266     0.0737297739    -0.5768726194
 ----------------------------------------------------------------
 Nuclear Repulsion Energy =   172.6790918285 hartrees
 There are       21 alpha and       21 beta electrons

                       Distance Matrix (Angstroms)
             F (  1)   F (  2)   C (  3)   C (  4)   C (  5)   H (  6)
   F (  2)  3.523066
   C (  3)  1.385228  2.969854
   C (  4)  2.339861  2.499999  1.471213
   C (  5)  2.378242  4.364348  1.537825  2.495249
   H (  6)  2.026317  2.513594  1.098059  2.070247  2.183026
   H (  7)  3.343659  2.740692  2.217754  1.083288  2.837101  2.565875
   H (  8)  2.524170  2.846125  2.225268  1.084532  3.264447  2.930632
   H (  9)  2.671262  5.008117  2.181466  2.766347  1.093181  3.091857
   H ( 10)  3.327704  4.512035  2.182156  2.781023  1.092867  2.514869
   H ( 11)  2.596446  4.956525  2.148874  3.418536  1.092420  2.509748
             H (  7)   H (  8)   H (  9)   H ( 10)
   H (  8)  1.864781
   H (  9)  3.142726  3.253427
   H ( 10)  2.694701  3.711624  1.782138
   H ( 11)  3.845156  4.150656  1.774300  1.776649
 
 Applying Cartesian multipole field
    Component          Value
    ---------          -----
     (2,0,0)        1.00000E-11
     (0,2,0)        2.00000E-11
     (0,0,2)       -3.00000E-10
 Nucleus-field energy     =    -0.0000000140 hartrees
 Requested basis set is 6-31G(d,p)
 There are 38 shells and 105 basis functions
 A cutoff of  1.0D-14 yielded    708 shell pairs
 There are      5525 function pairs
 Smallest overlap matrix eigenvalue = 3.67E-03
 Guess from superposition of atomic densities
 Warning:  Energy on first SCF cycle will be non-variational
 SAD guess density has 42.000000 electrons

 -----------------------------------------------------------------------
  General SCF calculation program by
  Eric Jon Sundstrom, Paul Horn, Yuezhi Mao, Dmitri Zuev, Alec White,
  David Stuck, Shaama M.S., Shane Yost, Joonho Lee, David Small,
  Daniel Levine, Susi Lehtola, Hugh Burton, Evgeny Epifanovsky
 -----------------------------------------------------------------------
 Exchange:     0.2000 Hartree-Fock + 0.0800 Slater + 0.7200 B88
 Correlation:  0.1900 VWN1RPA + 0.8100 LYP
 Using SG-1 standard quadrature grid
 using 12 threads for integral computing
 -------------------------------------------------------
 OpenMP Integral computing Module                
 Release: version 1.0, May 2013, Q-Chem Inc. Pittsburgh 
 -------------------------------------------------------
 -------------------------------------------------------
 OpenMP BLAS3 based DFT computing Module                
 Release: version 1.0, May 2013, Q-Chem Inc. Pittsburgh 
 -------------------------------------------------------
 A unrestricted SCF calculation will be
 performed using DIIS
 SCF converges when DIIS error is below 1.0e-06
 Alpha HF Exchange    Energy =  -3.74301687157173
 Beta HF Exchange     Energy =  -3.74301687157173
 DFT Correlation      Energy =  -1.83884619664113
 DFT Exchange         Energy = -29.57213982022838
 One-Electron (alpha) Energy = -388.13751461563106
 One-Electron (beta)  Energy = -388.13751461563106
 Total Coulomb        Energy = 324.72103029552915
 ---------------------------------------
  Cycle       Energy         DIIS error
 ---------------------------------------
    1    -317.7719268813      2.86e-02  
 Alpha HF Exchange    Energy =  -3.82990693036876
 Beta HF Exchange     Energy =  -3.82990693036876
 DFT Correlation      Energy =  -1.86865990077792
 DFT Exchange         Energy = -30.41684407324977
 One-Electron (alpha) Energy = -391.59139510774156
 One-Electron (beta)  Energy = -391.59139510774139
 Total Coulomb        Energy = 333.18606701033877
    2    -317.2629492254      6.00e-03  
 Alpha HF Exchange    Energy =  -3.59343626567282
 Beta HF Exchange     Energy =  -3.59343626567282
 DFT Correlation      Energy =  -1.80783359022152
 DFT Exchange         Energy = -28.63048903645817
 One-Electron (alpha) Energy = -382.10977812656176
 One-Electron (beta)  Energy = -382.10977812656182
 Total Coulomb        Energy = 322.58588513640177
    3    -306.5797744603      2.89e-02  
 Alpha HF Exchange    Energy =  -3.75122375054651
 Beta HF Exchange     Energy =  -3.75122375054651
 DFT Correlation      Energy =  -1.84964898162909
 DFT Exchange         Energy = -29.83972274628241
 One-Electron (alpha) Energy = -389.06851270914484
 One-Electron (beta)  Energy = -389.06851270914490
 Total Coulomb        Energy = 327.23769267513569
    4    -317.4120601577      2.97e-03  
 Alpha HF Exchange    Energy =  -3.74506116542108
 Beta HF Exchange     Energy =  -3.74506116542108
 DFT Correlation      Energy =  -1.85316031722039
 DFT Exchange         Energy = -29.84716562809894
 One-Electron (alpha) Energy = -389.75816510529279
 One-Electron (beta)  Energy = -389.75816510529285
 Total Coulomb        Energy = 328.78274146495824
    5    -317.2449452073      6.43e-03  
 Alpha HF Exchange    Energy =  -3.74904401190635
 Beta HF Exchange     Energy =  -3.74904401190635
 DFT Correlation      Energy =  -1.85273323187164
 DFT Exchange         Energy = -29.87466722801819
 One-Electron (alpha) Energy = -389.62748587383356
 One-Electron (beta)  Energy = -389.62748587383368
 Total Coulomb        Energy = 328.37714473556150
    6    -317.4242236813      2.83e-03  
 Alpha HF Exchange    Energy =  -3.75919027756329
 Beta HF Exchange     Energy =  -3.75919027756329
 DFT Correlation      Energy =  -1.85456017357931
 DFT Exchange         Energy = -29.94283325813127
 One-Electron (alpha) Energy = -389.82579139867011
 One-Electron (beta)  Energy = -389.82579139867022
 Total Coulomb        Energy = 328.82656747364138
    7    -317.4616974961      9.43e-04  
 Alpha HF Exchange    Energy =  -3.76266526376458
 Beta HF Exchange     Energy =  -3.76266526376458
 DFT Correlation      Energy =  -1.85482444206851
 DFT Exchange         Energy = -29.96115416916203
 One-Electron (alpha) Energy = -389.84913316417078
 One-Electron (beta)  Energy = -389.84913316417084
 Total Coulomb        Energy = 328.89398875508067
    8    -317.4664948976      1.53e-04  
 Alpha HF Exchange    Energy =  -3.76299824972755
 Beta HF Exchange     Energy =  -3.76299824972755
 DFT Correlation      Energy =  -1.85482675065970
 DFT Exchange         Energy = -29.96327361613187
 One-Electron (alpha) Energy = -389.84513256995291
 One-Electron (beta)  Energy = -389.84513256995297
 Total Coulomb        Energy = 328.88869493663327
    9    -317.4665752551      7.32e-05  
 Alpha HF Exchange    Energy =  -3.76330295116293
 Beta HF Exchange     Energy =  -3.76330295116294
 DFT Correlation      Energy =  -1.85490206005609
 DFT Exchange         Energy = -29.96523069752531
 One-Electron (alpha) Energy = -389.85508869289697
 One-Electron (beta)  Energy = -389.85508869289720
 Total Coulomb        Energy = 328.91122278827828
   10    -317.4666014430      2.53e-05  
 Alpha HF Exchange    Energy =  -3.76345637013406
 Beta HF Exchange     Energy =  -3.76345637013406
 DFT Correlation      Energy =  -1.85491507600919
 DFT Exchange         Energy = -29.96611369325503
 One-Electron (alpha) Energy = -389.85656307208330
 One-Electron (beta)  Energy = -389.85656307208342
 Total Coulomb        Energy = 328.91537066143485
   11    -317.4666051778      1.75e-06  
 Alpha HF Exchange    Energy =  -3.76346354601517
 Beta HF Exchange     Energy =  -3.76346354601517
 DFT Correlation      Energy =  -1.85491607856860
 DFT Exchange         Energy = -29.96614700013824
 One-Electron (alpha) Energy = -389.85645879239217
 One-Electron (beta)  Energy = -389.85645879239217
 Total Coulomb        Energy = 328.91521075722295
   12    -317.4666051838      1.21e-06  
 Alpha HF Exchange    Energy =  -3.76346209208358
 Beta HF Exchange     Energy =  -3.76346209208359
 DFT Correlation      Energy =  -1.85491644339955
 DFT Exchange         Energy = -29.96614564387347
 One-Electron (alpha) Energy = -389.85657733867413
 One-Electron (beta)  Energy = -389.85657733867436
 Total Coulomb        Energy = 328.91544394268055
   13    -317.4666051916      4.26e-07  Convergence criterion met
 ---------------------------------------
 SCF time:   CPU 30.13s  wall 3.00s 
<S^2> =         -0.000000000
 Alpha HF Exchange    Energy =  -3.76346209208358
 Beta HF Exchange     Energy =  -3.76346209208359
 DFT Correlation      Energy =  -1.85491644339955
 DFT Exchange         Energy = -29.96614564387347
 One-Electron (alpha) Energy = -389.85657733867413
 One-Electron (beta)  Energy = -389.85657733867436
 Total Coulomb        Energy = 328.91544394268055
 Nuclear repulsion Energy = 172.67909181446126
 SCF   energy in the final basis set =     -317.4666051916
 Total energy in the final basis set =     -317.4666051916
 
 --------------------------------------------------------------
 
                    Orbital Energies (a.u.)
 --------------------------------------------------------------
 
 Alpha MOs
 -- Occupied --
-24.698 -24.561 -10.307 -10.305 -10.222  -1.208  -0.983  -0.834
 -0.735  -0.633  -0.542  -0.513  -0.496  -0.460  -0.429  -0.421
 -0.369  -0.364  -0.270  -0.257  -0.256
 -- Virtual --
 -0.143   0.072   0.083   0.107   0.131   0.147   0.158   0.184
  0.194   0.228   0.472   0.492   0.508   0.541   0.552   0.591
  0.602   0.655   0.718   0.740   0.805   0.835   0.843   0.879
  0.891   0.909   1.037   1.120   1.140   1.182   1.260   1.318
  1.327   1.346   1.376   1.416   1.495   1.523   1.603   1.612
  1.740   1.779   1.811   1.873   1.891   1.916   1.950   1.961
  1.981   1.983   2.002   2.004   2.026   2.037   2.050   2.072
  2.102   2.152   2.229   2.257   2.340   2.383   2.413   2.492
  2.508   2.635   2.684   2.705   2.750   2.792   2.839   2.879
  3.055   3.161   3.258   3.307   3.395   3.420   3.460   3.635
  4.185   4.391   4.424   4.583
 
 Beta MOs
 -- Occupied --
-24.698 -24.561 -10.307 -10.305 -10.222  -1.208  -0.983  -0.834
 -0.735  -0.633  -0.542  -0.513  -0.496  -0.460  -0.429  -0.421
 -0.369  -0.364  -0.270  -0.257  -0.256
 -- Virtual --
 -0.143   0.072   0.083   0.107   0.131   0.147   0.158   0.184
  0.194   0.228   0.472   0.492   0.508   0.541   0.552   0.591
  0.602   0.655   0.718   0.740   0.805   0.835   0.843   0.879
  0.891   0.909   1.037   1.120   1.140   1.182   1.260   1.318
  1.327   1.346   1.376   1.416   1.495   1.523   1.603   1.612
  1.740   1.779   1.811   1.873   1.891   1.916   1.950   1.961
  1.981   1.983   2.002   2.004   2.026   2.037   2.050   2.072
  2.102   2.152   2.229   2.257   2.340   2.383   2.413   2.492
  2.508   2.635   2.684   2.705   2.750   2.792   2.839   2.879
  3.055   3.161   3.258   3.307   3.395   3.420   3.460   3.635
  4.185   4.391   4.424   4.583
 --------------------------------------------------------------
 
          Ground-State Mulliken Net Atomic Charges

     Atom                 Charge (a.u.)    Spin (a.u.)
  --------------------------------------------------------
      1 F                    -0.309284       0.000000
      2 F                    -0.420770      -0.000000
      3 C                     0.220399      -0.000000
      4 C                    -0.091592       0.000000
      5 C                    -0.361270       0.000000
      6 H                     0.181300      -0.000000
      7 H                     0.179951       0.000000
      8 H                     0.192834       0.000000
      9 H                     0.131615       0.000000
     10 H                     0.125923      -0.000000
     11 H                     0.150893      -0.000000
  --------------------------------------------------------
  Sum of atomic charges =    -0.000000
  Sum of spin   charges =    -0.000000

 -----------------------------------------------------------------
                    Cartesian Multipole Moments
 -----------------------------------------------------------------
    Charge (ESU x 10^10)
                 0.0000
    Dipole Moment (Debye)
         X      -4.3639      Y       2.8762      Z       2.1593
       Tot       5.6550
    Quadrupole Moments (Debye-Ang)
        XX     -37.4973     XY      -0.0480     YY     -28.0845
        XZ       6.2773     YZ       1.3631     ZZ     -28.2815
    Octopole Moments (Debye-Ang^2)
       XXX     -18.4027    XXY      -3.0296    XYY       5.5313
       YYY      -6.3270    XXZ      11.1597    XYZ       0.1577
       YYZ       0.0762    XZZ       0.6927    YZZ      -3.8254
       ZZZ       5.7557
    Hexadecapole Moments (Debye-Ang^3)
      XXXX    -441.6183   XXXY      11.1243   XXYY     -86.3081
      XYYY      12.3222   YYYY    -121.4419   XXXZ      51.6910
      XXYZ       2.1483   XYYZ      10.6044   YYYZ      -0.7273
      XXZZ     -85.1059   XYZZ       2.9561   YYZZ     -36.6968
      XZZZ      32.0335   YZZZ       1.2507   ZZZZ     -86.2426
 -----------------------------------------------------------------
 Calculating analytic gradient of the SCF energy
 Gradient of SCF Energy
            1           2           3           4           5           6
    1   0.0000297   0.0380095   0.0004916  -0.0371123   0.0000920  -0.0005071
    2   0.0000280  -0.0168974   0.0002332   0.0162732  -0.0000228  -0.0001646
    3  -0.0001449  -0.0331862  -0.0002382   0.0324710   0.0000296   0.0001430
            7           8           9          10          11
    1  -0.0004399  -0.0003720  -0.0000007  -0.0000333  -0.0001575
    2   0.0002000   0.0003043  -0.0000114  -0.0000145   0.0000722
    3   0.0004148   0.0004406   0.0000307   0.0000221   0.0000174
 Max gradient component =       3.801E-02
 RMS gradient           =       1.294E-02
 Gradient time:  CPU 8.19 s  wall 0.71 s
 Geometry Optimization Parameters
   NAtoms,    NIC,     NZ,  NCons,   NDum,   NFix, NCnnct, MaxDiis
       11      78       0       1       0       0       0       0

 Cartesian Hessian Update
 Hessian Updated using BFGS Update


** CONSTRAINED OPTIMIZATION IN DELOCALIZED INTERNAL COORDINATES **
   Searching for a Minimum

   Optimization Cycle:   3

                       Coordinates (Angstroms)
     ATOM                X               Y               Z
      1  F        -0.6124869081   -1.2690927502    0.4521368587
      2  F         2.3552450933   -0.0418971972   -0.9965006574
      3  C        -0.4834364864   -0.0159913478   -0.1240058500
      4  C         0.5690538091    0.7474147567    0.5644296885
      5  C        -1.8443939898    0.6977911828   -0.0672926654
      6  H        -0.1510018713   -0.1366092797   -1.1635592985
      7  H         0.7555109430    1.7773402454    0.2851460184
      8  H         1.0116747328    0.3677874511    1.4788585307
      9  H        -2.1661421153    0.8418815947    0.9674834580
     10  H        -1.7981927806    1.6680465703   -0.5681204635
     11  H        -2.5821314266    0.0737297739   -0.5768726194
   Point Group: c1    Number of degrees of freedom:    27


   Energy is   -317.466605192

              Constraints and their Current Values
                                        Value     Constraint
   Distance(Angs):        2   4             2.499999     2.500000
 Hessian Updated using BFGS Update

   Using Lagrange Multiplier Algorithm


 28 Hessian modes will be used to form the next step
  Hessian Eigenvalues:
    -1.010680    0.037360    0.045003    0.046228    0.053082    0.070354
     0.081739    0.082971    0.083332    0.085306    0.105661    0.117716
     0.130817    0.153112    0.159508    0.160000    0.160351    0.170002
     0.289233    0.336547    0.344276    0.344585    0.345039    0.351980
     0.356200    0.365204    0.481796    0.990542

 Minimum Search - Taking P-RFO Step
 Searching for Lamda that Maximizes Along the Constraint modes Only
 Value Taken    Lamda =   0.00000000
 Searching for Lamda that Minimizes Along All other modes
 Value Taken    Lamda =  -0.00001920
 Step Taken.  Stepsize is  0.019709

                             Maximum     Tolerance    Cnvgd?
         Gradient            0.000447       0.000300      NO
         Displacement        0.010687       0.001200      NO
         Energy change      0.000160       0.000001      NO


 New Cartesian Coordinates Obtained by Inverse Iteration

 Displacement from previous Coordinates is:  0.022955
 ----------------------------------------------------------------
             Standard Nuclear Orientation (Angstroms)
    I     Atom           X                Y                Z
 ----------------------------------------------------------------
    1      F      -0.6136985478    -1.2678284734     0.4546675253
    2      F       2.3535219289    -0.0401024763    -0.9975026746
    3      C      -0.4844403024    -0.0149403789    -0.1219331400
    4      C       0.5691695758     0.7477342600     0.5662747880
    5      C      -1.8461720511     0.6976886582    -0.0679351874
    6      H      -0.1504009410    -0.1338422619    -1.1605336967
    7      H       0.7606740561     1.7759585441     0.2841132919
    8      H       1.0162701215     0.3646244519     1.4768965039
    9      H      -2.1704146634     0.8416479983     0.9660292915
   10      H      -1.7998848397     1.6677746747    -0.5691413783
   11      H      -2.5809253370     0.0716860033    -0.5792323236
 ----------------------------------------------------------------
 Nuclear Repulsion Energy =   172.6718144682 hartrees
 There are       21 alpha and       21 beta electrons

                       Distance Matrix (Angstroms)
             F (  1)   F (  2)   C (  3)   C (  4)   C (  5)   H (  6)
   F (  2)  3.524274
   C (  3)  1.385245  2.970065
   C (  4)  2.339685  2.500000  1.471529
   C (  5)  2.378101  4.364156  1.537878  2.497719
   H (  6)  2.027176  2.510975  1.097457  2.068049  2.181938
   H (  7)  3.344044  2.734553  2.218671  1.083298  2.842930  2.562109
   H (  8)  2.523223  2.841601  2.225412  1.084391  3.269711  2.926709
   H (  9)  2.671095  5.009885  2.181723  2.770189  1.093133  3.091004
   H ( 10)  3.327610  4.511222  2.182182  2.783534  1.092894  2.513238
   H ( 11)  2.594847  4.953405  2.147528  3.419404  1.092322  2.507509
             H (  7)   H (  8)   H (  9)   H ( 10)
   H (  8)  1.865456
   H (  9)  3.151068  3.262437
   H ( 10)  2.701150  3.716880  1.782281
   H ( 11)  3.849181  4.153708  1.774597  1.776971
 
 Applying Cartesian multipole field
    Component          Value
    ---------          -----
     (2,0,0)        1.00000E-11
     (0,2,0)        2.00000E-11
     (0,0,2)       -3.00000E-10
 Nucleus-field energy     =    -0.0000000140 hartrees
 Requested basis set is 6-31G(d,p)
 There are 38 shells and 105 basis functions
 A cutoff of  1.0D-14 yielded    708 shell pairs
 There are      5525 function pairs
 Smallest overlap matrix eigenvalue = 3.67E-03
 Guess from superposition of atomic densities
 Warning:  Energy on first SCF cycle will be non-variational
 SAD guess density has 42.000000 electrons

 -----------------------------------------------------------------------
  General SCF calculation program by
  Eric Jon Sundstrom, Paul Horn, Yuezhi Mao, Dmitri Zuev, Alec White,
  David Stuck, Shaama M.S., Shane Yost, Joonho Lee, David Small,
  Daniel Levine, Susi Lehtola, Hugh Burton, Evgeny Epifanovsky
 -----------------------------------------------------------------------
 Exchange:     0.2000 Hartree-Fock + 0.0800 Slater + 0.7200 B88
 Correlation:  0.1900 VWN1RPA + 0.8100 LYP
 Using SG-1 standard quadrature grid
 using 12 threads for integral computing
 -------------------------------------------------------
 OpenMP Integral computing Module                
 Release: version 1.0, May 2013, Q-Chem Inc. Pittsburgh 
 -------------------------------------------------------
 -------------------------------------------------------
 OpenMP BLAS3 based DFT computing Module                
 Release: version 1.0, May 2013, Q-Chem Inc. Pittsburgh 
 -------------------------------------------------------
 A unrestricted SCF calculation will be
 performed using DIIS
 SCF converges when DIIS error is below 1.0e-06
 Alpha HF Exchange    Energy =  -3.74301621354360
 Beta HF Exchange     Energy =  -3.74301621354360
 DFT Correlation      Energy =  -1.83884945666750
 DFT Exchange         Energy = -29.57215617882725
 One-Electron (alpha) Energy = -388.12999090824252
 One-Electron (beta)  Energy = -388.12999090824252
 Total Coulomb        Energy = 324.71339249870283
 ---------------------------------------
  Cycle       Energy         DIIS error
 ---------------------------------------
    1    -317.7718129262      2.86e-02  
 Alpha HF Exchange    Energy =  -3.82993973349536
 Beta HF Exchange     Energy =  -3.82993973349536
 DFT Correlation      Energy =  -1.86866987944032
 DFT Exchange         Energy = -30.41704608945449
 One-Electron (alpha) Energy = -391.58462734955691
 One-Electron (beta)  Energy = -391.58462734955697
 Total Coulomb        Energy = 333.18009017225160
    2    -317.2629455086      6.00e-03  
 Alpha HF Exchange    Energy =  -3.59334580441175
 Beta HF Exchange     Energy =  -3.59334580441174
 DFT Correlation      Energy =  -1.80786174582647
 DFT Exchange         Energy = -28.63112660488630
 One-Electron (alpha) Energy = -382.11399292979314
 One-Electron (beta)  Energy = -382.11399292979280
 Total Coulomb        Energy = 322.56431674413426
    3    -306.6175346208      2.90e-02  
 Alpha HF Exchange    Energy =  -3.75045910604528
 Beta HF Exchange     Energy =  -3.75045910604529
 DFT Correlation      Energy =  -1.84955685155383
 DFT Exchange         Energy = -29.83523365149373
 One-Electron (alpha) Energy = -389.04986237116918
 One-Electron (beta)  Energy = -389.04986237116935
 Total Coulomb        Energy = 327.19983240093694
    4    -317.4137866024      2.95e-03  
 Alpha HF Exchange    Energy =  -3.74485489642880
 Beta HF Exchange     Energy =  -3.74485489642880
 DFT Correlation      Energy =  -1.85309417024807
 DFT Exchange         Energy = -29.84544776503986
 One-Electron (alpha) Energy = -389.74166555454786
 One-Electron (beta)  Energy = -389.74166555454781
 Total Coulomb        Energy = 328.75744931957621
    5    -317.2423190635      6.46e-03  
 Alpha HF Exchange    Energy =  -3.74914928269969
 Beta HF Exchange     Energy =  -3.74914928269969
 DFT Correlation      Energy =  -1.85275762411018
 DFT Exchange         Energy = -29.87545665118797
 One-Electron (alpha) Energy = -389.62196621031057
 One-Electron (beta)  Energy = -389.62196621031057
 Total Coulomb        Energy = 328.37391901049193
    6    -317.4247117967      2.82e-03  
 Alpha HF Exchange    Energy =  -3.75912390109347
 Beta HF Exchange     Energy =  -3.75912390109346
 DFT Correlation      Energy =  -1.85456043763919
 DFT Exchange         Energy = -29.94247734590868
 One-Electron (alpha) Energy = -389.81760588066868
 One-Electron (beta)  Energy = -389.81760588066851
 Total Coulomb        Energy = 328.81709965924665
    7    -317.4615832337      9.53e-04  
 Alpha HF Exchange    Energy =  -3.76260553993148
 Beta HF Exchange     Energy =  -3.76260553993149
 DFT Correlation      Energy =  -1.85482111926086
 DFT Exchange         Energy = -29.96083567012264
 One-Electron (alpha) Energy = -389.84061946278905
 One-Electron (beta)  Energy = -389.84061946278922
 Total Coulomb        Energy = 328.88380226160587
    8    -317.4664900791      1.65e-04  
 Alpha HF Exchange    Energy =  -3.76301853307416
 Beta HF Exchange     Energy =  -3.76301853307416
 DFT Correlation      Energy =  -1.85483890940738
 DFT Exchange         Energy = -29.96343100256943
 One-Electron (alpha) Energy = -389.83828429816975
 One-Electron (beta)  Energy = -389.83828429816987
 Total Coulomb        Energy = 328.88247102007267
    9    -317.4665901002      7.25e-05  
 Alpha HF Exchange    Energy =  -3.76334309840027
 Beta HF Exchange     Energy =  -3.76334309840028
 DFT Correlation      Energy =  -1.85491537836701
 DFT Exchange         Energy = -29.96550811717227
 One-Electron (alpha) Energy = -389.84854567798760
 One-Electron (beta)  Energy = -389.84854567798794
 Total Coulomb        Energy = 328.90576998667615
   10    -317.4666166075      2.31e-05  
 Alpha HF Exchange    Energy =  -3.76348404909820
 Beta HF Exchange     Energy =  -3.76348404909820
 DFT Correlation      Energy =  -1.85492652859503
 DFT Exchange         Energy = -29.96631349157717
 One-Electron (alpha) Energy = -389.84971917351567
 One-Electron (beta)  Energy = -389.84971917351572
 Total Coulomb        Energy = 328.90921228471154
   11    -317.4666197265      1.65e-06  
 Alpha HF Exchange    Energy =  -3.76348848152085
 Beta HF Exchange     Energy =  -3.76348848152085
 DFT Correlation      Energy =  -1.85492740981075
 DFT Exchange         Energy = -29.96633181580479
 One-Electron (alpha) Energy = -389.84961464539447
 One-Electron (beta)  Energy = -389.84961464539458
 Total Coulomb        Energy = 328.90903129535042
   12    -317.4666197299      1.23e-06  
 Alpha HF Exchange    Energy =  -3.76348690851226
 Beta HF Exchange     Energy =  -3.76348690851227
 DFT Correlation      Energy =  -1.85492771520829
 DFT Exchange         Energy = -29.96632962757400
 One-Electron (alpha) Energy = -389.84972601721347
 One-Electron (beta)  Energy = -389.84972601721358
 Total Coulomb        Energy = 328.90924900204544
   13    -317.4666197380      4.31e-07  Convergence criterion met
 ---------------------------------------
 SCF time:   CPU 29.91s  wall 2.00s 
<S^2> =         -0.000000000
 Alpha HF Exchange    Energy =  -3.76348690851226
 Beta HF Exchange     Energy =  -3.76348690851227
 DFT Correlation      Energy =  -1.85492771520829
 DFT Exchange         Energy = -29.96632962757400
 One-Electron (alpha) Energy = -389.84972601721347
 One-Electron (beta)  Energy = -389.84972601721358
 Total Coulomb        Energy = 328.90924900204544
 Nuclear repulsion Energy = 172.67181445416287
 SCF   energy in the final basis set =     -317.4666197380
 Total energy in the final basis set =     -317.4666197380
 
 --------------------------------------------------------------
 
                    Orbital Energies (a.u.)
 --------------------------------------------------------------
 
 Alpha MOs
 -- Occupied --
-24.698 -24.560 -10.307 -10.305 -10.222  -1.208  -0.983  -0.833
 -0.735  -0.633  -0.542  -0.513  -0.496  -0.460  -0.429  -0.421
 -0.369  -0.364  -0.270  -0.257  -0.256
 -- Virtual --
 -0.143   0.072   0.083   0.107   0.131   0.147   0.158   0.183
  0.194   0.228   0.471   0.493   0.507   0.540   0.552   0.592
  0.602   0.654   0.719   0.740   0.805   0.835   0.844   0.879
  0.892   0.909   1.038   1.120   1.140   1.182   1.261   1.318
  1.327   1.346   1.376   1.416   1.493   1.523   1.603   1.612
  1.740   1.779   1.812   1.873   1.891   1.916   1.950   1.961
  1.981   1.983   2.002   2.003   2.026   2.037   2.050   2.073
  2.102   2.152   2.229   2.258   2.340   2.383   2.413   2.494
  2.508   2.634   2.684   2.705   2.750   2.792   2.839   2.880
  3.055   3.162   3.259   3.308   3.395   3.420   3.460   3.636
  4.186   4.391   4.424   4.583
 
 Beta MOs
 -- Occupied --
-24.698 -24.560 -10.307 -10.305 -10.222  -1.208  -0.983  -0.833
 -0.735  -0.633  -0.542  -0.513  -0.496  -0.460  -0.429  -0.421
 -0.369  -0.364  -0.270  -0.257  -0.256
 -- Virtual --
 -0.143   0.072   0.083   0.107   0.131   0.147   0.158   0.183
  0.194   0.228   0.471   0.493   0.507   0.540   0.552   0.592
  0.602   0.654   0.719   0.740   0.805   0.835   0.844   0.879
  0.892   0.909   1.038   1.120   1.140   1.182   1.261   1.318
  1.327   1.346   1.376   1.416   1.493   1.523   1.603   1.612
  1.740   1.779   1.812   1.873   1.891   1.916   1.950   1.961
  1.981   1.983   2.002   2.003   2.026   2.037   2.050   2.073
  2.102   2.152   2.229   2.258   2.340   2.383   2.413   2.494
  2.508   2.634   2.684   2.705   2.750   2.792   2.839   2.880
  3.055   3.162   3.259   3.308   3.395   3.420   3.460   3.636
  4.186   4.391   4.424   4.583
 --------------------------------------------------------------
 
          Ground-State Mulliken Net Atomic Charges

     Atom                 Charge (a.u.)    Spin (a.u.)
  --------------------------------------------------------
      1 F                    -0.309274      -0.000000
      2 F                    -0.421247      -0.000000
      3 C                     0.220216      -0.000000
      4 C                    -0.092274       0.000000
      5 C                    -0.360969      -0.000000
      6 H                     0.181575      -0.000000
      7 H                     0.180415      -0.000000
      8 H                     0.193184      -0.000000
      9 H                     0.131659       0.000000
     10 H                     0.125864       0.000000
     11 H                     0.150852      -0.000000
  --------------------------------------------------------
  Sum of atomic charges =    -0.000000
  Sum of spin   charges =    -0.000000

 -----------------------------------------------------------------
                    Cartesian Multipole Moments
 -----------------------------------------------------------------
    Charge (ESU x 10^10)
                -0.0000
    Dipole Moment (Debye)
         X      -4.3573      Y       2.8721      Z       2.1623
       Tot       5.6489
    Quadrupole Moments (Debye-Ang)
        XX     -37.4816     XY      -0.0496     YY     -28.0808
        XZ       6.2898     YZ       1.3606     ZZ     -28.2939
    Octopole Moments (Debye-Ang^2)
       XXX     -18.2733    XXY      -3.0525    XYY       5.5648
       YYY      -6.3881    XXZ      11.1670    XYZ       0.1548
       YYZ       0.0498    XZZ       0.7087    YZZ      -3.8469
       ZZZ       5.6987
    Hexadecapole Moments (Debye-Ang^3)
      XXXX    -441.7697   XXXY      11.0397   XXYY     -86.2878
      XYYY      12.2819   YYYY    -121.3145   XXXZ      51.6940
      XXYZ       2.1971   XYYZ      10.6035   YYYZ      -0.6609
      XXZZ     -85.1445   XYZZ       2.9180   YYZZ     -36.7012
      XZZZ      32.0434   YZZZ       1.3093   ZZZZ     -86.4155
 -----------------------------------------------------------------
 Calculating analytic gradient of the SCF energy
 Gradient of SCF Energy
            1           2           3           4           5           6
    1   0.0000106   0.0379388   0.0005234  -0.0372146  -0.0001344  -0.0006129
    2   0.0000192  -0.0168183  -0.0001602   0.0164786   0.0000230   0.0001346
    3   0.0000071  -0.0331668  -0.0008448   0.0329094   0.0000381   0.0005448
            7           8           9          10          11
    1  -0.0002276  -0.0002657   0.0000036  -0.0000055  -0.0000157
    2   0.0001401   0.0001715   0.0000029   0.0000082   0.0000002
    3   0.0002151   0.0002375   0.0000241   0.0000192   0.0000163
 Max gradient component =       3.794E-02
 RMS gradient           =       1.298E-02
 Gradient time:  CPU 8.03 s  wall 0.69 s
 Geometry Optimization Parameters
   NAtoms,    NIC,     NZ,  NCons,   NDum,   NFix, NCnnct, MaxDiis
       11      78       0       1       0       0       0       0

 Cartesian Hessian Update
 Hessian Updated using BFGS Update


** CONSTRAINED OPTIMIZATION IN DELOCALIZED INTERNAL COORDINATES **
   Searching for a Minimum

   Optimization Cycle:   4

                       Coordinates (Angstroms)
     ATOM                X               Y               Z
      1  F        -0.6136985478   -1.2678284734    0.4546675253
      2  F         2.3535219289   -0.0401024763   -0.9975026746
      3  C        -0.4844403024   -0.0149403789   -0.1219331400
      4  C         0.5691695758    0.7477342600    0.5662747880
      5  C        -1.8461720511    0.6976886582   -0.0679351874
      6  H        -0.1504009410   -0.1338422619   -1.1605336967
      7  H         0.7606740561    1.7759585441    0.2841132919
      8  H         1.0162701215    0.3646244519    1.4768965039
      9  H        -2.1704146634    0.8416479983    0.9660292915
     10  H        -1.7998848397    1.6677746747   -0.5691413783
     11  H        -2.5809253370    0.0716860033   -0.5792323236
   Point Group: c1    Number of degrees of freedom:    27


   Energy is   -317.466619738

              Constraints and their Current Values
                                        Value     Constraint
   Distance(Angs):        2   4             2.500000     2.500000
 Hessian Updated using BFGS Update

 26 Hessian modes will be used to form the next step
  Hessian Eigenvalues:
     0.017860    0.044980    0.046207    0.050680    0.070776    0.081747
     0.083108    0.083487    0.085299    0.106006    0.114537    0.130858
     0.155136    0.159949    0.160008    0.164480    0.169369    0.289031
     0.336545    0.344391    0.344768    0.345660    0.355556    0.356026
     0.368456    0.481691

 Minimum Search - Taking Simple RFO Step
 Searching for Lamda that Minimizes Along All modes
 Value Taken    Lamda =  -0.00001883
 Step Taken.  Stepsize is  0.030400

                             Maximum     Tolerance    Cnvgd?
         Gradient           0.000448      0.000300      NO
         Displacement       0.018523      0.001200      NO
         Energy change     -0.000015      0.000001      NO


 New Cartesian Coordinates Obtained by Inverse Iteration

 Displacement from previous Coordinates is:  0.030167
 ----------------------------------------------------------------
             Standard Nuclear Orientation (Angstroms)
    I     Atom           X                Y                Z
 ----------------------------------------------------------------
    1      F      -0.6154890515    -1.2666822068     0.4581121337
    2      F       2.3503814805    -0.0364990872    -0.9992426953
    3      C      -0.4859438278    -0.0138740572    -0.1184293478
    4      C       0.5685385110     0.7480499967     0.5690424709
    5      C      -1.8481875430     0.6975359217    -0.0687994925
    6      H      -0.1478214033    -0.1315366026    -1.1567377625
    7      H       0.7664613076     1.7737289825     0.2824335773
    8      H       1.0228047810     0.3605733545     1.4741589269
    9      H      -2.1758319382     0.8414833326     0.9640094604
   10      H      -1.8010838890     1.6673738708    -0.5704014324
   11      H      -2.5801294272     0.0702474950    -0.5824428386
 ----------------------------------------------------------------
 Nuclear Repulsion Energy =   172.6727250659 hartrees
 There are       21 alpha and       21 beta electrons

                       Distance Matrix (Angstroms)
             F (  1)   F (  2)   C (  3)   C (  4)   C (  5)   H (  6)
   F (  2)  3.526134
   C (  3)  1.385175  2.970031
   C (  4)  2.339524  2.500000  1.471421
   C (  5)  2.378095  4.362627  1.537620  2.499992
   H (  6)  2.028548  2.504966  1.098297  2.065227  2.182250
   H (  7)  3.344361  2.725513  2.219174  1.083206  2.849201  2.556788
   H (  8)  2.522760  2.835109  2.225505  1.084312  3.276715  2.921328
   H (  9)  2.671135  5.011170  2.181521  2.774220  1.093054  3.091466
   H ( 10)  3.327486  4.507965  2.181849  2.785426  1.092890  2.512597
   H ( 11)  2.594214  4.949248  2.146625  3.420445  1.092272  2.507320
             H (  7)   H (  8)   H (  9)   H ( 10)
   H (  8)  1.866261
   H (  9)  3.160810  3.274569
   H ( 10)  2.707569  3.723211  1.782400
   H ( 11)  3.853509  4.158730  1.774761  1.777040
 
 Applying Cartesian multipole field
    Component          Value
    ---------          -----
     (2,0,0)        1.00000E-11
     (0,2,0)        2.00000E-11
     (0,0,2)       -3.00000E-10
 Nucleus-field energy     =    -0.0000000141 hartrees
 Requested basis set is 6-31G(d,p)
 There are 38 shells and 105 basis functions
 A cutoff of  1.0D-14 yielded    708 shell pairs
 There are      5525 function pairs
 Smallest overlap matrix eigenvalue = 3.68E-03
 Guess from superposition of atomic densities
 Warning:  Energy on first SCF cycle will be non-variational
 SAD guess density has 42.000000 electrons

 -----------------------------------------------------------------------
  General SCF calculation program by
  Eric Jon Sundstrom, Paul Horn, Yuezhi Mao, Dmitri Zuev, Alec White,
  David Stuck, Shaama M.S., Shane Yost, Joonho Lee, David Small,
  Daniel Levine, Susi Lehtola, Hugh Burton, Evgeny Epifanovsky
 -----------------------------------------------------------------------
 Exchange:     0.2000 Hartree-Fock + 0.0800 Slater + 0.7200 B88
 Correlation:  0.1900 VWN1RPA + 0.8100 LYP
 Using SG-1 standard quadrature grid
 using 12 threads for integral computing
 -------------------------------------------------------
 OpenMP Integral computing Module                
 Release: version 1.0, May 2013, Q-Chem Inc. Pittsburgh 
 -------------------------------------------------------
 -------------------------------------------------------
 OpenMP BLAS3 based DFT computing Module                
 Release: version 1.0, May 2013, Q-Chem Inc. Pittsburgh 
 -------------------------------------------------------
 A unrestricted SCF calculation will be
 performed using DIIS
 SCF converges when DIIS error is below 1.0e-06
 Alpha HF Exchange    Energy =  -3.74302431461791
 Beta HF Exchange     Energy =  -3.74302431461791
 DFT Correlation      Energy =  -1.83886301999043
 DFT Exchange         Energy = -29.57218027282548
 One-Electron (alpha) Energy = -388.13096571486096
 One-Electron (beta)  Energy = -388.13096571486096
 Total Coulomb        Energy = 324.71427062980598
 ---------------------------------------
  Cycle       Energy         DIIS error
 ---------------------------------------
    1    -317.7720276702      2.86e-02  
 Alpha HF Exchange    Energy =  -3.82995997904893
 Beta HF Exchange     Energy =  -3.82995997904894
 DFT Correlation      Energy =  -1.86869357812591
 DFT Exchange         Energy = -30.41717072049759
 One-Electron (alpha) Energy = -391.58651946756976
 One-Electron (beta)  Energy = -391.58651946756959
 Total Coulomb        Energy = 333.18314296183280
    2    -317.2629551782      6.00e-03  
 Alpha HF Exchange    Energy =  -3.59310885497252
 Beta HF Exchange     Energy =  -3.59310885497252
 DFT Correlation      Energy =  -1.80789348653827
 DFT Exchange         Energy = -28.63148936972043
 One-Electron (alpha) Energy = -382.13316474307857
 One-Electron (beta)  Energy = -382.13316474307834
[...]
    I     Atom           X                Y                Z
 ----------------------------------------------------------------
    1      F      -0.6481142401    -1.2625133198     0.5300450199
    2      F       2.2580792582     0.0519367890    -1.1123276857
    3      C      -0.4876433140    -0.0266461890    -0.0776872302
    4      C       0.5731468237     0.7327816608     0.6044870850
    5      C      -1.8389341541     0.7007009111    -0.0945728260
    6      H      -0.1074834322    -0.1770032943    -1.0996142828
    7      H       0.7488408703     1.7700550726     0.3467419160
    8      H       1.0780053476     0.3152099577     1.4686935439
    9      H      -2.2034430761     0.8692499676     0.9221165779
   10      H      -1.7573596509     1.6602220235    -0.6115501688
   11      H      -2.5613954325     0.0764074207    -0.6246289491
 ----------------------------------------------------------------
 Nuclear Repulsion Energy =   172.8070729843 hartrees
 There are       21 alpha and       21 beta electrons

                       Distance Matrix (Angstroms)
             F (  1)   F (  2)   C (  3)   C (  4)   C (  5)   H (  6)
   F (  2)  3.587635
   C (  3)  1.386527  2.935243
   C (  4)  2.340560  2.500000  1.472198
   C (  5)  2.379582  4.271093  1.534701  2.511543
   H (  6)  2.031355  2.376649  1.100665  2.048152  2.185954
   H (  7)  3.343883  2.712677  2.221974  1.083161  2.834582  2.572212
   H (  8)  2.519873  2.850186  2.226974  1.084482  3.331807  2.871213
   H (  9)  2.667805  4.971131  2.178579  2.798029  1.093130  3.094364
   H ( 10)  3.328070  4.354436  2.177777  2.787499  1.092978  2.517081
   H ( 11)  2.605115  4.844150  2.147141  3.430293  1.092086  2.512272
             H (  7)   H (  8)   H (  9)   H ( 10)
   H (  8)  1.866467
   H (  9)  3.139823  3.372478
   H ( 10)  2.685410  3.765072  1.782347
   H ( 11)  3.843133  4.205266  1.774585  1.776264
 
 Applying Cartesian multipole field
    Component          Value
    ---------          -----
     (2,0,0)        1.00000E-11
     (0,2,0)        2.00000E-11
     (0,0,2)       -3.00000E-10
 Nucleus-field energy     =    -0.0000000174 hartrees
 Requested basis set is 6-31G(d,p)
 There are 38 shells and 105 basis functions
 A cutoff of  1.0D-14 yielded    708 shell pairs
 There are      5558 function pairs
 Smallest overlap matrix eigenvalue = 3.70E-03
 Guess from superposition of atomic densities
 Warning:  Energy on first SCF cycle will be non-variational
 SAD guess density has 42.000000 electrons

 -----------------------------------------------------------------------
  General SCF calculation program by
  Eric Jon Sundstrom, Paul Horn, Yuezhi Mao, Dmitri Zuev, Alec White,
  David Stuck, Shaama M.S., Shane Yost, Joonho Lee, David Small,
  Daniel Levine, Susi Lehtola, Hugh Burton, Evgeny Epifanovsky
 -----------------------------------------------------------------------
 Exchange:     0.2000 Hartree-Fock + 0.0800 Slater + 0.7200 B88
 Correlation:  0.1900 VWN1RPA + 0.8100 LYP
 Using SG-1 standard quadrature grid
 using 12 threads for integral computing
 -------------------------------------------------------
 OpenMP Integral computing Module                
 Release: version 1.0, May 2013, Q-Chem Inc. Pittsburgh 
 -------------------------------------------------------
 -------------------------------------------------------
 OpenMP BLAS3 based DFT computing Module                
 Release: version 1.0, May 2013, Q-Chem Inc. Pittsburgh 
 -------------------------------------------------------
 A unrestricted SCF calculation will be
 performed using DIIS
 SCF converges when DIIS error is below 1.0e-06
 Alpha HF Exchange    Energy =  -3.74307614915739
 Beta HF Exchange     Energy =  -3.74307614915739
 DFT Correlation      Energy =  -1.83914627509124
 DFT Exchange         Energy = -29.57229265313512
 One-Electron (alpha) Energy = -388.26654151715292
 One-Electron (beta)  Energy = -388.26654151715292
 Total Coulomb        Energy = 324.85085721795980
 ---------------------------------------
  Cycle       Energy         DIIS error
 ---------------------------------------
    1    -317.7727440760      2.86e-02  
 Alpha HF Exchange    Energy =  -3.83005874093662
 Beta HF Exchange     Energy =  -3.83005874093662
 DFT Correlation      Energy =  -1.86899763346473
 DFT Exchange         Energy = -30.41778559218832
 One-Electron (alpha) Energy = -391.72940171042717
 One-Electron (beta)  Energy = -391.72940171042706
 Total Coulomb        Energy = 333.33483592329833
    2    -317.2637952382      6.01e-03  
 Alpha HF Exchange    Energy =  -3.59269503800575
 Beta HF Exchange     Energy =  -3.59269503800575
 DFT Correlation      Energy =  -1.80840732047426
 DFT Exchange         Energy = -28.64225078975289
 One-Electron (alpha) Energy = -382.35570111511123
 One-Electron (beta)  Energy = -382.35570111511078
 Total Coulomb        Energy = 322.37025492558809
    3    -307.1701225240      3.04e-02  
 Alpha HF Exchange    Energy =  -3.73936957222238
 Beta HF Exchange     Energy =  -3.73936957222238
 DFT Correlation      Energy =  -1.84836707916917
 DFT Exchange         Energy = -29.76983088123762
 One-Electron (alpha) Energy = -389.02239894941891
 One-Electron (beta)  Energy = -389.02239894941897
 Total Coulomb        Energy = 326.91109082259123
    4    -317.4235712142      3.10e-03  
 Alpha HF Exchange    Energy =  -3.74358470977369
 Beta HF Exchange     Energy =  -3.74358470977369
 DFT Correlation      Energy =  -1.85276416045412
 DFT Exchange         Energy = -29.83779507463478
 One-Electron (alpha) Energy = -389.78151151489448
 One-Electron (beta)  Energy = -389.78151151489465
 Total Coulomb        Energy = 328.65518657455738
    5    -317.2784921430      5.90e-03  
 Alpha HF Exchange    Energy =  -3.75008721162568
 Beta HF Exchange     Energy =  -3.75008721162569
 DFT Correlation      Energy =  -1.85318423155904
 DFT Exchange         Energy = -29.88227076878606
 One-Electron (alpha) Energy = -389.76825180034012
 One-Electron (beta)  Energy = -389.76825180034029
 Total Coulomb        Energy = 328.53397048902531
    6    -317.4310895684      2.60e-03  
 Alpha HF Exchange    Energy =  -3.75911334350209
 Beta HF Exchange     Energy =  -3.75911334350209
 DFT Correlation      Energy =  -1.85485326366630
 DFT Exchange         Energy = -29.94235096584961
 One-Electron (alpha) Energy = -389.95202945132468
 One-Electron (beta)  Energy = -389.95202945132456
 Total Coulomb        Energy = 328.95035771060816
    7    -317.4620591417      9.06e-04  
 Alpha HF Exchange    Energy =  -3.76245154826465
 Beta HF Exchange     Energy =  -3.76245154826465
 DFT Correlation      Energy =  -1.85507741111398
 DFT Exchange         Energy = -29.95996371237089
 One-Electron (alpha) Energy = -389.97205524448901
 One-Electron (beta)  Energy = -389.97205524448896
 Total Coulomb        Energy = 329.01047131230922
    8    -317.4665104298      1.92e-04  
 Alpha HF Exchange    Energy =  -3.76332983066819
 Beta HF Exchange     Energy =  -3.76332983066819
 DFT Correlation      Energy =  -1.85520571571824
 DFT Exchange         Energy = -29.96535695674348
 One-Electron (alpha) Energy = -389.98252841865491
 One-Electron (beta)  Energy = -389.98252841865531
 Total Coulomb        Energy = 329.03851839244817
    9    -317.4666878118      3.58e-05  
 Alpha HF Exchange    Energy =  -3.76359592395467
 Beta HF Exchange     Energy =  -3.76359592395467
 DFT Correlation      Energy =  -1.85525060268206
 DFT Exchange         Energy = -29.96709037069014
 One-Electron (alpha) Energy = -389.99008643064866
 One-Electron (beta)  Energy = -389.99008643064866
 Total Coulomb        Energy = 329.05593770890755
   10    -317.4666950068      6.39e-06  
 Alpha HF Exchange    Energy =  -3.76361272329200
 Beta HF Exchange     Energy =  -3.76361272329200
 DFT Correlation      Energy =  -1.85525404801059
 DFT Exchange         Energy = -29.96715660187381
 One-Electron (alpha) Energy = -389.99003420586598
 One-Electron (beta)  Energy = -389.99003420586598
 Total Coulomb        Energy = 329.05593631112259
   11    -317.4666952302      1.22e-06  
 Alpha HF Exchange    Energy =  -3.76361891188090
 Beta HF Exchange     Energy =  -3.76361891188090
 DFT Correlation      Energy =  -1.85525392648520
 DFT Exchange         Energy = -29.96719287515004
 One-Electron (alpha) Energy = -389.98999255533101
 One-Electron (beta)  Energy = -389.98999255533113
 Total Coulomb        Energy = 329.05590154023417
   12    -317.4666952290      1.24e-06  
 Alpha HF Exchange    Energy =  -3.76361450360844
 Beta HF Exchange     Energy =  -3.76361450360845
 DFT Correlation      Energy =  -1.85525389873675
 DFT Exchange         Energy = -29.96717014524692
 One-Electron (alpha) Energy = -389.99002124109603
 One-Electron (beta)  Energy = -389.99002124109626
 Total Coulomb        Energy = 329.05592732924634
   13    -317.4666952373      3.64e-07  Convergence criterion met
 ---------------------------------------
 SCF time:   CPU 30.87s  wall 3.00s 
<S^2> =          0.000000000
 Alpha HF Exchange    Energy =  -3.76361450360844
 Beta HF Exchange     Energy =  -3.76361450360845
 DFT Correlation      Energy =  -1.85525389873675
 DFT Exchange         Energy = -29.96717014524692
 One-Electron (alpha) Energy = -389.99002124109603
 One-Electron (beta)  Energy = -389.99002124109626
 Total Coulomb        Energy = 329.05592732924634
 Nuclear repulsion Energy = 172.80707296687265
 SCF   energy in the final basis set =     -317.4666952373
 Total energy in the final basis set =     -317.4666952373
 
 --------------------------------------------------------------
 
                    Orbital Energies (a.u.)
 --------------------------------------------------------------
 
 Alpha MOs
 -- Occupied --
-24.698 -24.560 -10.308 -10.303 -10.221  -1.207  -0.984  -0.833
 -0.736  -0.632  -0.540  -0.513  -0.499  -0.459  -0.428  -0.420
 -0.370  -0.364  -0.270  -0.258  -0.257
 -- Virtual --
 -0.144   0.073   0.082   0.107   0.133   0.148   0.164   0.185
  0.195   0.230   0.470   0.495   0.506   0.541   0.552   0.594
  0.598   0.660   0.725   0.739   0.804   0.836   0.846   0.881
  0.887   0.908   1.038   1.122   1.137   1.180   1.260   1.322
  1.336   1.344   1.375   1.423   1.485   1.530   1.605   1.619
  1.738   1.777   1.811   1.871   1.886   1.917   1.949   1.961
  1.980   1.981   2.000   2.004   2.028   2.040   2.054   2.080
  2.100   2.150   2.228   2.260   2.332   2.383   2.408   2.498
  2.507   2.633   2.683   2.706   2.754   2.793   2.840   2.882
  3.054   3.164   3.254   3.315   3.399   3.420   3.459   3.646
  4.188   4.380   4.418   4.586
 
 Beta MOs
 -- Occupied --
-24.698 -24.560 -10.308 -10.303 -10.221  -1.207  -0.984  -0.833
 -0.736  -0.632  -0.540  -0.513  -0.499  -0.459  -0.428  -0.420
 -0.370  -0.364  -0.270  -0.258  -0.257
 -- Virtual --
 -0.144   0.073   0.082   0.107   0.133   0.148   0.164   0.185
  0.195   0.230   0.470   0.495   0.506   0.541   0.552   0.594
  0.598   0.660   0.725   0.739   0.804   0.836   0.846   0.881
  0.887   0.908   1.038   1.122   1.137   1.180   1.260   1.322
  1.336   1.344   1.375   1.423   1.485   1.530   1.605   1.619
  1.738   1.777   1.811   1.871   1.886   1.917   1.949   1.961
  1.980   1.981   2.000   2.004   2.028   2.040   2.054   2.080
  2.100   2.150   2.228   2.260   2.332   2.383   2.408   2.498
  2.507   2.633   2.683   2.706   2.754   2.793   2.840   2.882
  3.054   3.164   3.254   3.315   3.399   3.420   3.459   3.646
  4.188   4.380   4.418   4.586
 --------------------------------------------------------------
 
          Ground-State Mulliken Net Atomic Charges

     Atom                 Charge (a.u.)    Spin (a.u.)
  --------------------------------------------------------
      1 F                    -0.311631      -0.000000
      2 F                    -0.425094      -0.000000
      3 C                     0.216368       0.000000
      4 C                    -0.093906      -0.000000
      5 C                    -0.359476      -0.000000
      6 H                     0.189667       0.000000
      7 H                     0.183027       0.000000
      8 H                     0.194243       0.000000
      9 H                     0.130895       0.000000
     10 H                     0.126420       0.000000
     11 H                     0.149485      -0.000000
  --------------------------------------------------------
  Sum of atomic charges =     0.000000
  Sum of spin   charges =    -0.000000

 -----------------------------------------------------------------
                    Cartesian Multipole Moments
 -----------------------------------------------------------------
    Charge (ESU x 10^10)
                 0.0000
    Dipole Moment (Debye)
         X      -4.0840      Y       2.6483      Z       2.4248
       Tot       5.4380
    Quadrupole Moments (Debye-Ang)
        XX     -36.7325     XY      -0.5406     YY     -28.0932
        XZ       6.8423     YZ       1.7028     ZZ     -28.8846
    Octopole Moments (Debye-Ang^2)
       XXX     -13.8995    XXY      -4.1695    XYY       6.0601
       YYY      -7.3229    XXZ      11.8015    XYZ       0.4777
       YYZ       0.0640    XZZ       0.5423    YZZ      -4.3186
       ZZZ       6.2131
    Hexadecapole Moments (Debye-Ang^3)
      XXXX    -422.1006   XXXY       5.6135   XXYY     -84.3856
      XYYY       8.6795   YYYY    -120.4696   XXXZ      54.5137
      XXYZ       4.0517   XYYZ      11.5232   YYYZ       2.5975
      XXZZ     -85.9345   XYZZ       1.1254   YYZZ     -38.2680
      XZZZ      35.3492   YZZZ       4.2714   ZZZZ     -97.8423
 -----------------------------------------------------------------
 Calculating analytic gradient of the SCF energy
 Gradient of SCF Energy
            1           2           3           4           5           6
    1   0.0000207   0.0350078   0.0000909  -0.0349903  -0.0000761  -0.0000194
    2   0.0000557  -0.0142156  -0.0001848   0.0142662   0.0000433   0.0001002
    3   0.0000248  -0.0357647  -0.0001254   0.0357605   0.0000266   0.0000381
            7           8           9          10          11
    1  -0.0000010  -0.0000520  -0.0000040   0.0000074   0.0000159
    2  -0.0000062  -0.0000261  -0.0000347   0.0000021  -0.0000001
    3   0.0000084   0.0000255   0.0000022   0.0000188  -0.0000147
 Max gradient component =       3.576E-02
 RMS gradient           =       1.281E-02
 Gradient time:  CPU 8.15 s  wall 0.70 s
 Geometry Optimization Parameters
   NAtoms,    NIC,     NZ,  NCons,   NDum,   NFix, NCnnct, MaxDiis
       11      78       0       1       0       0       0       0

 Cartesian Hessian Update
 Hessian Updated using BFGS Update


** CONSTRAINED OPTIMIZATION IN DELOCALIZED INTERNAL COORDINATES **
   Searching for a Minimum

   Optimization Cycle:  14

                       Coordinates (Angstroms)
     ATOM                X               Y               Z
      1  F        -0.6481142401   -1.2625133198    0.5300450199
      2  F         2.2580792582    0.0519367890   -1.1123276857
      3  C        -0.4876433140   -0.0266461890   -0.0776872302
      4  C         0.5731468237    0.7327816608    0.6044870850
      5  C        -1.8389341541    0.7007009111   -0.0945728260
      6  H        -0.1074834322   -0.1770032943   -1.0996142828
      7  H         0.7488408703    1.7700550726    0.3467419160
      8  H         1.0780053476    0.3152099577    1.4686935439
      9  H        -2.2034430761    0.8692499676    0.9221165779
     10  H        -1.7573596509    1.6602220235   -0.6115501688
     11  H        -2.5613954325    0.0764074207   -0.6246289491
   Point Group: c1    Number of degrees of freedom:    27


   Energy is   -317.466695237

              Constraints and their Current Values
                                        Value     Constraint
   Distance(Angs):        2   4             2.500000     2.500000
 Hessian Updated using BFGS Update

 26 Hessian modes will be used to form the next step
  Hessian Eigenvalues:
     0.000742    0.007399    0.025360    0.045323    0.071553    0.081950
     0.082792    0.083839    0.085302    0.102193    0.110986    0.130803
     0.158269    0.159827    0.160348    0.164702    0.172567    0.287388
     0.335420    0.344314    0.344779    0.345707    0.355568    0.356178
     0.369863    0.479787

 Minimum Search - Taking Simple RFO Step
 Searching for Lamda that Minimizes Along All modes
 Value Taken    Lamda =  -0.00000128
 Step Taken.  Stepsize is  0.015087

                             Maximum     Tolerance    Cnvgd?
         Gradient           0.000074      0.000300     YES
         Displacement       0.007576      0.001200      NO
         Energy change     -0.000001      0.000001     YES


                       Distance Matrix (Angstroms)
             F (  1)   F (  2)   C (  3)   C (  4)   C (  5)   H (  6)
   F (  2)  3.587635
   C (  3)  1.386527  2.935243
   C (  4)  2.340560  2.500000  1.472198
   C (  5)  2.379582  4.271093  1.534701  2.511543
   H (  6)  2.031355  2.376649  1.100665  2.048152  2.185954
   H (  7)  3.343883  2.712677  2.221974  1.083161  2.834582  2.572212
   H (  8)  2.519873  2.850186  2.226974  1.084482  3.331807  2.871213
   H (  9)  2.667805  4.971131  2.178579  2.798029  1.093130  3.094364
   H ( 10)  3.328070  4.354436  2.177777  2.787499  1.092978  2.517081
   H ( 11)  2.605115  4.844150  2.147141  3.430293  1.092086  2.512272
             H (  7)   H (  8)   H (  9)   H ( 10)
   H (  8)  1.866467
   H (  9)  3.139823  3.372478
   H ( 10)  2.685410  3.765072  1.782347
   H ( 11)  3.843133  4.205266  1.774585  1.776264
 
 Final energy is   -317.466695237274     


 ******************************
 **  OPTIMIZATION CONVERGED  **
 ******************************

                       Coordinates (Angstroms)
     ATOM                X               Y               Z
      1  F        -0.6481142401   -1.2625133198    0.5300450199
      2  F         2.2580792582    0.0519367890   -1.1123276857
      3  C        -0.4876433140   -0.0266461890   -0.0776872302
      4  C         0.5731468237    0.7327816608    0.6044870850
      5  C        -1.8389341541    0.7007009111   -0.0945728260
      6  H        -0.1074834322   -0.1770032943   -1.0996142828
      7  H         0.7488408703    1.7700550726    0.3467419160
      8  H         1.0780053476    0.3152099577    1.4686935439
      9  H        -2.2034430761    0.8692499676    0.9221165779
     10  H        -1.7573596509    1.6602220235   -0.6115501688
     11  H        -2.5613954325    0.0764074207   -0.6246289491

Z-matrix Print:
$molecule
0 1
F 
C  1 1.386527
H  2 1.100665 1 108.975823
C  2 1.472198 1 109.882128 3 -114.049281 0
H  4 1.083161 2 120.040168 1 -172.126910 0
H  4 1.084482 2 120.402213 1 -1.726718 0
C  2 1.534701 1 108.987064 3 121.290959 0
H  7 1.092086 2 108.475379 1 -57.909294 0
H  7 1.092978 2 110.827380 1 -177.245965 0
H  7 1.093130 2 110.882107 1 61.261363 0
F  3 2.376649 2 109.608262 1 -96.075295 0
$end

PES scan, value:    2.5000 energy: -317.4666952373
------- Summary of potential scan: ------ 
    2.5000      -317.4666952373
----------------------------------------- 
Archival summary:
1\1\hpc0244\JobtypUnspecified\ProcedureUnspecified\6-31G**\236\knomura\WedMar1318:29:532019WedMar1318:29:532019\0\\#,JobtypUnspecified,ProcedureUnspecified,6-31G**,\\0,1\F\C,1,1.38653\H,2,1.10067,1,108.976\C,2,1.4722,1,109.882,3,-114.049,0\H,4,1.08316,2,120.04,1,-172.127,0\H,4,1.08448,2,120.402,1,-1.72672,0\C,2,1.5347,1,108.987,3,121.291,0\H,7,1.09209,2,108.475,1,-57.9093,0\H,7,1.09298,2,110.827,1,-177.246,0\H,7,1.09313,2,110.882,1,61.2614,0\F,3,2.37665,2,109.608,1,-96.0753,0\\\@

 Total job time:  51.02s(wall), 589.27s(cpu) 
 Wed Mar 13 18:29:53 2019

        *************************************************************
        *                                                           *
        *  Thank you very much for using Q-Chem.  Have a nice day.  *
        *                                                           *
        *************************************************************


