
Running Job 1 of 1 halogens/Flourine/03/F_2_4.xyz.data/inputs/bond_singlet_3.3.in
qchem halogens/Flourine/03/F_2_4.xyz.data/inputs/bond_singlet_3.3.in_4664.0 /staging/scratch/2868761/qchem4664/ 1
/usr/usc/qchem/5.1.1/exe/qcprog.exe_s halogens/Flourine/03/F_2_4.xyz.data/inputs/bond_singlet_3.3.in_4664.0 /staging/scratch/2868761/qchem4664/
Check license passed

                  Welcome to Q-Chem
     A Quantum Leap Into The Future Of Chemistry


 Q-Chem 5.1, Q-Chem, Inc., Pleasanton, CA (2018)

 Yihan Shao,  Zhengting Gan,  E. Epifanovsky,  A. T. B. Gilbert,  M. Wormit,  
 J. Kussmann,  A. W. Lange,  A. Behn,  Jia Deng,  Xintian Feng,  D. Ghosh,  
 M. Goldey,  P. R. Horn,  L. D. Jacobson,  I. Kaliman,  T. Kus,  A. Landau,  
 Jie Liu,  E. I. Proynov,  R. M. Richard,  R. P. Steele,  E. J. Sundstrom,  
 H. L. Woodcock III,  P. M. Zimmerman,  D. Zuev,  B. Albrecht,  E. Alguire,  
 S. A. Baeppler,  D. Barton,  Z. Benda,  Y. A. Bernard,  E. J. Berquist,  
 K. B. Bravaya,  H. Burton,  D. Casanova,  Chun-Min Chang,  Yunqing Chen,  
 A. Chien,  K. D. Closser,  M. P. Coons,  S. Coriani,  S. Dasgupta,  
 A. L. Dempwolff,  M. Diedenhofen,  Hainam Do,  R. G. Edgar,  Po-Tung Fang,  
 S. Faraji,  S. Fatehi,  Qingguo Feng,  K. D. Fenk,  J. Fosso-Tande,  
 Qinghui Ge,  A. Ghysels,  G. Gidofalvi,  J. Gomes,  J. Gonthier,  A. Gunina,  
 D. Hait,  M. W. D. Hanson-Heine,  P. H. P. Harbach,  A. W. Hauser,  
 J. E. Herr,  E. G. Hohenstein,  Z. C. Holden,  Kerwin Hui,  B. C. Huynh,  
 T.-C. Jagau,  Hyunjun Ji,  B. Kaduk,  K. Khistyaev,  Jaehoon Kim,  
 P. Klunzinger,  K. Koh,  D. Kosenkov,  L. Koulias,  T. Kowalczyk,  
 C. M. Krauter,  A. Kunitsa,  Ka Un Lao,  A. Laurent,  K. V. Lawler,  
 Joonho Lee,  D. Lefrancois,  S. Lehtola,  D. S. Levine,  Yi-Pei Li,  
 You-Sheng Lin,  Fenglai Liu,  E. Livshits,  A. Luenser,  P. Manohar,  
 E. Mansoor,  S. F. Manzer,  Shan-Ping Mao,  Yuezhi Mao,  N. Mardirossian,  
 A. V. Marenich,  T. Markovich,  L. A. Martinez-Martinez,  S. A. Maurer,  
 N. J. Mayhall,  S. C. McKenzie,  J.-M. Mewes,  A. F. Morrison,  
 J. W. Mullinax,  K. Nanda,  T. S. Nguyen-Beck,  R. Olivares-Amaya,  
 J. A. Parkhill,  T. M. Perrine,  F. Plasser,  P. Pokhilko,  S. Prager,  
 A. Prociuk,  E. Ramos,  D. R. Rehn,  F. Rob,  M. Schneider,  N. Sergueev,  
 S. M. Sharada,  S. Sharma,  D. W. Small,  T. Stauch,  T. Stein,  
 Yu-Chuan Su,  A. J. W. Thom,  A. Tkatchenko,  T. Tsuchimochi,  N. M. Tubman,  
 L. Vogt,  M. L. Vidal,  O. Vydrov,  M. A. Watson,  J. Wenzel,  
 M. de Wergifosse,  T. A. Wesolowski,  A. White,  J. Witte,  A. Yamada,  
 Jun Yang,  K. Yao,  S. Yeganeh,  S. R. Yost,  Zhi-Qiang You,  A. Zech,  
 Igor Ying Zhang,  Xing Zhang,  Yan Zhao,  Ying Zhu,  B. R. Brooks,  
 G. K. L. Chan,  C. J. Cramer,  M. S. Gordon,  W. J. Hehre,  A. Klamt,  
 M. W. Schmidt,  C. D. Sherrill,  D. G. Truhlar,  A. Aspuru-Guzik,  R. Baer,  
 A. T. Bell,  N. A. Besley,  Jeng-Da Chai,  A. E. DePrince, III,  
 R. A. DiStasio Jr.,  A. Dreuw,  B. D. Dunietz,  T. R. Furlani,  
 Chao-Ping Hsu,  Yousung Jung,  Jing Kong,  D. S. Lambrecht,  WanZhen Liang,  
 C. Ochsenfeld,  V. A. Rassolov,  L. V. Slipchenko,  J. E. Subotnik,  
 T. Van Voorhis,  J. M. Herbert,  A. I. Krylov,  P. M. W. Gill,  M. Head-Gordon

 Contributors to earlier versions of Q-Chem not listed above: 
 R. D. Adamson,  B. Austin,  J. Baker,  G. J. O. Beran,  K. Brandhorst,  
 S. T. Brown,  E. F. C. Byrd,  A. K. Chakraborty,  C.-L. Cheng,  
 Siu Hung Chien,  D. M. Chipman,  D. L. Crittenden,  H. Dachsel,  
 R. J. Doerksen,  A. D. Dutoi,  L. Fusti-Molnar,  W. A. Goddard III,  
 A. Golubeva-Zadorozhnaya,  S. R. Gwaltney,  G. Hawkins,  A. Heyden,  
 S. Hirata,  G. Kedziora,  F. J. Keil,  C. Kelley,  Jihan Kim,  R. A. King,  
 R. Z. Khaliullin,  P. P. Korambath,  W. Kurlancheek,  A. M. Lee,  M. S. Lee,  
 S. V. Levchenko,  Ching Yeh Lin,  D. Liotard,  R. C. Lochan,  I. Lotan,  
 P. E. Maslen,  N. Nair,  D. P. O'Neill,  D. Neuhauser,  E. Neuscamman,  
 C. M. Oana,  R. Olson,  B. Peters,  R. Peverati,  P. A. Pieniazek,  
 Y. M. Rhee,  J. Ritchie,  M. A. Rohrdanz,  E. Rosta,  N. J. Russ,  
 H. F. Schaefer III,  N. E. Schultz,  N. Shenvi,  A. C. Simmonett,  A. Sodt,  
 D. Stuck,  K. S. Thanthiriwatte,  V. Vanovschi,  Tao Wang,  A. Warshel,  
 C. F. Williams,  Q. Wu,  X. Xu,  W. Zhang

 Please cite Q-Chem as follows:
 Y. Shao et al., Mol. Phys. 113, 184-215 (2015)
 DOI: 10.1080/00268976.2014.952696

 Q-Chem 5.1.1 for Intel X86 EM64T Linux

 Parts of Q-Chem use Armadillo 8.300.2 (Tropical Shenanigans).
 http://arma.sourceforge.net/

 Q-Chem begins on Wed Mar 13 18:38:45 2019  

Host: 
0

     Scratch files written to /staging/scratch/2868761/qchem4664//
 Aug318 |scratch|qcdevops|jenkins|workspace|build_RNUM 6013   
Processing $rem in /usr/usc/qchem/5.1.1/config/preferences.
 MEM_TOTAL  2000 
Input Ideriv = 2
Curr. Ideriv = -1
Max.  Ideriv = 2

Checking the input file for inconsistencies... 	...done.

--------------------------------------------------------------
User input:
--------------------------------------------------------------

$comment
potential surface scanner
$end

$rem
JOBTYPE  PES_SCAN
UNRESTRICTED TRUE
SYM_IGNORE  TRUE
GEOM_OPT_MAX_CYCLES 400
SCF_MAX_CYCLES 400
METHOD   B3LYP
BASIS   6-31G**
PDB_PRINT 2
SCF_CONVERGENCE 6
THRESH 14
SCF_PRINT 1
$end
$molecule
0 1
F -0.850441 -1.146417 0.998009
F 0.642344 -0.095360 -2.087937
C -0.592901 0.128782 0.629292
C 0.553568 0.696471 1.011276
C -1.683455 0.702193 -0.211322
H 0.834583 0.024683 -1.181870
H 0.763537 1.726869 0.752631
H 1.263975 0.156227 1.625673
H -2.648493 0.577921 0.289320
H -1.511566 1.762620 -0.403467
H -1.717453 0.176417 -1.169902
$end
$scan
stre 2 4 3.300000 3.301000 0.100000
$end
--------------------------------------------------------------
 ----------------------------------------------------------------
             Standard Nuclear Orientation (Angstroms)
    I     Atom           X                Y                Z
 ----------------------------------------------------------------
    1      F      -0.8504410000    -1.1464170000     0.9980090000
    2      F       0.6423440000    -0.0953600000    -2.0879370000
    3      C      -0.5929010000     0.1287820000     0.6292920000
    4      C       0.5535680000     0.6964710000     1.0112760000
    5      C      -1.6834550000     0.7021930000    -0.2113220000
    6      H       0.8345830000     0.0246830000    -1.1818700000
    7      H       0.7635370000     1.7268690000     0.7526310000
    8      H       1.2639750000     0.1562270000     1.6256730000
    9      H      -2.6484930000     0.5779210000     0.2893200000
   10      H      -1.5115660000     1.7626200000    -0.4034670000
   11      H      -1.7174530000     0.1764170000    -1.1699020000
 ----------------------------------------------------------------
 Nuclear Repulsion Energy =   176.0433727251 hartrees
 There are       21 alpha and       21 beta electrons
 Requested basis set is 6-31G(d,p)
 There are 38 shells and 105 basis functions

 Total QAlloc Memory Limit   2000 MB
 Mega-Array Size       188 MB
 MEM_STATIC part       192 MB
A total of 1 constraints
  
            1
    1   1.0100000
    2   2.0100000
    3   4.0100000
    4   3.3000000
    5   3.3010000
    6   0.1000000
    7   0.0000000
    8   0.0000000
    9   0.0000000
   10   0.0000000

                       Distance Matrix (Angstroms)
             F (  1)   F (  2)   C (  3)   C (  4)   C (  5)   H (  6)
   F (  2)  3.585553
   C (  3)  1.352188  2.993226
   C (  4)  2.316820  3.200000  1.335131
   C (  5)  2.360880  3.093075  1.491556  2.549324
   H (  6)  2.993769  0.933983  2.308431  2.310878  2.782355
   H (  7)  3.304680  3.376986  2.099766  1.082915  2.822576  2.577747
   H (  8)  2.561562  3.773675  2.107491  1.083525  3.515675  2.843234
   H (  9)  2.590091  4.115127  2.131376  3.284581  1.094251  3.821294
   H ( 10)  3.296015  3.305882  2.140085  2.720836  1.091316  3.021713
   H ( 11)  2.683549  2.546624  2.122259  3.191478  1.093834  2.556571
             H (  7)   H (  8)   H (  9)   H ( 10)
   H (  8)  1.865357
   H (  9)  3.629971  4.155848
   H ( 10)  2.552241  3.794936  1.782153
   H ( 11)  3.500764  4.087121  1.776899  1.773655
 
 A cutoff of  1.0D-14 yielded    718 shell pairs
 There are      5640 function pairs
 
 -------------------------------------------------------
 OpenMP Integral Computing Module                       
 Release: version 1.0, May 2013, Q-Chem Inc. Pittsburgh 
 -------------------------------------------------------
 Integral Job Info:
 Integral job number is                      11
 Integral operator is                         1
 short-range coefficients                     0
 long-range coefficients              100000000
 Omega coefficients                           0
 if combine SR and LR in K                    0
 Integral screening is                        0
 Integral computing path is                   2
 max size of driver memory is            800000
 size of driver memory is                593474
 size of scratch memory is              2361544
 max col of scratch BK array               1296
 max len of scratch array in speh3          155
 max len of scratch index in speh4           18
 max int batch size is                      520
 min int batch size is                       52
 fixed nKL is                                52
 max L of basis functions is                  2
 order of int derivative is                   0
 number of shells is                         38
 number of basis is                         105
 number of cartesian basis is               105
 number of contracted shell pairs           718
 number of primitive shell pairs           2588
 maxK2 (contraction) of shell pair           36
 max number of K2 of shell pair               1
 max number of CS2 of shell pair             65
 max number of PS2 of shell pair            276
 mem total for path MDJ                  519084
 -------------------------------------------------------
 Smallest overlap matrix eigenvalue = 3.47E-03

 Scale SEOQF with 1.000000e-01/1.000000e-01/1.000000e-01

 Standard Electronic Orientation quadrupole field applied
 Nucleus-field energy     =    -0.0000000034 hartrees
 Guess from superposition of atomic densities
 Warning:  Energy on first SCF cycle will be non-variational
 SAD guess density has 42.000000 electrons

 -----------------------------------------------------------------------
  General SCF calculation program by
  Eric Jon Sundstrom, Paul Horn, Yuezhi Mao, Dmitri Zuev, Alec White,
  David Stuck, Shaama M.S., Shane Yost, Joonho Lee, David Small,
  Daniel Levine, Susi Lehtola, Hugh Burton, Evgeny Epifanovsky
 -----------------------------------------------------------------------
 Exchange:     0.2000 Hartree-Fock + 0.0800 Slater + 0.7200 B88
 Correlation:  0.1900 VWN1RPA + 0.8100 LYP
 Using SG-1 standard quadrature grid
 using 12 threads for integral computing
 -------------------------------------------------------
 OpenMP Integral computing Module                
 Release: version 1.0, May 2013, Q-Chem Inc. Pittsburgh 
 -------------------------------------------------------
 -------------------------------------------------------
 OpenMP BLAS3 based DFT computing Module                
 Release: version 1.0, May 2013, Q-Chem Inc. Pittsburgh 
 -------------------------------------------------------
 A unrestricted SCF calculation will be
 performed using DIIS
 SCF converges when DIIS error is below 1.0e-06
 Alpha HF Exchange    Energy =  -3.76901844730928
 Beta HF Exchange     Energy =  -3.76901844730928
 DFT Correlation      Energy =  -1.84576029593274
 DFT Exchange         Energy = -29.64086018145758
 One-Electron (alpha) Energy = -391.24732393061828
 One-Electron (beta)  Energy = -391.24732393061828
 Total Coulomb        Energy = 327.39818977672650
 ---------------------------------------
  Cycle       Energy         DIIS error
 ---------------------------------------
    1    -318.0777427348      3.12e-02  
 Alpha HF Exchange    Energy =  -3.82271578527337
 Beta HF Exchange     Energy =  -3.82271578527337
 DFT Correlation      Energy =  -1.87619795550775
 DFT Exchange         Energy = -30.38593569443514
 One-Electron (alpha) Energy = -394.63698420973105
 One-Electron (beta)  Energy = -394.63698420973100
 Total Coulomb        Energy = 335.65972670487156
    2    -317.4784342134      4.88e-03  
 Alpha HF Exchange    Energy =  -3.73987573919399
 Beta HF Exchange     Energy =  -3.73987573919399
 DFT Correlation      Energy =  -1.84989223816628
 DFT Exchange         Energy = -29.72243240734392
 One-Electron (alpha) Energy = -391.59643684473900
 One-Electron (beta)  Energy = -391.59643684473900
 Total Coulomb        Energy = 328.76052632163550
    3    -317.4410507701      5.70e-03  
 Alpha HF Exchange    Energy =  -3.77615376069802
 Beta HF Exchange     Energy =  -3.77615376069802
 DFT Correlation      Energy =  -1.86113416523442
 DFT Exchange         Energy = -30.01144117869748
 One-Electron (alpha) Energy = -392.73544889945555
 One-Electron (beta)  Energy = -392.73544889945555
 Total Coulomb        Energy = 331.26765433201211
    4    -317.5847536105      9.39e-04  
 Alpha HF Exchange    Energy =  -3.78043147262334
 Beta HF Exchange     Energy =  -3.78043147262334
 DFT Correlation      Energy =  -1.86294008175028
 DFT Exchange         Energy = -30.04780466633977
 One-Electron (alpha) Energy = -393.10499523581143
 One-Electron (beta)  Energy = -393.10499523581154
 Total Coulomb        Energy = 332.04856383164775
    5    -317.5896616116      2.38e-04  
 Alpha HF Exchange    Energy =  -3.77925802659109
 Beta HF Exchange     Energy =  -3.77925802659109
 DFT Correlation      Energy =  -1.86261994375916
 DFT Exchange         Energy = -30.03849053906686
 One-Electron (alpha) Energy = -393.03578773201701
 One-Electron (beta)  Energy = -393.03578773201696
 Total Coulomb        Energy = 331.89789924579861
    6    -317.5899300326      7.58e-05  
 Alpha HF Exchange    Energy =  -3.77947187439279
 Beta HF Exchange     Energy =  -3.77947187439279
 DFT Correlation      Energy =  -1.86259843627364
 DFT Exchange         Energy = -30.03986400070373
 One-Electron (alpha) Energy = -393.03508492041442
 One-Electron (beta)  Energy = -393.03508492041431
 Total Coulomb        Energy = 331.89824900118606
    7    -317.5899543037      1.73e-05  
 Alpha HF Exchange    Energy =  -3.77941973199990
 Beta HF Exchange     Energy =  -3.77941973199990
 DFT Correlation      Energy =  -1.86260461418439
 DFT Exchange         Energy = -30.03953545185492
 One-Electron (alpha) Energy = -393.03515414514663
 One-Electron (beta)  Energy = -393.03515414514681
 Total Coulomb        Energy = 331.89795945460548
    8    -317.5899556440      5.95e-06  
 Alpha HF Exchange    Energy =  -3.77944410370795
 Beta HF Exchange     Energy =  -3.77944410370795
 DFT Correlation      Energy =  -1.86260725716200
 DFT Exchange         Energy = -30.03971008829470
 One-Electron (alpha) Energy = -393.03576167698469
 One-Electron (beta)  Energy = -393.03576167698475
 Total Coulomb        Energy = 331.89940041314338
    9    -317.5899557720      1.03e-06  
 Alpha HF Exchange    Energy =  -3.77944238531467
 Beta HF Exchange     Energy =  -3.77944238531467
 DFT Correlation      Energy =  -1.86260723418054
 DFT Exchange         Energy = -30.03969764929783
 One-Electron (alpha) Energy = -393.03572702647404
 One-Electron (beta)  Energy = -393.03572702647386
 Total Coulomb        Energy = 331.89931520993684
   10    -317.5899557754      3.48e-07  Convergence criterion met
 ---------------------------------------
 SCF time:   CPU 23.92s  wall 2.00s 
<S^2> =         -0.000000000
 Alpha HF Exchange    Energy =  -3.77944238531467
 Beta HF Exchange     Energy =  -3.77944238531467
 DFT Correlation      Energy =  -1.86260723418054
 DFT Exchange         Energy = -30.03969764929783
 One-Electron (alpha) Energy = -393.03572702647404
 One-Electron (beta)  Energy = -393.03572702647386
 Total Coulomb        Energy = 331.89931520993684
 Nuclear repulsion Energy = 176.04337272168004
 SCF   energy in the final basis set =     -317.5899557754
 Total energy in the final basis set =     -317.5899557754
 
 --------------------------------------------------------------
 
                    Orbital Energies (a.u.)
 --------------------------------------------------------------
 
 Alpha MOs
 -- Occupied --
-24.712 -24.650 -10.293 -10.202 -10.197  -1.225  -1.153  -0.807
 -0.721  -0.591  -0.511  -0.503  -0.494  -0.475  -0.425  -0.415
 -0.401  -0.372  -0.365  -0.364  -0.271
 -- Virtual --
  0.003   0.085   0.109   0.128   0.146   0.169   0.177   0.202
  0.254   0.343   0.491   0.531   0.549   0.578   0.604   0.616
  0.645   0.694   0.763   0.798   0.822   0.852   0.867   0.904
  0.921   1.010   1.069   1.150   1.177   1.202   1.218   1.263
  1.293   1.315   1.387   1.395   1.482   1.579   1.606   1.635
  1.692   1.743   1.780   1.818   1.839   1.850   1.885   1.890
  1.930   2.002   2.022   2.055   2.071   2.089   2.110   2.130
  2.226   2.313   2.333   2.413   2.447   2.545   2.561   2.615
  2.637   2.682   2.737   2.771   2.834   2.838   2.868   3.000
  3.096   3.185   3.355   3.408   3.452   3.590   3.715   3.907
  4.213   4.419   4.472   4.919
 
 Beta MOs
 -- Occupied --
-24.712 -24.650 -10.293 -10.202 -10.197  -1.225  -1.153  -0.807
 -0.721  -0.591  -0.511  -0.503  -0.494  -0.475  -0.425  -0.415
 -0.401  -0.372  -0.365  -0.364  -0.271
 -- Virtual --
  0.003   0.085   0.109   0.128   0.146   0.169   0.177   0.202
  0.254   0.343   0.491   0.531   0.549   0.578   0.604   0.616
  0.645   0.694   0.763   0.798   0.822   0.852   0.867   0.904
  0.921   1.010   1.069   1.150   1.177   1.202   1.218   1.263
  1.293   1.315   1.387   1.395   1.482   1.579   1.606   1.635
  1.692   1.743   1.780   1.818   1.839   1.850   1.885   1.890
  1.930   2.002   2.022   2.055   2.071   2.089   2.110   2.130
  2.226   2.313   2.333   2.413   2.447   2.545   2.561   2.615
  2.637   2.682   2.737   2.771   2.834   2.838   2.868   3.000
  3.096   3.185   3.355   3.408   3.452   3.590   3.715   3.907
  4.213   4.419   4.472   4.919
 --------------------------------------------------------------
 
          Ground-State Mulliken Net Atomic Charges

     Atom                 Charge (a.u.)    Spin (a.u.)
  --------------------------------------------------------
      1 F                    -0.280564       0.000000
      2 F                    -0.375735      -0.000000
      3 C                     0.379510      -0.000000
      4 C                    -0.356631      -0.000000
      5 C                    -0.383272       0.000000
      6 H                     0.343382       0.000000
      7 H                     0.123744      -0.000000
      8 H                     0.126273      -0.000000
      9 H                     0.135290      -0.000000
     10 H                     0.126754      -0.000000
     11 H                     0.161249       0.000000
  --------------------------------------------------------
  Sum of atomic charges =    -0.000000
  Sum of spin   charges =    -0.000000

 -----------------------------------------------------------------
                    Cartesian Multipole Moments
 -----------------------------------------------------------------
    Charge (ESU x 10^10)
                -0.0000
    Dipole Moment (Debye)
         X      -0.3709      Y       1.4813      Z       1.4820
       Tot       2.1280
    Quadrupole Moments (Debye-Ang)
        XX     -26.5500     XY      -0.8380     YY     -28.9890
        XZ       2.5034     YZ       0.0978     ZZ     -35.0957
    Octopole Moments (Debye-Ang^2)
       XXX      31.9661    XXY      -3.7076    XYY      13.0065
       YYY     -11.6935    XXZ      -0.5446    XYZ      -0.7525
       YYZ      -3.3356    XZZ       9.6826    YZZ      -5.4065
       ZZZ       4.9877
    Hexadecapole Moments (Debye-Ang^3)
      XXXX    -217.4393   XXXY       4.9857   XXYY     -58.4846
      XYYY       7.0071   YYYY    -112.9420   XXXZ      14.1979
      XXYZ       1.1427   XYYZ       6.8333   YYYZ       1.5675
      XXZZ     -79.0962   XYZZ       2.4916   YYZZ     -64.5984
      XZZZ      27.1948   YZZZ      -1.3542   ZZZZ    -278.0386
 -----------------------------------------------------------------
 Calculating analytic gradient of the SCF energy
 Gradient of SCF Energy
            1           2           3           4           5           6
    1  -0.0000124   0.0000299  -0.0000062  -0.0000152  -0.0000248   0.0000131
    2  -0.0000024  -0.0000548   0.0000440   0.0003053   0.0000011  -0.0003070
    3   0.0000532  -0.0007696  -0.0000423   0.0007958   0.0000607  -0.0000670
            7           8           9          10          11
    1  -0.0000098   0.0000214   0.0000051   0.0000105  -0.0000114
    2   0.0000108  -0.0000027   0.0000105   0.0000003  -0.0000051
    3   0.0000066  -0.0000285   0.0000083  -0.0000194   0.0000022
 Max gradient component =       7.958E-04
 RMS gradient           =       2.086E-04
 Gradient time:  CPU 8.30 s  wall 0.73 s
 Geometry Optimization Parameters
   NAtoms,    NIC,     NZ,  NCons,   NDum,   NFix, NCnnct, MaxDiis
       11      81       0       1       0       0       0       0


** CONSTRAINED OPTIMIZATION IN DELOCALIZED INTERNAL COORDINATES **
   Searching for a Minimum

   Optimization Cycle:   1

                       Coordinates (Angstroms)
     ATOM                X               Y               Z
      1  F        -0.8504410000   -1.1464170000    0.9980090000
      2  F         0.6423440000   -0.0953600000   -2.0879370000
      3  C        -0.5929010000    0.1287820000    0.6292920000
      4  C         0.5535680000    0.6964710000    1.0112760000
      5  C        -1.6834550000    0.7021930000   -0.2113220000
      6  H         0.8345830000    0.0246830000   -1.1818700000
      7  H         0.7635370000    1.7268690000    0.7526310000
      8  H         1.2639750000    0.1562270000    1.6256730000
      9  H        -2.6484930000    0.5779210000    0.2893200000
     10  H        -1.5115660000    1.7626200000   -0.4034670000
     11  H        -1.7174530000    0.1764170000   -1.1699020000
   Point Group: c1    Number of degrees of freedom:    27


   Energy is   -317.589955775

              Constraints and their Current Values
                                        Value     Constraint
   Distance(Angs):        2   4             3.200000     3.300000

 Attempting to Generate Delocalized Internal Coordinates

   Using Lagrange Multiplier Algorithm


 28 Hessian modes will be used to form the next step
  Hessian Eigenvalues:
    -0.992929    0.045000    0.045649    0.049577    0.057578    0.058913
     0.068965    0.078345    0.083420    0.084756    0.096475    0.107428
     0.118576    0.136396    0.160000    0.160000    0.160000    0.171428
     0.310665    0.332796    0.343260    0.343734    0.346610    0.355718
     0.356444    0.521905    0.545585    1.007121

 Minimum Search - Taking P-RFO Step
 Searching for Lamda that Maximizes Along the Constraint modes Only
 Value Taken    Lamda =   0.01793839
 Searching for Lamda that Minimizes Along All other modes
 Value Taken    Lamda =  -0.01716157
 Step Taken.  Stepsize is  0.185719

                             Maximum     Tolerance    Cnvgd?
         Gradient            0.188973       0.000300      NO
         Displacement        0.185712       0.001200      NO
         Energy change     *********       0.000001      NO


 New Cartesian Coordinates Obtained by Inverse Iteration

 Displacement from previous Coordinates is:  0.174532
 ----------------------------------------------------------------
             Standard Nuclear Orientation (Angstroms)
    I     Atom           X                Y                Z
 ----------------------------------------------------------------
    1      F      -0.8464317711    -1.1439203538     1.0043137632
    2      F       0.6328737580    -0.1125514915    -2.1601112156
    3      C      -0.5925129744     0.1324114847     0.6370999556
    4      C       0.5524308171     0.7025422267     1.0348481478
    5      C      -1.6792834050     0.7019922148    -0.2110084842
    6      H       0.8258387022     0.0207955348    -1.1985986212
    7      H       0.7632776972     1.7340368303     0.7813221837
    8      H       1.2594872460     0.1616440241     1.6525199267
    9      H      -2.6470555071     0.5762700268     0.2839709059
   10      H      -1.5086976512     1.7625279335    -0.4037100485
   11      H      -1.7062289117     0.1746575696    -1.1689435134
 ----------------------------------------------------------------
 Nuclear Repulsion Energy =   174.7360812047 hartrees
 There are       21 alpha and       21 beta electrons

                       Distance Matrix (Angstroms)
             F (  1)   F (  2)   C (  3)   C (  4)   C (  5)   H (  6)
   F (  2)  3.642204
   C (  3)  1.352163  3.063653
   C (  4)  2.316716  3.298274  1.339458
   C (  5)  2.361788  3.131861  1.491570  2.555916
   H (  6)  3.000979  0.989709  2.322492  2.351131  2.777589
   H (  7)  3.305076  3.475475  2.103372  1.082919  2.831244  2.619007
   H (  8)  2.561165  3.873498  2.112306  1.083521  3.521518  2.887346
   H (  9)  2.592334  4.148005  2.131398  3.288841  1.094255  3.816747
   H ( 10)  3.296751  3.344727  2.140084  2.727869  1.091315  3.019195
   H ( 11)  2.683458  2.556620  2.122249  3.199516  1.093822  2.536911
             H (  7)   H (  8)   H (  9)   H ( 10)
   H (  8)  1.864840
   H (  9)  3.635678  4.160038
   H ( 10)  2.562613  3.801810  1.782126
   H ( 11)  3.511931  4.093446  1.776910  1.773678
 
 Applying Cartesian multipole field
    Component          Value
    ---------          -----
     (2,0,0)        1.00000E-11
     (0,2,0)        2.00000E-11
     (0,0,2)       -3.00000E-11
 Nucleus-field energy     =    -0.0000000037 hartrees
 Requested basis set is 6-31G(d,p)
 There are 38 shells and 105 basis functions
 A cutoff of  1.0D-14 yielded    717 shell pairs
 There are      5639 function pairs
 Smallest overlap matrix eigenvalue = 3.49E-03
 Guess from superposition of atomic densities
 Warning:  Energy on first SCF cycle will be non-variational
 SAD guess density has 42.000000 electrons

 -----------------------------------------------------------------------
  General SCF calculation program by
  Eric Jon Sundstrom, Paul Horn, Yuezhi Mao, Dmitri Zuev, Alec White,
  David Stuck, Shaama M.S., Shane Yost, Joonho Lee, David Small,
  Daniel Levine, Susi Lehtola, Hugh Burton, Evgeny Epifanovsky
 -----------------------------------------------------------------------
 Exchange:     0.2000 Hartree-Fock + 0.0800 Slater + 0.7200 B88
 Correlation:  0.1900 VWN1RPA + 0.8100 LYP
 Using SG-1 standard quadrature grid
 using 12 threads for integral computing
 -------------------------------------------------------
 OpenMP Integral computing Module                
 Release: version 1.0, May 2013, Q-Chem Inc. Pittsburgh 
 -------------------------------------------------------
 -------------------------------------------------------
 OpenMP BLAS3 based DFT computing Module                
 Release: version 1.0, May 2013, Q-Chem Inc. Pittsburgh 
 -------------------------------------------------------
 A unrestricted SCF calculation will be
 performed using DIIS
 SCF converges when DIIS error is below 1.0e-06
 Alpha HF Exchange    Energy =  -3.76406370085363
 Beta HF Exchange     Energy =  -3.76406370085363
 DFT Correlation      Energy =  -1.84447784284017
 DFT Exchange         Energy = -29.62889959591672
 One-Electron (alpha) Energy = -389.99737918751509
 One-Electron (beta)  Energy = -389.99737918751509
 Total Coulomb        Energy = 326.22455301282059
 ---------------------------------------
  Cycle       Energy         DIIS error
 ---------------------------------------
    1    -318.0356290017      3.08e-02  
 Alpha HF Exchange    Energy =  -3.81965698025500
 Beta HF Exchange     Energy =  -3.81965698025500
 DFT Correlation      Energy =  -1.87497838939934
 DFT Exchange         Energy = -30.36521098516067
 One-Electron (alpha) Energy = -393.34831493818353
 One-Electron (beta)  Energy = -393.34831493818353
 Total Coulomb        Energy = 334.36624129263515
    2    -317.4738107178      4.89e-03  
 Alpha HF Exchange    Energy =  -3.73528322786591
 Beta HF Exchange     Energy =  -3.73528322786591
 DFT Correlation      Energy =  -1.84820949842737
 DFT Exchange         Energy = -29.69171828728106
 One-Electron (alpha) Energy = -390.29927905180563
 One-Electron (beta)  Energy = -390.29927905180563
 Total Coulomb        Energy = 327.44171455100320
    3    -317.4312565931      5.85e-03  
 Alpha HF Exchange    Energy =  -3.77296522167589
 Beta HF Exchange     Energy =  -3.77296522167589
 DFT Correlation      Energy =  -1.85976678462336
 DFT Exchange         Energy = -29.99083740453578
 One-Electron (alpha) Energy = -391.46061692992919
 One-Electron (beta)  Energy = -391.46061692992919
 Total Coulomb        Energy = 329.99981368909374
    4    -317.5818736023      9.32e-04  
 Alpha HF Exchange    Energy =  -3.77711583573549
 Beta HF Exchange     Energy =  -3.77711583573550
 DFT Correlation      Energy =  -1.86161410488580
 DFT Exchange         Energy = -30.02636781297170
 One-Electron (alpha) Energy = -391.83180195838827
 One-Electron (beta)  Energy = -391.83180195838855
 Total Coulomb        Energy = 330.78310145518628
    5    -317.5866348499      2.46e-04  
 Alpha HF Exchange    Energy =  -3.77588195617707
 Beta HF Exchange     Energy =  -3.77588195617707
 DFT Correlation      Energy =  -1.86125963320258
 DFT Exchange         Energy = -30.01651836818870
 One-Electron (alpha) Energy = -391.75586389547232
 One-Electron (beta)  Energy = -391.75586389547226
 Total Coulomb        Energy = 330.61826578948575
    6    -317.5869227142      8.59e-05  
 Alpha HF Exchange    Energy =  -3.77615451334056
 Beta HF Exchange     Energy =  -3.77615451334056
 DFT Correlation      Energy =  -1.86125565731216
 DFT Exchange         Energy = -30.01835934269573
 One-Electron (alpha) Energy = -391.75881544894372
 One-Electron (beta)  Energy = -391.75881544894355
 Total Coulomb        Energy = 330.62651966571281
    7    -317.5869540579      1.77e-05  
 Alpha HF Exchange    Energy =  -3.77609926612813
 Beta HF Exchange     Energy =  -3.77609926612813
 DFT Correlation      Energy =  -1.86125947583358
 DFT Exchange         Energy = -30.01800026100901
 One-Electron (alpha) Energy = -391.75834724582501
 One-Electron (beta)  Energy = -391.75834724582489
 Total Coulomb        Energy = 330.62511605018875
    8    -317.5869555096      5.70e-06  
 Alpha HF Exchange    Energy =  -3.77612435155624
 Beta HF Exchange     Energy =  -3.77612435155624
 DFT Correlation      Energy =  -1.86126222777633
 DFT Exchange         Energy = -30.01818090741379
 One-Electron (alpha) Energy = -391.75900382990966
 One-Electron (beta)  Energy = -391.75900382990949
 Total Coulomb        Energy = 330.62666266731901
    9    -317.5869556298      1.16e-06  
 Alpha HF Exchange    Energy =  -3.77612221857407
 Beta HF Exchange     Energy =  -3.77612221857407
 DFT Correlation      Energy =  -1.86126232977316
 DFT Exchange         Energy = -30.01816602211843
 One-Electron (alpha) Energy = -391.75897966947912
 One-Electron (beta)  Energy = -391.75897966947917
 Total Coulomb        Energy = 330.62659529296053
   10    -317.5869556341      4.13e-07  Convergence criterion met
 ---------------------------------------
 SCF time:   CPU 23.43s  wall 2.00s 
<S^2> =          0.000000000
 Alpha HF Exchange    Energy =  -3.77612221857407
 Beta HF Exchange     Energy =  -3.77612221857407
 DFT Correlation      Energy =  -1.86126232977316
 DFT Exchange         Energy = -30.01816602211843
 One-Electron (alpha) Energy = -391.75897966947912
 One-Electron (beta)  Energy = -391.75897966947917
 Total Coulomb        Energy = 330.62659529296053
 Nuclear repulsion Energy = 174.73608120098541
 SCF   energy in the final basis set =     -317.5869556341
 Total energy in the final basis set =     -317.5869556341
 
 --------------------------------------------------------------
 
                    Orbital Energies (a.u.)
 --------------------------------------------------------------
 
 Alpha MOs
 -- Occupied --
-24.713 -24.649 -10.295 -10.204 -10.200  -1.226  -1.136  -0.807
 -0.722  -0.592  -0.507  -0.496  -0.495  -0.473  -0.426  -0.416
 -0.402  -0.373  -0.359  -0.358  -0.272
 -- Virtual --
  0.001   0.076   0.104   0.118   0.143   0.168   0.175   0.200
  0.252   0.342   0.488   0.530   0.547   0.575   0.604   0.611
  0.645   0.683   0.756   0.791   0.819   0.851   0.862   0.898
  0.919   1.009   1.069   1.149   1.177   1.200   1.218   1.259
  1.292   1.309   1.386   1.394   1.480   1.579   1.593   1.632
  1.677   1.740   1.776   1.813   1.836   1.848   1.890   1.893
  1.927   1.999   2.021   2.053   2.068   2.085   2.106   2.127
  2.220   2.310   2.325   2.400   2.436   2.461   2.546   2.607
  2.634   2.667   2.673   2.726   2.829   2.835   2.865   2.995
  3.095   3.184   3.352   3.407   3.450   3.586   3.662   3.846
  4.211   4.404   4.465   4.906
 
 Beta MOs
 -- Occupied --
-24.713 -24.649 -10.295 -10.204 -10.200  -1.226  -1.136  -0.807
 -0.722  -0.592  -0.507  -0.496  -0.495  -0.473  -0.426  -0.416
 -0.402  -0.373  -0.359  -0.358  -0.272
 -- Virtual --
  0.001   0.076   0.104   0.118   0.143   0.168   0.175   0.200
  0.252   0.342   0.488   0.530   0.547   0.575   0.604   0.611
  0.645   0.683   0.756   0.791   0.819   0.851   0.862   0.898
  0.919   1.009   1.069   1.149   1.177   1.200   1.218   1.259
  1.292   1.309   1.386   1.394   1.480   1.579   1.593   1.632
  1.677   1.740   1.776   1.813   1.836   1.848   1.890   1.893
  1.927   1.999   2.021   2.053   2.068   2.085   2.106   2.127
  2.220   2.310   2.325   2.400   2.436   2.461   2.546   2.607
  2.634   2.667   2.673   2.726   2.829   2.835   2.865   2.995
  3.095   3.184   3.352   3.407   3.450   3.586   3.662   3.846
  4.211   4.404   4.465   4.906
 --------------------------------------------------------------
 
          Ground-State Mulliken Net Atomic Charges

     Atom                 Charge (a.u.)    Spin (a.u.)
  --------------------------------------------------------
      1 F                    -0.279803       0.000000
      2 F                    -0.393463       0.000000
      3 C                     0.376469       0.000000
      4 C                    -0.352526      -0.000000
      5 C                    -0.384006       0.000000
      6 H                     0.355569      -0.000000
      7 H                     0.124008      -0.000000
      8 H                     0.127394      -0.000000
      9 H                     0.136475      -0.000000
     10 H                     0.127505      -0.000000
     11 H                     0.162378      -0.000000
  --------------------------------------------------------
  Sum of atomic charges =     0.000000
  Sum of spin   charges =     0.000000

 -----------------------------------------------------------------
                    Cartesian Multipole Moments
 -----------------------------------------------------------------
    Charge (ESU x 10^10)
                -0.0000
    Dipole Moment (Debye)
         X      -0.3983      Y       1.5181      Z       1.6218
       Tot       2.2569
    Quadrupole Moments (Debye-Ang)
        XX     -26.5721     XY      -0.8217     YY     -29.0150
        XZ       2.5909     YZ       0.0581     ZZ     -35.5504
    Octopole Moments (Debye-Ang^2)
       XXX      31.7144    XXY      -3.6539    XYY      12.9556
       YYY     -11.5858    XXZ      -0.2731    XYZ      -0.7446
       YYZ      -3.0719    XZZ       9.5203    YZZ      -5.2189
       ZZZ       7.0155
    Hexadecapole Moments (Debye-Ang^3)
      XXXX    -215.9080   XXXY       5.0566   XXYY     -58.2908
      XYYY       7.1496   YYYY    -113.1502   XXXZ      14.6443
      XXYZ       0.7347   XYYZ       7.0274   YYYZ       0.4906
      XXZZ     -81.0386   XYZZ       2.6685   YYZZ     -66.7511
      XZZZ      28.5121   YZZZ      -2.8330   ZZZZ    -294.0229
 -----------------------------------------------------------------
 Calculating analytic gradient of the SCF energy
 Gradient of SCF Energy
            1           2           3           4           5           6
    1   0.0003909  -0.0088455  -0.0040849   0.0033100  -0.0002731   0.0093556
    2  -0.0000064  -0.0067236  -0.0007840   0.0015033  -0.0001502   0.0059867
    3   0.0003245  -0.0485005  -0.0015621   0.0036421  -0.0000170   0.0459542
            7           8           9          10          11
    1   0.0000424   0.0003114  -0.0000220  -0.0000038  -0.0001809
    2  -0.0000425   0.0001706   0.0000641  -0.0000240   0.0000061
    3   0.0000600  -0.0000069  -0.0000026  -0.0000290   0.0001373
 Max gradient component =       4.850E-02
 RMS gradient           =       1.201E-02
 Gradient time:  CPU 8.21 s  wall 0.71 s
 Geometry Optimization Parameters
   NAtoms,    NIC,     NZ,  NCons,   NDum,   NFix, NCnnct, MaxDiis
       11      81       0       1       0       0       0       0

 Cartesian Hessian Update
 Hessian Updated using BFGS Update


** CONSTRAINED OPTIMIZATION IN DELOCALIZED INTERNAL COORDINATES **
   Searching for a Minimum

   Optimization Cycle:   2

                       Coordinates (Angstroms)
     ATOM                X               Y               Z
      1  F        -0.8464317711   -1.1439203538    1.0043137632
      2  F         0.6328737580   -0.1125514915   -2.1601112156
      3  C        -0.5925129744    0.1324114847    0.6370999556
      4  C         0.5524308171    0.7025422267    1.0348481478
      5  C        -1.6792834050    0.7019922148   -0.2110084842
      6  H         0.8258387022    0.0207955348   -1.1985986212
      7  H         0.7632776972    1.7340368303    0.7813221837
      8  H         1.2594872460    0.1616440241    1.6525199267
      9  H        -2.6470555071    0.5762700268    0.2839709059
     10  H        -1.5086976512    1.7625279335   -0.4037100485
     11  H        -1.7062289117    0.1746575696   -1.1689435134
   Point Group: c1    Number of degrees of freedom:    27


   Energy is   -317.586955634

              Constraints and their Current Values
                                        Value     Constraint
   Distance(Angs):        2   4             3.298274     3.300000
 Hessian Updated using BFGS Update

   Using Lagrange Multiplier Algorithm


 27 Hessian modes will be used to form the next step
  Hessian Eigenvalues:
    -0.935445    0.045002    0.045646    0.049628    0.057586    0.058982
     0.069162    0.078402    0.083420    0.084757    0.096719    0.107456
     0.118613    0.137731    0.160000    0.160002    0.171435    0.332794
     0.343260    0.343733    0.346610    0.355717    0.356444    0.482038
     0.522010    0.545584    1.106066

 Minimum Search - Taking P-RFO Step
 Searching for Lamda that Maximizes Along the Constraint modes Only
 Value Taken    Lamda =   0.00032955
 Searching for Lamda that Minimizes Along All other modes
 Value Taken    Lamda =  -0.00228241
 Step Taken.  Stepsize is  0.068254

                             Maximum     Tolerance    Cnvgd?
         Gradient            0.026098       0.000300      NO
         Displacement        0.050087       0.001200      NO
         Energy change      0.003000       0.000001      NO


 New Cartesian Coordinates Obtained by Inverse Iteration

 Displacement from previous Coordinates is:  0.043663
 ----------------------------------------------------------------
             Standard Nuclear Orientation (Angstroms)
    I     Atom           X                Y                Z
 ----------------------------------------------------------------
    1      F      -0.8454339228    -1.1442010487     1.0040482437
    2      F       0.6313625167    -0.1143809064    -2.1568795567
    3      C      -0.5910911516     0.1324770408     0.6384333193
    4      C       0.5503295342     0.7040316822     1.0389978168
    5      C      -1.6768225023     0.7022173023    -0.2104602615
    6      H       0.8215796346     0.0167497989    -1.2173165431
    7      H       0.7594120109     1.7361304899     0.7862458393
    8      H       1.2574615087     0.1633188134     1.6565522417
    9      H      -2.6451283192     0.5761670265     0.2833701278
   10      H      -1.5059905955     1.7628332077    -0.4026249917
   11      H      -1.7019807135     0.1750625933    -1.1686632357
 ----------------------------------------------------------------
 Nuclear Repulsion Energy =   174.8930378774 hartrees
 There are       21 alpha and       21 beta electrons

                       Distance Matrix (Angstroms)
             F (  1)   F (  2)   C (  3)   C (  4)   C (  5)   H (  6)
   F (  2)  3.637708
   C (  3)  1.352136  3.060900
   C (  4)  2.316321  3.300000  1.337897
   C (  5)  2.361249  3.127795  1.491321  2.553694
   H (  6)  3.010183  0.967552  2.335131  2.374213  2.779503
   H (  7)  3.304433  3.478904  2.101764  1.082971  2.828010  2.640908
   H (  8)  2.560769  3.874452  2.110608  1.083411  3.519399  2.910429
   H (  9)  2.591900  4.143316  2.131197  3.286073  1.094246  3.818779
   H ( 10)  3.296348  3.342098  2.139838  2.725397  1.091337  3.021608
   H ( 11)  2.682313  2.550459  2.121671  3.197886  1.093928  2.528989
             H (  7)   H (  8)   H (  9)   H ( 10)
   H (  8)  1.865268
   H (  9)  3.631707  4.157677
   H ( 10)  2.558550  3.799385  1.782246
   H ( 11)  3.509566  4.091489  1.777305  1.773765
 
 Applying Cartesian multipole field
    Component          Value
    ---------          -----
     (2,0,0)        1.00000E-11
     (0,2,0)        2.00000E-11
     (0,0,2)       -3.00000E-11
 Nucleus-field energy     =    -0.0000000038 hartrees
 Requested basis set is 6-31G(d,p)
 There are 38 shells and 105 basis functions
 A cutoff of  1.0D-14 yielded    717 shell pairs
 There are      5639 function pairs
 Smallest overlap matrix eigenvalue = 3.49E-03
 Guess from superposition of atomic densities
 Warning:  Energy on first SCF cycle will be non-variational
 SAD guess density has 42.000000 electrons

 -----------------------------------------------------------------------
  General SCF calculation program by
  Eric Jon Sundstrom, Paul Horn, Yuezhi Mao, Dmitri Zuev, Alec White,
  David Stuck, Shaama M.S., Shane Yost, Joonho Lee, David Small,
  Daniel Levine, Susi Lehtola, Hugh Burton, Evgeny Epifanovsky
 -----------------------------------------------------------------------
 Exchange:     0.2000 Hartree-Fock + 0.0800 Slater + 0.7200 B88
 Correlation:  0.1900 VWN1RPA + 0.8100 LYP
 Using SG-1 standard quadrature grid
 using 12 threads for integral computing
 -------------------------------------------------------
 OpenMP Integral computing Module                
 Release: version 1.0, May 2013, Q-Chem Inc. Pittsburgh 
 -------------------------------------------------------
 -------------------------------------------------------
 OpenMP BLAS3 based DFT computing Module                
 Release: version 1.0, May 2013, Q-Chem Inc. Pittsburgh 
 -------------------------------------------------------
 A unrestricted SCF calculation will be
 performed using DIIS
 SCF converges when DIIS error is below 1.0e-06
 Alpha HF Exchange    Energy =  -3.76574208879075
 Beta HF Exchange     Energy =  -3.76574208879075
 DFT Correlation      Energy =  -1.84477819214208
 DFT Exchange         Energy = -29.63308680626853
 One-Electron (alpha) Energy = -390.13329187780266
 One-Electron (beta)  Energy = -390.13329187780266
 Total Coulomb        Energy = 326.33241497191790
 ---------------------------------------
  Cycle       Energy         DIIS error
 ---------------------------------------
    1    -318.0504800860      3.10e-02  
 Alpha HF Exchange    Energy =  -3.82078583460053
 Beta HF Exchange     Energy =  -3.82078583460054
 DFT Correlation      Energy =  -1.87530366069011
 DFT Exchange         Energy = -30.37280716143553
 One-Electron (alpha) Energy = -393.49845824778748
 One-Electron (beta)  Energy = -393.49845824778743
 Total Coulomb        Energy = 334.51763961864231
    2    -317.4759214946      4.89e-03  
 Alpha HF Exchange    Energy =  -3.73705217566929
 Beta HF Exchange     Energy =  -3.73705217566928
 DFT Correlation      Energy =  -1.84867160809804
 DFT Exchange         Energy = -29.70324765614617
 One-Electron (alpha) Energy = -390.45378631299633
 One-Electron (beta)  Energy = -390.45378631299616
 Total Coulomb        Energy = 327.60528496705479
    3    -317.4352734009      5.79e-03  
 Alpha HF Exchange    Energy =  -3.77411356002708
 Beta HF Exchange     Energy =  -3.77411356002709
 DFT Correlation      Energy =  -1.86011844045858
 DFT Exchange         Energy = -29.99805125335808
 One-Electron (alpha) Energy = -391.60393843053703
 One-Electron (beta)  Energy = -391.60393843053714
 Total Coulomb        Energy = 330.13777579695056
    4    -317.5834600044      9.38e-04  
 Alpha HF Exchange    Energy =  -3.77835320060283
 Beta HF Exchange     Energy =  -3.77835320060284
 DFT Correlation      Energy =  -1.86195638780185
 DFT Exchange         Energy = -30.03418828099770
 One-Electron (alpha) Energy = -391.97612910428114
 One-Electron (beta)  Energy = -391.97612910428126
 Total Coulomb        Energy = 330.92376382573639
    5    -317.5883075792      2.44e-04  
 Alpha HF Exchange    Energy =  -3.77713013607396
 Beta HF Exchange     Energy =  -3.77713013607396
 DFT Correlation      Energy =  -1.86161437989295
 DFT Exchange         Energy = -30.02445910339312
 One-Electron (alpha) Energy = -391.90256733189977
 One-Electron (beta)  Energy = -391.90256733189966
 Total Coulomb        Energy = 330.76383957065690
    6    -317.5885909749      8.19e-05  
 Alpha HF Exchange    Energy =  -3.77738038021890
 Beta HF Exchange     Energy =  -3.77738038021890
 DFT Correlation      Energy =  -1.86160290607942
 DFT Exchange         Energy = -30.02611961756731
 One-Electron (alpha) Energy = -391.90399148469680
 One-Electron (beta)  Energy = -391.90399148469692
 Total Coulomb        Energy = 330.76880908610531
    7    -317.5886192937      1.75e-05  
 Alpha HF Exchange    Energy =  -3.77732641839768
 Beta HF Exchange     Energy =  -3.77732641839769
 DFT Correlation      Energy =  -1.86160781350646
 DFT Exchange         Energy = -30.02577349529300
 One-Electron (alpha) Energy = -391.90375240764604
 One-Electron (beta)  Energy = -391.90375240764621
 Total Coulomb        Energy = 330.76788038755416
    8    -317.5886206997      5.82e-06  
 Alpha HF Exchange    Energy =  -3.77735109354516
 Beta HF Exchange     Energy =  -3.77735109354516
 DFT Correlation      Energy =  -1.86161047169548
 DFT Exchange         Energy = -30.02595068926791
 One-Electron (alpha) Energy = -391.90438055548537
 One-Electron (beta)  Energy = -391.90438055548537
 Total Coulomb        Energy = 330.76936576164564
    9    -317.5886208237      1.11e-06  
 Alpha HF Exchange    Energy =  -3.77734919791928
 Beta HF Exchange     Energy =  -3.77734919791929
 DFT Correlation      Energy =  -1.86161055165923
 DFT Exchange         Energy = -30.02593739103611
 One-Electron (alpha) Energy = -391.90435700232763
 One-Electron (beta)  Energy = -391.90435700232780
 Total Coulomb        Energy = 330.76930164190173
   10    -317.5886208277      3.89e-07  Convergence criterion met
 ---------------------------------------
 SCF time:   CPU 23.32s  wall 2.00s 
<S^2> =         -0.000000000
 Alpha HF Exchange    Energy =  -3.77734919791928
 Beta HF Exchange     Energy =  -3.77734919791929
 DFT Correlation      Energy =  -1.86161055165923
 DFT Exchange         Energy = -30.02593739103611
 One-Electron (alpha) Energy = -391.90435700232763
 One-Electron (beta)  Energy = -391.90435700232780
 Total Coulomb        Energy = 330.76930164190173
 Nuclear repulsion Energy = 174.89303787363360
 SCF   energy in the final basis set =     -317.5886208277
 Total energy in the final basis set =     -317.5886208277
 
 --------------------------------------------------------------
 
                    Orbital Energies (a.u.)
 --------------------------------------------------------------
 
 Alpha MOs
 -- Occupied --
-24.712 -24.651 -10.294 -10.203 -10.198  -1.225  -1.144  -0.807
 -0.721  -0.591  -0.508  -0.500  -0.495  -0.474  -0.425  -0.415
 -0.402  -0.373  -0.362  -0.361  -0.271
 -- Virtual --
  0.003   0.079   0.106   0.120   0.144   0.168   0.176   0.201
  0.253   0.343   0.489   0.531   0.548   0.577   0.605   0.612
  0.645   0.685   0.757   0.794   0.820   0.852   0.863   0.898
  0.920   1.010   1.072   1.149   1.175   1.201   1.218   1.260
  1.292   1.309   1.387   1.394   1.481   1.581   1.594   1.632
  1.677   1.740   1.778   1.814   1.836   1.849   1.888   1.890
  1.928   2.000   2.021   2.054   2.069   2.086   2.107   2.128
  2.223   2.311   2.330   2.409   2.445   2.484   2.548   2.610
  2.636   2.674   2.693   2.742   2.831   2.835   2.866   2.997
  3.096   3.185   3.353   3.407   3.451   3.588   3.680   3.858
  4.212   4.406   4.466   4.909
 
 Beta MOs
 -- Occupied --
-24.712 -24.651 -10.294 -10.203 -10.198  -1.225  -1.144  -0.807
 -0.721  -0.591  -0.508  -0.500  -0.495  -0.474  -0.425  -0.415
 -0.402  -0.373  -0.362  -0.361  -0.271
 -- Virtual --
  0.003   0.079   0.106   0.120   0.144   0.168   0.176   0.201
  0.253   0.343   0.489   0.531   0.548   0.577   0.605   0.612
  0.645   0.685   0.757   0.794   0.820   0.852   0.863   0.898
  0.920   1.010   1.072   1.149   1.175   1.201   1.218   1.260
  1.292   1.309   1.387   1.394   1.481   1.581   1.594   1.632
  1.677   1.740   1.778   1.814   1.836   1.849   1.888   1.890
  1.928   2.000   2.021   2.054   2.069   2.086   2.107   2.128
  2.223   2.311   2.330   2.409   2.445   2.484   2.548   2.610
  2.636   2.674   2.693   2.742   2.831   2.835   2.866   2.997
  3.096   3.185   3.353   3.407   3.451   3.588   3.680   3.858
  4.212   4.406   4.466   4.909
 --------------------------------------------------------------
 
          Ground-State Mulliken Net Atomic Charges

     Atom                 Charge (a.u.)    Spin (a.u.)
  --------------------------------------------------------
      1 F                    -0.280461       0.000000
      2 F                    -0.385950       0.000000
      3 C                     0.375863       0.000000
      4 C                    -0.351151      -0.000000
      5 C                    -0.384251      -0.000000
      6 H                     0.351869      -0.000000
      7 H                     0.122941      -0.000000
      8 H                     0.126492       0.000000
      9 H                     0.136246       0.000000
     10 H                     0.127100       0.000000
     11 H                     0.161303       0.000000
  --------------------------------------------------------
  Sum of atomic charges =    -0.000000
  Sum of spin   charges =     0.000000

 -----------------------------------------------------------------
                    Cartesian Multipole Moments
 -----------------------------------------------------------------
    Charge (ESU x 10^10)
                 0.0000
    Dipole Moment (Debye)
         X      -0.3719      Y       1.5090      Z       1.5557
       Tot       2.1990
    Quadrupole Moments (Debye-Ang)
        XX     -26.5921     XY      -0.8248     YY     -29.0145
        XZ       2.5308     YZ       0.0583     ZZ     -35.4446
    Octopole Moments (Debye-Ang^2)
       XXX      31.8192    XXY      -3.6870    XYY      12.9761
       YYY     -11.5999    XXZ      -0.3794    XYZ      -0.7502
       YYZ      -3.1500    XZZ       9.6532    YZZ      -5.2182
       ZZZ       6.5896
    Hexadecapole Moments (Debye-Ang^3)
      XXXX    -215.3601   XXXY       5.0978   XXYY     -58.2367
      XYYY       7.1607   YYYY    -113.3411   XXXZ      14.4152
      XXYZ       0.6838   XYYZ       6.9741   YYYZ       0.3472
      XXZZ     -80.8581   XYZZ       2.6872   YYZZ     -66.7638
      XZZZ      28.1998   YZZZ      -3.0507   ZZZZ    -293.6870
 -----------------------------------------------------------------
 Calculating analytic gradient of the SCF energy
 Gradient of SCF Energy
            1           2           3           4           5           6
    1   0.0003382  -0.0057715  -0.0030002   0.0023013  -0.0001939   0.0061435
    2   0.0003349  -0.0045612  -0.0007116   0.0010295  -0.0000942   0.0038919
    3   0.0002880  -0.0327012  -0.0014007   0.0031106   0.0001911   0.0304222
            7           8           9          10          11
    1  -0.0000653   0.0001976   0.0000183   0.0000294   0.0000025
    2   0.0000319   0.0001022   0.0000572  -0.0000226  -0.0000580
    3   0.0000501  -0.0000923   0.0000638  -0.0000308   0.0000993
 Max gradient component =       3.270E-02
 RMS gradient           =       8.034E-03
 Gradient time:  CPU 8.21 s  wall 0.70 s
 Geometry Optimization Parameters
   NAtoms,    NIC,     NZ,  NCons,   NDum,   NFix, NCnnct, MaxDiis
       11      81       0       1       0       0       0       0

 Cartesian Hessian Update
 Hessian Updated using BFGS Update


** CONSTRAINED OPTIMIZATION IN DELOCALIZED INTERNAL COORDINATES **
   Searching for a Minimum

   Optimization Cycle:   3

                       Coordinates (Angstroms)
     ATOM                X               Y               Z
      1  F        -0.8454339228   -1.1442010487    1.0040482437
      2  F         0.6313625167   -0.1143809064   -2.1568795567
      3  C        -0.5910911516    0.1324770408    0.6384333193
      4  C         0.5503295342    0.7040316822    1.0389978168
      5  C        -1.6768225023    0.7022173023   -0.2104602615
      6  H         0.8215796346    0.0167497989   -1.2173165431
      7  H         0.7594120109    1.7361304899    0.7862458393
      8  H         1.2574615087    0.1633188134    1.6565522417
      9  H        -2.6451283192    0.5761670265    0.2833701278
     10  H        -1.5059905955    1.7628332077   -0.4026249917
     11  H        -1.7019807135    0.1750625933   -1.1686632357
   Point Group: c1    Number of degrees of freedom:    27


   Energy is   -317.588620828

              Constraints and their Current Values
                                        Value     Constraint
   Distance(Angs):        2   4             3.300000     3.300000
 Hessian Updated using BFGS Update

 26 Hessian modes will be used to form the next step
  Hessian Eigenvalues:
     0.044992    0.045622    0.049452    0.057455    0.058943    0.068535
     0.078286    0.083423    0.084759    0.095541    0.107250    0.118514
     0.128607    0.159935    0.160000    0.160000    0.171365    0.192680
     0.333086    0.343260    0.343735    0.346610    0.355726    0.356448
     0.521892    0.545800

 Minimum Search - Taking Simple RFO Step
 Searching for Lamda that Minimizes Along All modes
 Value Taken    Lamda =  -0.00256117
 Step Taken.  Stepsize is  0.126886

                             Maximum     Tolerance    Cnvgd?
         Gradient           0.015287      0.000300      NO
         Displacement       0.091079      0.001200      NO
         Energy change     -0.001665      0.000001      NO


 New Cartesian Coordinates Obtained by Inverse Iteration

 Displacement from previous Coordinates is:  0.081567
 ----------------------------------------------------------------
             Standard Nuclear Orientation (Angstroms)
    I     Atom           X                Y                Z
 ----------------------------------------------------------------
    1      F      -0.8424538663    -1.1466833620     1.0019895216
    2      F       0.6251463860    -0.1174837404    -2.1473354018
    3      C      -0.5873662536     0.1322473073     0.6417120001
    4      C       0.5471662292     0.7073000369     1.0469796283
    5      C      -1.6716935279     0.7023339215    -0.2103226672
    6      H       0.8125880261     0.0087781967    -1.2505851095
    7      H       0.7539033832     1.7399094132     0.7945960808
    8      H       1.2546319607     0.1677319030     1.6651692776
    9      H      -2.6416443826     0.5754372070     0.2800269470
   10      H      -1.5010872850     1.7633720339    -0.4006012153
   11      H      -1.6954926698     0.1774630828    -1.1699260616
 ----------------------------------------------------------------
 Nuclear Repulsion Energy =   175.2221143364 hartrees
 There are       21 alpha and       21 beta electrons

                       Distance Matrix (Angstroms)
             F (  1)   F (  2)   C (  3)   C (  4)   C (  5)   H (  6)
   F (  2)  3.623720
   C (  3)  1.352972  3.051448
   C (  4)  2.317396  3.300000  1.334950
   C (  5)  2.361399  3.114417  1.492222  2.550328
   H (  6)  3.024624  0.924791  2.357097  2.416027  2.781154
   H (  7)  3.305115  3.481587  2.099275  1.082922  2.823109  2.680117
   H (  8)  2.562277  3.874634  2.107530  1.083420  3.516625  2.953353
   H (  9)  2.593071  4.128456  2.132438  3.282395  1.094235  3.820418
   H ( 10)  3.296890  3.333102  2.140531  2.721419  1.091382  3.025585
   H ( 11)  2.682957  2.535289  2.124152  3.197642  1.094027  2.515041
             H (  7)   H (  8)   H (  9)   H ( 10)
   H (  8)  1.865575
   H (  9)  3.626365  4.155215
   H ( 10)  2.552260  3.795716  1.781941
   H ( 11)  3.507154  4.091588  1.776499  1.773348
 
 Applying Cartesian multipole field
    Component          Value
    ---------          -----
     (2,0,0)        1.00000E-11
     (0,2,0)        2.00000E-11
     (0,0,2)       -3.00000E-11
 Nucleus-field energy     =    -0.0000000037 hartrees
 Requested basis set is 6-31G(d,p)
 There are 38 shells and 105 basis functions
 A cutoff of  1.0D-14 yielded    717 shell pairs
 There are      5639 function pairs
 Smallest overlap matrix eigenvalue = 3.48E-03
 Guess from superposition of atomic densities
 Warning:  Energy on first SCF cycle will be non-variational
 SAD guess density has 42.000000 electrons

 -----------------------------------------------------------------------
  General SCF calculation program by
  Eric Jon Sundstrom, Paul Horn, Yuezhi Mao, Dmitri Zuev, Alec White,
  David Stuck, Shaama M.S., Shane Yost, Joonho Lee, David Small,
  Daniel Levine, Susi Lehtola, Hugh Burton, Evgeny Epifanovsky
 -----------------------------------------------------------------------
 Exchange:     0.2000 Hartree-Fock + 0.0800 Slater + 0.7200 B88
 Correlation:  0.1900 VWN1RPA + 0.8100 LYP
 Using SG-1 standard quadrature grid
 using 12 threads for integral computing
 -------------------------------------------------------
 OpenMP Integral computing Module                
 Release: version 1.0, May 2013, Q-Chem Inc. Pittsburgh 
 -------------------------------------------------------
 -------------------------------------------------------
 OpenMP BLAS3 based DFT computing Module                
 Release: version 1.0, May 2013, Q-Chem Inc. Pittsburgh 
 -------------------------------------------------------
 A unrestricted SCF calculation will be
 performed using DIIS
 SCF converges when DIIS error is below 1.0e-06
 Alpha HF Exchange    Energy =  -3.76889851720626
 Beta HF Exchange     Energy =  -3.76889851720626
 DFT Correlation      Energy =  -1.84532712397857
 DFT Exchange         Energy = -29.64110610819183
 One-Electron (alpha) Energy = -390.41682838220356
 One-Electron (beta)  Energy = -390.41682838220356
 Total Coulomb        Energy = 326.55892676879546
 ---------------------------------------
  Cycle       Energy         DIIS error
 ---------------------------------------
    1    -318.0768459295      3.12e-02  
 Alpha HF Exchange    Energy =  -3.82310429073850
 Beta HF Exchange     Energy =  -3.82310429073850
 DFT Correlation      Energy =  -1.87592899395736
 DFT Exchange         Energy = -30.38857390703333
 One-Electron (alpha) Energy = -393.81320966203214
 One-Electron (beta)  Energy = -393.81320966203219
 Total Coulomb        Energy = 334.83750299125205
    2    -317.4775134826      4.89e-03  
 Alpha HF Exchange    Energy =  -3.74028406358512
 Beta HF Exchange     Energy =  -3.74028406358513
 DFT Correlation      Energy =  -1.84950860777936
 DFT Exchange         Energy = -29.72439199256129
 One-Electron (alpha) Energy = -390.77107046167708
 One-Electron (beta)  Energy = -390.77107046167754
 Total Coulomb        Energy = 327.93474741490269
    3    -317.4397479033      5.70e-03  
 Alpha HF Exchange    Energy =  -3.77636585290545
 Beta HF Exchange     Energy =  -3.77636585290545
 DFT Correlation      Energy =  -1.86077564563603
 DFT Exchange         Energy = -30.01239026789142
 One-Electron (alpha) Energy = -391.90376079617431
 One-Electron (beta)  Energy = -391.90376079617437
 Total Coulomb        Energy = 330.42700427319761
    4    -317.5843006058      9.50e-04  
 Alpha HF Exchange    Energy =  -3.78073811687568
 Beta HF Exchange     Energy =  -3.78073811687568
 DFT Correlation      Energy =  -1.86259469633018
 DFT Exchange         Energy = -30.04943327587519
 One-Electron (alpha) Energy = -392.27711542038185
 One-Electron (beta)  Energy = -392.27711542038196
 Total Coulomb        Energy = 331.21629013584942
    5    -317.5893305782      2.38e-04  
 Alpha HF Exchange    Energy =  -3.77955831892765
 Beta HF Exchange     Energy =  -3.77955831892765
 DFT Correlation      Energy =  -1.86227797768284
 DFT Exchange         Energy = -30.04009725599806
 One-Electron (alpha) Energy = -392.20848023481557
 One-Electron (beta)  Energy = -392.20848023481557
 Total Coulomb        Energy = 331.06673973501063
    6    -317.5895982735      7.45e-05  
 Alpha HF Exchange    Energy =  -3.77976867610549
 Beta HF Exchange     Energy =  -3.77976867610549
 DFT Correlation      Energy =  -1.86225462569275
 DFT Exchange         Energy = -30.04143857236771
 One-Electron (alpha) Energy = -392.20742866139017
 One-Electron (beta)  Energy = -392.20742866139011
 Total Coulomb        Energy = 331.06635191768703
    7    -317.5896216227      1.74e-05  
 Alpha HF Exchange    Energy =  -3.77971667495502
 Beta HF Exchange     Energy =  -3.77971667495502
 DFT Correlation      Energy =  -1.86226121858532
 DFT Exchange         Energy = -30.04111282597518
 One-Electron (alpha) Energy = -392.20755902823203
 One-Electron (beta)  Energy = -392.20755902823191
 Total Coulomb        Energy = 331.06618814417453
    8    -317.5896229741      6.04e-06  
 Alpha HF Exchange    Energy =  -3.77974080475713
 Beta HF Exchange     Energy =  -3.77974080475713
 DFT Correlation      Energy =  -1.86226386216439
 DFT Exchange         Energy = -30.04128563109135
 One-Electron (alpha) Energy = -392.20815938079278
 One-Electron (beta)  Energy = -392.20815938079272
 Total Coulomb        Energy = 331.06761242589783
    9    -317.5896231058      1.00e-06  
 Alpha HF Exchange    Energy =  -3.77973927104129
 Beta HF Exchange     Energy =  -3.77973927104130
 DFT Correlation      Energy =  -1.86226387026663
 DFT Exchange         Energy = -30.04127453497701
 One-Electron (alpha) Energy = -392.20812902403901
 One-Electron (beta)  Energy = -392.20812902403895
 Total Coulomb        Energy = 331.06753755364889
   10    -317.5896231091      3.39e-07  Convergence criterion met
 ---------------------------------------
 SCF time:   CPU 23.45s  wall 2.00s 
<S^2> =         -0.000000000
 Alpha HF Exchange    Energy =  -3.77973927104129
 Beta HF Exchange     Energy =  -3.77973927104130
 DFT Correlation      Energy =  -1.86226387026663
 DFT Exchange         Energy = -30.04127453497701
 One-Electron (alpha) Energy = -392.20812902403901
 One-Electron (beta)  Energy = -392.20812902403895
 Total Coulomb        Energy = 331.06753755364889
 Nuclear repulsion Energy = 175.22211433266403
 SCF   energy in the final basis set =     -317.5896231091
 Total energy in the final basis set =     -317.5896231091
 
 --------------------------------------------------------------
 
                    Orbital Energies (a.u.)
 --------------------------------------------------------------
 
 Alpha MOs
 -- Occupied --
-24.711 -24.653 -10.291 -10.202 -10.197  -1.223  -1.159  -0.806
 -0.720  -0.590  -0.513  -0.503  -0.493  -0.474  -0.424  -0.415
 -0.400  -0.371  -0.369  -0.367  -0.270
 -- Virtual --
  0.005   0.083   0.108   0.125   0.146   0.169   0.178   0.202
  0.255   0.344   0.491   0.533   0.550   0.580   0.608   0.615
  0.646   0.687   0.758   0.800   0.822   0.855   0.866   0.901
  0.921   1.011   1.076   1.149   1.171   1.201   1.220   1.262
  1.293   1.308   1.389   1.394   1.482   1.582   1.598   1.632
  1.678   1.741   1.780   1.815   1.837   1.849   1.883   1.885
  1.929   2.003   2.022   2.055   2.071   2.088   2.109   2.129
  2.227   2.313   2.335   2.415   2.448   2.547   2.564   2.616
  2.638   2.678   2.741   2.775   2.835   2.838   2.868   2.999
  3.097   3.185   3.355   3.408   3.453   3.591   3.723   3.885
  4.214   4.409   4.469   4.912
 
 Beta MOs
 -- Occupied --
-24.711 -24.653 -10.291 -10.202 -10.197  -1.223  -1.159  -0.806
 -0.720  -0.590  -0.513  -0.503  -0.493  -0.474  -0.424  -0.415
 -0.400  -0.371  -0.369  -0.367  -0.270
 -- Virtual --
  0.005   0.083   0.108   0.125   0.146   0.169   0.178   0.202
  0.255   0.344   0.491   0.533   0.550   0.580   0.608   0.615
  0.646   0.687   0.758   0.800   0.822   0.855   0.866   0.901
  0.921   1.011   1.076   1.149   1.171   1.201   1.220   1.262
  1.293   1.308   1.389   1.394   1.482   1.582   1.598   1.632
  1.678   1.741   1.780   1.815   1.837   1.849   1.883   1.885
  1.929   2.003   2.022   2.055   2.071   2.088   2.109   2.129
  2.227   2.313   2.335   2.415   2.448   2.547   2.564   2.616
  2.638   2.678   2.741   2.775   2.835   2.838   2.868   2.999
  3.097   3.185   3.355   3.408   3.453   3.591   3.723   3.885
  4.214   4.409   4.469   4.912
 --------------------------------------------------------------
 
          Ground-State Mulliken Net Atomic Charges

     Atom                 Charge (a.u.)    Spin (a.u.)
  --------------------------------------------------------
      1 F                    -0.281979       0.000000
      2 F                    -0.368673       0.000000
      3 C                     0.375008       0.000000
      4 C                    -0.348561      -0.000000
      5 C                    -0.384842       0.000000
      6 H                     0.341253      -0.000000
      7 H                     0.121359      -0.000000
      8 H                     0.124990      -0.000000
      9 H                     0.135685      -0.000000
     10 H                     0.126260      -0.000000
     11 H                     0.159502      -0.000000
  --------------------------------------------------------
  Sum of atomic charges =    -0.000000
  Sum of spin   charges =     0.000000

 -----------------------------------------------------------------
                    Cartesian Multipole Moments
 -----------------------------------------------------------------
    Charge (ESU x 10^10)
                -0.0000
    Dipole Moment (Debye)
         X      -0.3167      Y       1.4957      Z       1.4346
       Tot       2.0966
    Quadrupole Moments (Debye-Ang)
        XX     -26.6169     XY      -0.8262     YY     -29.0156
        XZ       2.4214     YZ       0.0617     ZZ     -35.2220
    Octopole Moments (Debye-Ang^2)
       XXX      32.0189    XXY      -3.7373    XYY      13.0303
       YYY     -11.6008    XXZ      -0.6248    XYZ      -0.7462
       YYZ      -3.3118    XZZ       9.9272    YZZ      -5.2123
       ZZZ       5.7036
    Hexadecapole Moments (Debye-Ang^3)
      XXXX    -214.0980   XXXY       5.1388   XXYY     -58.1192
      XYYY       7.1546   YYYY    -113.8302   XXXZ      13.8111
      XXYZ       0.5890   XYYZ       6.7972   YYYZ       0.1111
      XXZZ     -80.3496   XYZZ       2.7017   YYZZ     -66.7328
      XZZZ      27.3211   YZZZ      -3.4207   ZZZZ    -292.3732
 -----------------------------------------------------------------
 Calculating analytic gradient of the SCF energy
 Gradient of SCF Energy
            1           2           3           4           5           6
    1  -0.0000574   0.0022465  -0.0000596   0.0002045  -0.0001681  -0.0021527
    2   0.0001144   0.0010345  -0.0001188   0.0005283   0.0000166  -0.0015746
    3   0.0001741   0.0072260  -0.0001429   0.0018347   0.0001698  -0.0089887
            7           8           9          10          11
    1  -0.0001166   0.0000671   0.0000271   0.0000315  -0.0000224
    2   0.0000476  -0.0000453   0.0000346  -0.0000410   0.0000036
    3   0.0000239  -0.0001497  -0.0000080  -0.0000819  -0.0000574
 Max gradient component =       8.989E-03
 RMS gradient           =       2.133E-03
 Gradient time:  CPU 8.24 s  wall 0.71 s
 Geometry Optimization Parameters
   NAtoms,    NIC,     NZ,  NCons,   NDum,   NFix, NCnnct, MaxDiis
       11      81       0       1       0       0       0       0

 Cartesian Hessian Update
 Hessian Updated using BFGS Update


** CONSTRAINED OPTIMIZATION IN DELOCALIZED INTERNAL COORDINATES **
   Searching for a Minimum

   Optimization Cycle:   4

                       Coordinates (Angstroms)
     ATOM                X               Y               Z
      1  F        -0.8424538663   -1.1466833620    1.0019895216
      2  F         0.6251463860   -0.1174837404   -2.1473354018
      3  C        -0.5873662536    0.1322473073    0.6417120001
      4  C         0.5471662292    0.7073000369    1.0469796283
      5  C        -1.6716935279    0.7023339215   -0.2103226672
      6  H         0.8125880261    0.0087781967   -1.2505851095
      7  H         0.7539033832    1.7399094132    0.7945960808
      8  H         1.2546319607    0.1677319030    1.6651692776
      9  H        -2.6416443826    0.5754372070    0.2800269470
     10  H        -1.5010872850    1.7633720339   -0.4006012153
     11  H        -1.6954926698    0.1774630828   -1.1699260616
   Point Group: c1    Number of degrees of freedom:    27


   Energy is   -317.589623109

              Constraints and their Current Values
                                        Value     Constraint
   Distance(Angs):        2   4             3.300000     3.300000
 Hessian Updated using BFGS Update

 26 Hessian modes will be used to form the next step
  Hessian Eigenvalues:
     0.044987    0.045606    0.049607    0.057450    0.059052    0.069064
     0.078436    0.083421    0.084758    0.096075    0.107298    0.118618
     0.131963    0.159999    0.160000    0.160065    0.171444    0.240928
     0.333093    0.343261    0.343739    0.346611    0.355728    0.356449
     0.522401    0.545807

 Minimum Search - Taking Simple RFO Step
 Searching for Lamda that Minimizes Along All modes
 Value Taken    Lamda =  -0.00017372
 Step Taken.  Stepsize is  0.029277

                             Maximum     Tolerance    Cnvgd?
         Gradient           0.004749      0.000300      NO
         Displacement       0.021461      0.001200      NO
         Energy change     -0.001002      0.000001      NO


 New Cartesian Coordinates Obtained by Inverse Iteration

 Displacement from previous Coordinates is:  0.017382
 ----------------------------------------------------------------
             Standard Nuclear Orientation (Angstroms)
    I     Atom           X                Y                Z
 ----------------------------------------------------------------
    1      F      -0.8421882274    -1.1468392871     1.0012402850
    2      F       0.6223307847    -0.1171421407    -2.1488038014
    3      C      -0.5874921957     0.1321629120     0.6412770667
    4      C       0.5474960872     0.7069626921     1.0457616915
    5      C      -1.6714107266     0.7022461221    -0.2108131537
    6      H       0.8122379423     0.0103994112    -1.2427019299
    7      H       0.7547989043     1.7393351856     0.7928753711
    8      H       1.2547528181     0.1676351627     1.6644132307
    9      H      -2.6414370789     0.5750004073     0.2793804675
   10      H      -1.5009262627     1.7634104868    -0.4006442932
   11      H      -1.6944640454     0.1772350480    -1.1702819343
 ----------------------------------------------------------------
 Nuclear Repulsion Energy =   175.2018274331 hartrees
 There are       21 alpha and       21 beta electrons

                       Distance Matrix (Angstroms)
             F (  1)   F (  2)   C (  3)   C (  4)   C (  5)   H (  6)
   F (  2)  3.623240
   C (  3)  1.352882  3.051291
   C (  4)  2.317280  3.300000  1.334991
   C (  5)  2.361313  3.112628  1.491956  2.550010
   H (  6)  3.018543  0.934533  2.350202  2.406731  2.777041
   H (  7)  3.305115  3.481025  2.099459  1.082921  2.823019  2.671347
   H (  8)  2.562187  3.875781  2.107589  1.083428  3.516350  2.944802
   H (  9)  2.592896  4.126417  2.132080  3.282385  1.094273  3.816200
   H ( 10)  3.296782  3.331780  2.140311  2.721067  1.091408  3.022058
   H ( 11)  2.682360  2.532134  2.123479  3.196537  1.093960  2.513291
             H (  7)   H (  8)   H (  9)   H ( 10)
   H (  8)  1.865415
   H (  9)  3.626813  4.155064
   H ( 10)  2.552129  3.795356  1.781998
   H ( 11)  3.506142  4.090656  1.776653  1.773627
 
 Applying Cartesian multipole field
    Component          Value
    ---------          -----
     (2,0,0)        1.00000E-11
     (0,2,0)        2.00000E-11
     (0,0,2)       -3.00000E-11
 Nucleus-field energy     =    -0.0000000037 hartrees
 Requested basis set is 6-31G(d,p)
 There are 38 shells and 105 basis functions
 A cutoff of  1.0D-14 yielded    717 shell pairs
 There are      5639 function pairs
 Smallest overlap matrix eigenvalue = 3.48E-03
 Guess from superposition of atomic densities
 Warning:  Energy on first SCF cycle will be non-variational
 SAD guess density has 42.000000 electrons

 -----------------------------------------------------------------------
  General SCF calculation program by
  Eric Jon Sundstrom, Paul Horn, Yuezhi Mao, Dmitri Zuev, Alec White,
  David Stuck, Shaama M.S., Shane Yost, Joonho Lee, David Small,
  Daniel Levine, Susi Lehtola, Hugh Burton, Evgeny Epifanovsky
 -----------------------------------------------------------------------
 Exchange:     0.2000 Hartree-Fock + 0.0800 Slater + 0.7200 B88
 Correlation:  0.1900 VWN1RPA + 0.8100 LYP
 Using SG-1 standard quadrature grid
 using 12 threads for integral computing
 -------------------------------------------------------
 OpenMP Integral computing Module                
 Release: version 1.0, May 2013, Q-Chem Inc. Pittsburgh 
 -------------------------------------------------------
 -------------------------------------------------------
 OpenMP BLAS3 based DFT computing Module                
 Release: version 1.0, May 2013, Q-Chem Inc. Pittsburgh 
 -------------------------------------------------------
 A unrestricted SCF calculation will be
 performed using DIIS
 SCF converges when DIIS error is below 1.0e-06
 Alpha HF Exchange    Energy =  -3.76826081661990
 Beta HF Exchange     Energy =  -3.76826081661990
 DFT Correlation      Energy =  -1.84524684261019
 DFT Exchange         Energy = -29.63942337797193
 One-Electron (alpha) Energy = -390.40719600496357
 One-Electron (beta)  Energy = -390.40719600496357
 Total Coulomb        Energy = 326.56200720559667
 ---------------------------------------
  Cycle       Energy         DIIS error
 ---------------------------------------
    1    -318.0717492288      3.12e-02  
 Alpha HF Exchange    Energy =  -3.82258782316756
 Beta HF Exchange     Energy =  -3.82258782316756
 DFT Correlation      Energy =  -1.87582435839582
 DFT Exchange         Energy = -30.38506286502042
 One-Electron (alpha) Energy = -393.79724184760084
 One-Electron (beta)  Energy = -393.79724184760101
 Total Coulomb        Energy = 334.82120878909495
    2    -317.4775103465      4.89e-03  
 Alpha HF Exchange    Energy =  -3.73957924889936
 Beta HF Exchange     Energy =  -3.73957924889936
 DFT Correlation      Energy =  -1.84935792225177
 DFT Exchange         Energy = -29.71977299676853
 One-Electron (alpha) Energy = -390.75266103502048
 One-Electron (beta)  Energy = -390.75266103502025
 Total Coulomb        Energy = 327.91238064256919
    3    -317.4394034149      5.72e-03  
 Alpha HF Exchange    Energy =  -3.77589236894790
 Beta HF Exchange     Energy =  -3.77589236894790
 DFT Correlation      Energy =  -1.86067121269881
 DFT Exchange         Energy = -30.00940697926356
 One-Electron (alpha) Energy = -391.89158809580982
 One-Electron (beta)  Energy = -391.89158809580982
 Total Coulomb        Energy = 330.41876636972216
    4    -317.5844453224      9.45e-04  
 Alpha HF Exchange    Energy =  -3.78022020907464
 Beta HF Exchange     Energy =  -3.78022020907464
 DFT Correlation      Energy =  -1.86248915163310
 DFT Exchange         Energy = -30.04612244278195
 One-Electron (alpha) Energy = -392.26375792102903
 One-Electron (beta)  Energy = -392.26375792102903
 Total Coulomb        Energy = 331.20533956964334
    5    -317.5894008556      2.39e-04  
 Alpha HF Exchange    Energy =  -3.77902884868584
 Beta HF Exchange     Energy =  -3.77902884868583
 DFT Correlation      Energy =  -1.86216577655487
 DFT Exchange         Energy = -30.03668101867647
 One-Electron (alpha) Energy = -392.19383095325634
 One-Electron (beta)  Energy = -392.19383095325622
 Total Coulomb        Energy = 331.05306646262244
    6    -317.5896725071      7.59e-05  
 Alpha HF Exchange    Energy =  -3.77924802539034
 Beta HF Exchange     Energy =  -3.77924802539034
 DFT Correlation      Energy =  -1.86214522654480
 DFT Exchange         Energy = -30.03809401136909
 One-Electron (alpha) Energy = -392.19335422982147
 One-Electron (beta)  Energy = -392.19335422982152
 Total Coulomb        Energy = 331.05391955548976
    7    -317.5896967635      1.74e-05  
 Alpha HF Exchange    Energy =  -3.77919572296073
 Beta HF Exchange     Energy =  -3.77919572296073
 DFT Correlation      Energy =  -1.86215148698248
 DFT Exchange         Energy = -30.03776473619993
 One-Electron (alpha) Energy = -392.19341073422521
 One-Electron (beta)  Energy = -392.19341073422515
 Total Coulomb        Energy = 331.05360358333871
    8    -317.5896981248      5.97e-06  
 Alpha HF Exchange    Energy =  -3.77921990556019
 Beta HF Exchange     Energy =  -3.77921990556019
 DFT Correlation      Energy =  -1.86215410585659
 DFT Exchange         Energy = -30.03793795976122
 One-Electron (alpha) Energy = -392.19401228650349
 One-Electron (beta)  Energy = -392.19401228650344
 Total Coulomb        Energy = 331.05503076656140
    9    -317.5896982538      1.03e-06  
 Alpha HF Exchange    Energy =  -3.77921828889255
 Beta HF Exchange     Energy =  -3.77921828889255
 DFT Correlation      Energy =  -1.86215413323439
 DFT Exchange         Energy = -30.03792637775582
 One-Electron (alpha) Energy = -392.19398429686078
 One-Electron (beta)  Energy = -392.19398429686072
 Total Coulomb        Energy = 331.05495999587731
   10    -317.5896982572      3.51e-07  Convergence criterion met
 ---------------------------------------
 SCF time:   CPU 23.69s  wall 2.00s 
<S^2> =         -0.000000000
 Alpha HF Exchange    Energy =  -3.77921828889255
 Beta HF Exchange     Energy =  -3.77921828889255
 DFT Correlation      Energy =  -1.86215413323439
 DFT Exchange         Energy = -30.03792637775582
 One-Electron (alpha) Energy = -392.19398429686078
 One-Electron (beta)  Energy = -392.19398429686072
 Total Coulomb        Energy = 331.05495999587731
 Nuclear repulsion Energy = 175.20182742937996
 SCF   energy in the final basis set =     -317.5896982572
 Total energy in the final basis set =     -317.5896982572
 
 --------------------------------------------------------------
 
                    Orbital Energies (a.u.)
 --------------------------------------------------------------
 
 Alpha MOs
 -- Occupied --
-24.711 -24.653 -10.292 -10.202 -10.197  -1.223  -1.156  -0.806
 -0.720  -0.590  -0.511  -0.503  -0.494  -0.474  -0.424  -0.415
 -0.401  -0.372  -0.367  -0.366  -0.270
 -- Virtual --
  0.005   0.082   0.108   0.124   0.146   0.169   0.177   0.202
  0.254   0.344   0.491   0.533   0.550   0.579   0.607   0.614
  0.646   0.687   0.758   0.799   0.821   0.854   0.866   0.900
  0.921   1.011   1.075   1.149   1.171   1.202   1.220   1.262
  1.293   1.309   1.389   1.394   1.482   1.582   1.597   1.631
[...]
   Distance(Angs):        2   4             3.300000     3.300000
 Hessian Updated using BFGS Update

 26 Hessian modes will be used to form the next step
  Hessian Eigenvalues:
     0.007871    0.045143    0.049213    0.057020    0.061808    0.065266
     0.077046    0.083180    0.084756    0.090322    0.103425    0.118161
     0.136281    0.159997    0.160080    0.160172    0.171658    0.332590
     0.343235    0.343590    0.346579    0.355367    0.356391    0.370070
     0.527167    0.546063

 Minimum Search - Taking Simple RFO Step
 Searching for Lamda that Minimizes Along All modes
 Value Taken    Lamda =  -0.00000132
 Step Taken.  Stepsize is  0.010775

                             Maximum     Tolerance    Cnvgd?
         Gradient           0.000223      0.000300     YES
         Displacement       0.007192      0.001200      NO
         Energy change     -0.000001      0.000001      NO


 New Cartesian Coordinates Obtained by Inverse Iteration

 Displacement from previous Coordinates is:  0.011280
 ----------------------------------------------------------------
             Standard Nuclear Orientation (Angstroms)
    I     Atom           X                Y                Z
 ----------------------------------------------------------------
    1      F      -0.8370815099    -1.1483663696     0.9952911751
    2      F       0.6065821229    -0.1216091065    -2.1449358729
    3      C      -0.5843722112     0.1322842735     0.6397259340
    4      C       0.5482286270     0.7086383221     1.0483824283
    5      C      -1.6678244935     0.7025026738    -0.2133577493
    6      H       0.8052537688     0.0079570622    -1.2423726718
    7      H       0.7554575642     1.7411805574     0.7961942871
    8      H       1.2535433244     0.1709856838     1.6707711325
    9      H      -2.6384156224     0.5709779771     0.2747143196
   10      H      -1.5001335732     1.7649856630    -0.3982250413
   11      H      -1.6875399971     0.1808692632    -1.1744849413
 ----------------------------------------------------------------
 Nuclear Repulsion Energy =   175.3874222607 hartrees
 There are       21 alpha and       21 beta electrons

                       Distance Matrix (Angstroms)
             F (  1)   F (  2)   C (  3)   C (  4)   C (  5)   H (  6)
   F (  2)  3.605471
   C (  3)  1.352906  3.039272
   C (  4)  2.317406  3.300000  1.334904
   C (  5)  2.361500  3.095655  1.492236  2.550082
   H (  6)  3.006907  0.933209  2.342822  2.409269  2.767197
   H (  7)  3.305344  3.484594  2.099565  1.082906  2.823180  2.676247
   H (  8)  2.562748  3.881210  2.107720  1.083470  3.516652  2.951940
   H (  9)  2.592331  4.106628  2.131849  3.282105  1.094331  3.804918
   H ( 10)  3.296839  3.323927  2.140485  2.721090  1.091406  3.019031
   H ( 11)  2.682923  2.509236  2.123841  3.196614  1.093735  2.499706
             H (  7)   H (  8)   H (  9)   H ( 10)
   H (  8)  1.865070
   H (  9)  3.627629  4.154072
   H ( 10)  2.552429  3.795302  1.781625
   H ( 11)  3.505194  4.092133  1.776662  1.774014
 
 Applying Cartesian multipole field
    Component          Value
    ---------          -----
     (2,0,0)        1.00000E-11
     (0,2,0)        2.00000E-11
     (0,0,2)       -3.00000E-11
 Nucleus-field energy     =    -0.0000000037 hartrees
 Requested basis set is 6-31G(d,p)
 There are 38 shells and 105 basis functions
 A cutoff of  1.0D-14 yielded    717 shell pairs
 There are      5639 function pairs
 Smallest overlap matrix eigenvalue = 3.48E-03
 Guess from superposition of atomic densities
 Warning:  Energy on first SCF cycle will be non-variational
 SAD guess density has 42.000000 electrons

 -----------------------------------------------------------------------
  General SCF calculation program by
  Eric Jon Sundstrom, Paul Horn, Yuezhi Mao, Dmitri Zuev, Alec White,
  David Stuck, Shaama M.S., Shane Yost, Joonho Lee, David Small,
  Daniel Levine, Susi Lehtola, Hugh Burton, Evgeny Epifanovsky
 -----------------------------------------------------------------------
 Exchange:     0.2000 Hartree-Fock + 0.0800 Slater + 0.7200 B88
 Correlation:  0.1900 VWN1RPA + 0.8100 LYP
 Using SG-1 standard quadrature grid
 using 12 threads for integral computing
 -------------------------------------------------------
 OpenMP Integral computing Module                
 Release: version 1.0, May 2013, Q-Chem Inc. Pittsburgh 
 -------------------------------------------------------
 -------------------------------------------------------
 OpenMP BLAS3 based DFT computing Module                
 Release: version 1.0, May 2013, Q-Chem Inc. Pittsburgh 
 -------------------------------------------------------
 A unrestricted SCF calculation will be
 performed using DIIS
 SCF converges when DIIS error is below 1.0e-06
 Alpha HF Exchange    Energy =  -3.76841423444667
 Beta HF Exchange     Energy =  -3.76841423444667
 DFT Correlation      Energy =  -1.84535600292971
 DFT Exchange         Energy = -29.63976649125419
 One-Electron (alpha) Energy = -390.59132728782271
 One-Electron (beta)  Energy = -390.59132728782271
 Total Coulomb        Energy = 326.74426186791737
 ---------------------------------------
  Cycle       Energy         DIIS error
 ---------------------------------------
    1    -318.0729214138      3.12e-02  
 Alpha HF Exchange    Energy =  -3.82263013389075
 Beta HF Exchange     Energy =  -3.82263013389074
 DFT Correlation      Energy =  -1.87590577922977
 DFT Exchange         Energy = -30.38535657425513
 One-Electron (alpha) Energy = -393.98180508685027
 One-Electron (beta)  Energy = -393.98180508685010
 Total Coulomb        Energy = 335.00512210044769
    2    -317.4775884375      4.88e-03  
 Alpha HF Exchange    Energy =  -3.73969071292209
 Beta HF Exchange     Energy =  -3.73969071292209
 DFT Correlation      Energy =  -1.84947780183011
 DFT Exchange         Energy = -29.72058359441385
 One-Electron (alpha) Energy = -390.94035044269225
 One-Electron (beta)  Energy = -390.94035044269219
 Total Coulomb        Energy = 328.10314844163736
    3    -317.4395730088      5.71e-03  
 Alpha HF Exchange    Energy =  -3.77595451157898
 Beta HF Exchange     Energy =  -3.77595451157898
 DFT Correlation      Energy =  -1.86076643759102
 DFT Exchange         Energy = -30.00982739071842
 One-Electron (alpha) Energy = -392.07614458344176
 One-Electron (beta)  Energy = -392.07614458344159
 Total Coulomb        Energy = 330.60292694134216
    4    -317.5844428200      9.46e-04  
 Alpha HF Exchange    Energy =  -3.78028355522494
 Beta HF Exchange     Energy =  -3.78028355522493
 DFT Correlation      Energy =  -1.86258429626811
 DFT Exchange         Energy = -30.04655220382844
 One-Electron (alpha) Energy = -392.44888487191156
 One-Electron (beta)  Energy = -392.44888487191133
 Total Coulomb        Energy = 331.39064213085413
    5    -317.5894089665      2.39e-04  
 Alpha HF Exchange    Energy =  -3.77909230529308
 Beta HF Exchange     Energy =  -3.77909230529307
 DFT Correlation      Energy =  -1.86226149969579
 DFT Exchange         Energy = -30.03711471444082
 One-Electron (alpha) Energy = -392.37896324065088
 One-Electron (beta)  Energy = -392.37896324065065
 Total Coulomb        Energy = 331.23838540074371
    6    -317.5896796483      7.58e-05  
 Alpha HF Exchange    Energy =  -3.77931177818478
 Beta HF Exchange     Energy =  -3.77931177818478
 DFT Correlation      Energy =  -1.86224087798211
 DFT Exchange         Energy = -30.03852904049332
 One-Electron (alpha) Energy = -392.37849350198837
 One-Electron (beta)  Energy = -392.37849350198826
 Total Coulomb        Energy = 331.23925439825331
    7    -317.5897038236      1.74e-05  
 Alpha HF Exchange    Energy =  -3.77925922622329
 Beta HF Exchange     Energy =  -3.77925922622329
 DFT Correlation      Energy =  -1.86224712412001
 DFT Exchange         Energy = -30.03819802149076
 One-Electron (alpha) Energy = -392.37854541029867
 One-Electron (beta)  Energy = -392.37854541029861
 Total Coulomb        Energy = 331.23892697234999
    8    -317.5897051893      5.97e-06  
 Alpha HF Exchange    Energy =  -3.77928340279351
 Beta HF Exchange     Energy =  -3.77928340279351
 DFT Correlation      Energy =  -1.86224975621218
 DFT Exchange         Energy = -30.03837125078806
 One-Electron (alpha) Energy = -392.37914807367986
 One-Electron (beta)  Energy = -392.37914807367986
 Total Coulomb        Energy = 331.24035638442029
    9    -317.5897053185      1.03e-06  
 Alpha HF Exchange    Energy =  -3.77928179339348
 Beta HF Exchange     Energy =  -3.77928179339348
 DFT Correlation      Energy =  -1.86224978236918
 DFT Exchange         Energy = -30.03835971583971
 One-Electron (alpha) Energy = -392.37912015451298
 One-Electron (beta)  Energy = -392.37912015451303
 Total Coulomb        Energy = 331.24028581507554
   10    -317.5897053219      3.51e-07  Convergence criterion met
 ---------------------------------------
 SCF time:   CPU 23.53s  wall 2.00s 
<S^2> =          0.000000000
 Alpha HF Exchange    Energy =  -3.77928179339348
 Beta HF Exchange     Energy =  -3.77928179339348
 DFT Correlation      Energy =  -1.86224978236918
 DFT Exchange         Energy = -30.03835971583971
 One-Electron (alpha) Energy = -392.37912015451298
 One-Electron (beta)  Energy = -392.37912015451303
 Total Coulomb        Energy = 331.24028581507554
 Nuclear repulsion Energy = 175.38742225700128
 SCF   energy in the final basis set =     -317.5897053219
 Total energy in the final basis set =     -317.5897053219
 
 --------------------------------------------------------------
 
                    Orbital Energies (a.u.)
 --------------------------------------------------------------
 
 Alpha MOs
 -- Occupied --
-24.711 -24.653 -10.292 -10.202 -10.197  -1.223  -1.157  -0.806
 -0.720  -0.590  -0.512  -0.503  -0.493  -0.474  -0.424  -0.415
 -0.400  -0.371  -0.368  -0.366  -0.270
 -- Virtual --
  0.005   0.083   0.108   0.124   0.146   0.169   0.178   0.202
  0.255   0.344   0.491   0.533   0.550   0.579   0.608   0.614
  0.646   0.687   0.758   0.799   0.821   0.855   0.866   0.901
  0.921   1.011   1.075   1.149   1.171   1.203   1.220   1.263
  1.293   1.311   1.389   1.394   1.482   1.582   1.596   1.631
  1.678   1.742   1.780   1.815   1.837   1.850   1.884   1.886
  1.930   2.003   2.023   2.056   2.071   2.088   2.110   2.128
  2.227   2.313   2.334   2.415   2.448   2.540   2.554   2.615
  2.638   2.677   2.731   2.770   2.834   2.838   2.868   3.000
  3.097   3.186   3.355   3.409   3.453   3.591   3.714   3.880
  4.214   4.409   4.469   4.911
 
 Beta MOs
 -- Occupied --
-24.711 -24.653 -10.292 -10.202 -10.197  -1.223  -1.157  -0.806
 -0.720  -0.590  -0.512  -0.503  -0.493  -0.474  -0.424  -0.415
 -0.400  -0.371  -0.368  -0.366  -0.270
 -- Virtual --
  0.005   0.083   0.108   0.124   0.146   0.169   0.178   0.202
  0.255   0.344   0.491   0.533   0.550   0.579   0.608   0.614
  0.646   0.687   0.758   0.799   0.821   0.855   0.866   0.901
  0.921   1.011   1.075   1.149   1.171   1.203   1.220   1.263
  1.293   1.311   1.389   1.394   1.482   1.582   1.596   1.631
  1.678   1.742   1.780   1.815   1.837   1.850   1.884   1.886
  1.930   2.003   2.023   2.056   2.071   2.088   2.110   2.128
  2.227   2.313   2.334   2.415   2.448   2.540   2.554   2.615
  2.638   2.677   2.731   2.770   2.834   2.838   2.868   3.000
  3.097   3.186   3.355   3.409   3.453   3.591   3.714   3.880
  4.214   4.409   4.469   4.911
 --------------------------------------------------------------
 
          Ground-State Mulliken Net Atomic Charges

     Atom                 Charge (a.u.)    Spin (a.u.)
  --------------------------------------------------------
      1 F                    -0.281775       0.000000
      2 F                    -0.371491       0.000000
      3 C                     0.374026      -0.000000
      4 C                    -0.348403       0.000000
      5 C                    -0.384826       0.000000
      6 H                     0.344034       0.000000
      7 H                     0.121570       0.000000
      8 H                     0.125114      -0.000000
      9 H                     0.135458      -0.000000
     10 H                     0.126092      -0.000000
     11 H                     0.160201      -0.000000
  --------------------------------------------------------
  Sum of atomic charges =     0.000000
  Sum of spin   charges =     0.000000

 -----------------------------------------------------------------
                    Cartesian Multipole Moments
 -----------------------------------------------------------------
    Charge (ESU x 10^10)
                 0.0000
    Dipole Moment (Debye)
         X      -0.2976      Y       1.5028      Z       1.4482
       Tot       2.1081
    Quadrupole Moments (Debye-Ang)
        XX     -26.6129     XY      -0.8134     YY     -29.0258
        XZ       2.3754     YZ       0.0482     ZZ     -35.2026
    Octopole Moments (Debye-Ang^2)
       XXX      32.0945    XXY      -3.7384    XYY      13.0460
       YYY     -11.5395    XXZ      -0.6395    XYZ      -0.7251
       YYZ      -3.2515    XZZ      10.0583    YZZ      -5.1791
       ZZZ       5.8417
    Hexadecapole Moments (Debye-Ang^3)
      XXXX    -212.5998   XXXY       5.1670   XXYY     -57.8821
      XYYY       7.1324   YYYY    -114.0396   XXXZ      12.8460
      XXYZ       0.5006   XYYZ       6.4787   YYYZ      -0.0974
      XXZZ     -79.8477   XYZZ       2.7261   YYZZ     -66.6988
      XZZZ      26.1891   YZZZ      -3.6859   ZZZZ    -291.6196
 -----------------------------------------------------------------
 Calculating analytic gradient of the SCF energy
 Gradient of SCF Energy
            1           2           3           4           5           6
    1   0.0000115   0.0001716   0.0000439  -0.0000168   0.0000419  -0.0002736
    2   0.0000159  -0.0001812  -0.0000506   0.0004911   0.0000024  -0.0003382
    3  -0.0000231  -0.0015369   0.0001288   0.0016488  -0.0001012  -0.0001176
            7           8           9          10          11
    1   0.0000247   0.0000113  -0.0000050   0.0000018  -0.0000114
    2  -0.0000178   0.0000594   0.0000254   0.0000019  -0.0000082
    3  -0.0000730   0.0000434   0.0000082  -0.0000005   0.0000231
 Max gradient component =       1.649E-03
 RMS gradient           =       4.132E-04
 Gradient time:  CPU 8.14 s  wall 0.70 s
 Geometry Optimization Parameters
   NAtoms,    NIC,     NZ,  NCons,   NDum,   NFix, NCnnct, MaxDiis
       11      81       0       1       0       0       0       0

 Cartesian Hessian Update
 Hessian Updated using BFGS Update


** CONSTRAINED OPTIMIZATION IN DELOCALIZED INTERNAL COORDINATES **
   Searching for a Minimum

   Optimization Cycle:   9

                       Coordinates (Angstroms)
     ATOM                X               Y               Z
      1  F        -0.8370815099   -1.1483663696    0.9952911751
      2  F         0.6065821229   -0.1216091065   -2.1449358729
      3  C        -0.5843722112    0.1322842735    0.6397259340
      4  C         0.5482286270    0.7086383221    1.0483824283
      5  C        -1.6678244935    0.7025026738   -0.2133577493
      6  H         0.8052537688    0.0079570622   -1.2423726718
      7  H         0.7554575642    1.7411805574    0.7961942871
      8  H         1.2535433244    0.1709856838    1.6707711325
      9  H        -2.6384156224    0.5709779771    0.2747143196
     10  H        -1.5001335732    1.7649856630   -0.3982250413
     11  H        -1.6875399971    0.1808692632   -1.1744849413
   Point Group: c1    Number of degrees of freedom:    27


   Energy is   -317.589705322

              Constraints and their Current Values
                                        Value     Constraint
   Distance(Angs):        2   4             3.300000     3.300000
 Hessian Updated using BFGS Update

 26 Hessian modes will be used to form the next step
  Hessian Eigenvalues:
     0.004888    0.045114    0.050178    0.056499    0.058283    0.067062
     0.078673    0.083159    0.084756    0.088403    0.104551    0.118157
     0.131939    0.159919    0.160000    0.160198    0.171519    0.331895
     0.333021    0.343264    0.343893    0.346617    0.355792    0.356484
     0.526745    0.546305

 Minimum Search - Taking Simple RFO Step
 Searching for Lamda that Minimizes Along All modes
 Value Taken    Lamda =  -0.00000138
 Step Taken.  Stepsize is  0.013448

                             Maximum     Tolerance    Cnvgd?
         Gradient           0.000112      0.000300     YES
         Displacement       0.010330      0.001200      NO
         Energy change     -0.000001      0.000001     YES


                       Distance Matrix (Angstroms)
             F (  1)   F (  2)   C (  3)   C (  4)   C (  5)   H (  6)
   F (  2)  3.605471
   C (  3)  1.352906  3.039272
   C (  4)  2.317406  3.300000  1.334904
   C (  5)  2.361500  3.095655  1.492236  2.550082
   H (  6)  3.006907  0.933209  2.342822  2.409269  2.767197
   H (  7)  3.305344  3.484594  2.099565  1.082906  2.823180  2.676247
   H (  8)  2.562748  3.881210  2.107720  1.083470  3.516652  2.951940
   H (  9)  2.592331  4.106628  2.131849  3.282105  1.094331  3.804918
   H ( 10)  3.296839  3.323927  2.140485  2.721090  1.091406  3.019031
   H ( 11)  2.682923  2.509236  2.123841  3.196614  1.093735  2.499706
             H (  7)   H (  8)   H (  9)   H ( 10)
   H (  8)  1.865070
   H (  9)  3.627629  4.154072
   H ( 10)  2.552429  3.795302  1.781625
   H ( 11)  3.505194  4.092133  1.776662  1.774014
 
 Final energy is   -317.589705321945     


 ******************************
 **  OPTIMIZATION CONVERGED  **
 ******************************

                       Coordinates (Angstroms)
     ATOM                X               Y               Z
      1  F        -0.8370815099   -1.1483663696    0.9952911751
      2  F         0.6065821229   -0.1216091065   -2.1449358729
      3  C        -0.5843722112    0.1322842735    0.6397259340
      4  C         0.5482286270    0.7086383221    1.0483824283
      5  C        -1.6678244935    0.7025026738   -0.2133577493
      6  H         0.8052537688    0.0079570622   -1.2423726718
      7  H         0.7554575642    1.7411805574    0.7961942871
      8  H         1.2535433244    0.1709856838    1.6707711325
      9  H        -2.6384156224    0.5709779771    0.2747143196
     10  H        -1.5001335732    1.7649856630   -0.3982250413
     11  H        -1.6875399971    0.1808692632   -1.1744849413

Z-matrix Print:
$molecule
0 1
F 
C  1 1.352906
C  2 1.334904 1 119.125468
H  3 1.082906 2 120.181917 1 -178.352036 0
H  3 1.083470 2 120.925659 1 -1.031378 0
C  2 1.492236 1 112.107245 3 179.066333 0
H  6 1.091406 2 110.932895 1 173.797218 0
H  6 1.093735 2 109.463805 1 -66.431834 0
H  6 1.094331 2 110.063710 1 52.832411 0
H  2 2.342822 1 105.764991 3 83.019523 0
F  10 0.933209 2 131.152039 1 82.403516 0
$end

PES scan, value:    3.3000 energy: -317.5897053219
------- Summary of potential scan: ------ 
    3.3000      -317.5897053219
----------------------------------------- 
Archival summary:
1\1\hpc0244\JobtypUnspecified\ProcedureUnspecified\6-31G**\236\knomura\WedMar1318:39:132019WedMar1318:39:132019\0\\#,JobtypUnspecified,ProcedureUnspecified,6-31G**,\\0,1\F\C,1,1.35291\C,2,1.3349,1,119.125\H,3,1.08291,2,120.182,1,-178.352,0\H,3,1.08347,2,120.926,1,-1.03138,0\C,2,1.49224,1,112.107,3,179.066,0\H,6,1.09141,2,110.933,1,173.797,0\H,6,1.09373,2,109.464,1,-66.4318,0\H,6,1.09433,2,110.064,1,52.8324,0\H,2,2.34282,1,105.765,3,83.0195,0\F,10,0.933209,2,131.152,1,82.4035,0\\\@

 Total job time:  28.19s(wall), 325.23s(cpu) 
 Wed Mar 13 18:39:13 2019

        *************************************************************
        *                                                           *
        *  Thank you very much for using Q-Chem.  Have a nice day.  *
        *                                                           *
        *************************************************************


