
Running Job 1 of 1 halogens/Flourine/03/F_2_4.xyz.data/inputs/bond_triplet_3.0.in
qchem halogens/Flourine/03/F_2_4.xyz.data/inputs/bond_triplet_3.0.in_5519.0 /staging/scratch/2868761/qchem5519/ 1
/usr/usc/qchem/5.1.1/exe/qcprog.exe_s halogens/Flourine/03/F_2_4.xyz.data/inputs/bond_triplet_3.0.in_5519.0 /staging/scratch/2868761/qchem5519/
Check license passed

                  Welcome to Q-Chem
     A Quantum Leap Into The Future Of Chemistry


 Q-Chem 5.1, Q-Chem, Inc., Pleasanton, CA (2018)

 Yihan Shao,  Zhengting Gan,  E. Epifanovsky,  A. T. B. Gilbert,  M. Wormit,  
 J. Kussmann,  A. W. Lange,  A. Behn,  Jia Deng,  Xintian Feng,  D. Ghosh,  
 M. Goldey,  P. R. Horn,  L. D. Jacobson,  I. Kaliman,  T. Kus,  A. Landau,  
 Jie Liu,  E. I. Proynov,  R. M. Richard,  R. P. Steele,  E. J. Sundstrom,  
 H. L. Woodcock III,  P. M. Zimmerman,  D. Zuev,  B. Albrecht,  E. Alguire,  
 S. A. Baeppler,  D. Barton,  Z. Benda,  Y. A. Bernard,  E. J. Berquist,  
 K. B. Bravaya,  H. Burton,  D. Casanova,  Chun-Min Chang,  Yunqing Chen,  
 A. Chien,  K. D. Closser,  M. P. Coons,  S. Coriani,  S. Dasgupta,  
 A. L. Dempwolff,  M. Diedenhofen,  Hainam Do,  R. G. Edgar,  Po-Tung Fang,  
 S. Faraji,  S. Fatehi,  Qingguo Feng,  K. D. Fenk,  J. Fosso-Tande,  
 Qinghui Ge,  A. Ghysels,  G. Gidofalvi,  J. Gomes,  J. Gonthier,  A. Gunina,  
 D. Hait,  M. W. D. Hanson-Heine,  P. H. P. Harbach,  A. W. Hauser,  
 J. E. Herr,  E. G. Hohenstein,  Z. C. Holden,  Kerwin Hui,  B. C. Huynh,  
 T.-C. Jagau,  Hyunjun Ji,  B. Kaduk,  K. Khistyaev,  Jaehoon Kim,  
 P. Klunzinger,  K. Koh,  D. Kosenkov,  L. Koulias,  T. Kowalczyk,  
 C. M. Krauter,  A. Kunitsa,  Ka Un Lao,  A. Laurent,  K. V. Lawler,  
 Joonho Lee,  D. Lefrancois,  S. Lehtola,  D. S. Levine,  Yi-Pei Li,  
 You-Sheng Lin,  Fenglai Liu,  E. Livshits,  A. Luenser,  P. Manohar,  
 E. Mansoor,  S. F. Manzer,  Shan-Ping Mao,  Yuezhi Mao,  N. Mardirossian,  
 A. V. Marenich,  T. Markovich,  L. A. Martinez-Martinez,  S. A. Maurer,  
 N. J. Mayhall,  S. C. McKenzie,  J.-M. Mewes,  A. F. Morrison,  
 J. W. Mullinax,  K. Nanda,  T. S. Nguyen-Beck,  R. Olivares-Amaya,  
 J. A. Parkhill,  T. M. Perrine,  F. Plasser,  P. Pokhilko,  S. Prager,  
 A. Prociuk,  E. Ramos,  D. R. Rehn,  F. Rob,  M. Schneider,  N. Sergueev,  
 S. M. Sharada,  S. Sharma,  D. W. Small,  T. Stauch,  T. Stein,  
 Yu-Chuan Su,  A. J. W. Thom,  A. Tkatchenko,  T. Tsuchimochi,  N. M. Tubman,  
 L. Vogt,  M. L. Vidal,  O. Vydrov,  M. A. Watson,  J. Wenzel,  
 M. de Wergifosse,  T. A. Wesolowski,  A. White,  J. Witte,  A. Yamada,  
 Jun Yang,  K. Yao,  S. Yeganeh,  S. R. Yost,  Zhi-Qiang You,  A. Zech,  
 Igor Ying Zhang,  Xing Zhang,  Yan Zhao,  Ying Zhu,  B. R. Brooks,  
 G. K. L. Chan,  C. J. Cramer,  M. S. Gordon,  W. J. Hehre,  A. Klamt,  
 M. W. Schmidt,  C. D. Sherrill,  D. G. Truhlar,  A. Aspuru-Guzik,  R. Baer,  
 A. T. Bell,  N. A. Besley,  Jeng-Da Chai,  A. E. DePrince, III,  
 R. A. DiStasio Jr.,  A. Dreuw,  B. D. Dunietz,  T. R. Furlani,  
 Chao-Ping Hsu,  Yousung Jung,  Jing Kong,  D. S. Lambrecht,  WanZhen Liang,  
 C. Ochsenfeld,  V. A. Rassolov,  L. V. Slipchenko,  J. E. Subotnik,  
 T. Van Voorhis,  J. M. Herbert,  A. I. Krylov,  P. M. W. Gill,  M. Head-Gordon

 Contributors to earlier versions of Q-Chem not listed above: 
 R. D. Adamson,  B. Austin,  J. Baker,  G. J. O. Beran,  K. Brandhorst,  
 S. T. Brown,  E. F. C. Byrd,  A. K. Chakraborty,  C.-L. Cheng,  
 Siu Hung Chien,  D. M. Chipman,  D. L. Crittenden,  H. Dachsel,  
 R. J. Doerksen,  A. D. Dutoi,  L. Fusti-Molnar,  W. A. Goddard III,  
 A. Golubeva-Zadorozhnaya,  S. R. Gwaltney,  G. Hawkins,  A. Heyden,  
 S. Hirata,  G. Kedziora,  F. J. Keil,  C. Kelley,  Jihan Kim,  R. A. King,  
 R. Z. Khaliullin,  P. P. Korambath,  W. Kurlancheek,  A. M. Lee,  M. S. Lee,  
 S. V. Levchenko,  Ching Yeh Lin,  D. Liotard,  R. C. Lochan,  I. Lotan,  
 P. E. Maslen,  N. Nair,  D. P. O'Neill,  D. Neuhauser,  E. Neuscamman,  
 C. M. Oana,  R. Olson,  B. Peters,  R. Peverati,  P. A. Pieniazek,  
 Y. M. Rhee,  J. Ritchie,  M. A. Rohrdanz,  E. Rosta,  N. J. Russ,  
 H. F. Schaefer III,  N. E. Schultz,  N. Shenvi,  A. C. Simmonett,  A. Sodt,  
 D. Stuck,  K. S. Thanthiriwatte,  V. Vanovschi,  Tao Wang,  A. Warshel,  
 C. F. Williams,  Q. Wu,  X. Xu,  W. Zhang

 Please cite Q-Chem as follows:
 Y. Shao et al., Mol. Phys. 113, 184-215 (2015)
 DOI: 10.1080/00268976.2014.952696

 Q-Chem 5.1.1 for Intel X86 EM64T Linux

 Parts of Q-Chem use Armadillo 8.300.2 (Tropical Shenanigans).
 http://arma.sourceforge.net/

 Q-Chem begins on Wed Mar 13 18:58:07 2019  

Host: 
0

     Scratch files written to /staging/scratch/2868761/qchem5519//
 Aug318 |scratch|qcdevops|jenkins|workspace|build_RNUM 6013   
Processing $rem in /usr/usc/qchem/5.1.1/config/preferences.
 MEM_TOTAL  2000 
Input Ideriv = 2
Curr. Ideriv = -1
Max.  Ideriv = 2

Checking the input file for inconsistencies... 	...done.

--------------------------------------------------------------
User input:
--------------------------------------------------------------

$comment
potential surface scanner
$end

$rem
JOBTYPE  PES_SCAN
UNRESTRICTED TRUE
SYM_IGNORE  TRUE
GEOM_OPT_MAX_CYCLES 400
SCF_MAX_CYCLES 400
METHOD   B3LYP
BASIS   6-31G**
PDB_PRINT 2
SCF_CONVERGENCE 6
THRESH 14
SCF_PRINT 1
$end
$molecule
0 3
F -0.368296 -1.093918 0.502017
F 0.998658 -0.358186 -1.618815
C -0.701850 0.260857 0.689365
C 0.442297 1.070358 1.075573
C -1.748477 0.685399 -0.279157
H 0.639389 -0.900235 -0.947304
H 1.184874 1.340248 0.324912
H 0.638711 1.327237 2.112410
H -2.603402 0.001768 -0.256086
H -2.096440 1.696167 -0.052959
H -1.331761 0.680709 -1.298249
$end
$scan
stre 2 4 3.000000 3.001000 0.100000
$end
--------------------------------------------------------------
 ----------------------------------------------------------------
             Standard Nuclear Orientation (Angstroms)
    I     Atom           X                Y                Z
 ----------------------------------------------------------------
    1      F      -0.3682960000    -1.0939180000     0.5020170000
    2      F       0.9986580000    -0.3581860000    -1.6188150000
    3      C      -0.7018500000     0.2608570000     0.6893650000
    4      C       0.4422970000     1.0703580000     1.0755730000
    5      C      -1.7484770000     0.6853990000    -0.2791570000
    6      H       0.6393890000    -0.9002350000    -0.9473040000
    7      H       1.1848740000     1.3402480000     0.3249120000
    8      H       0.6387110000     1.3272370000     2.1124100000
    9      H      -2.6034020000     0.0017680000    -0.2560860000
   10      H      -2.0964400000     1.6961670000    -0.0529590000
   11      H      -1.3317610000     0.6807090000    -1.2982490000
 ----------------------------------------------------------------
 Nuclear Repulsion Energy =   178.1866525335 hartrees
 There are       22 alpha and       20 beta electrons
 Requested basis set is 6-31G(d,p)
 There are 38 shells and 105 basis functions

 Total QAlloc Memory Limit   2000 MB
 Mega-Array Size       188 MB
 MEM_STATIC part       192 MB
A total of 1 constraints
  
            1
    1   1.0100000
    2   2.0100000
    3   4.0100000
    4   3.0000000
    5   3.0010000
    6   0.1000000
    7   0.0000000
    8   0.0000000
    9   0.0000000
   10   0.0000000

                       Distance Matrix (Angstroms)
             F (  1)   F (  2)   C (  3)   C (  4)   C (  5)   H (  6)
   F (  2)  2.628268
   C (  3)  1.407755  2.933025
   C (  4)  2.381201  3.100000  1.453795
   C (  5)  2.383506  3.229629  1.487850  2.604415
   H (  6)  1.775802  0.934783  2.413657  2.830921  2.943223
   H (  7)  2.892899  2.587939  2.204005  1.089841  3.065661  2.633600
   H (  8)  3.077242  4.110019  2.226955  1.086092  3.439508  3.784638
   H (  9)  2.602104  3.868001  2.139370  3.491630  1.094888  3.436144
   H ( 10)  3.328521  4.031365  2.134488  2.847878  1.092655  3.876328
   H ( 11)  2.705277  2.571559  2.126893  2.989003  1.101010  2.551074
             H (  7)   H (  8)   H (  9)   H ( 10)
   H (  8)  1.869121
   H (  9)  4.059572  4.228231
   H ( 10)  3.322121  3.507988  1.780241
   H ( 11)  3.066447  3.991660  1.778802  1.779504
 
 A cutoff of  1.0D-14 yielded    721 shell pairs
 There are      5650 function pairs
 
 -------------------------------------------------------
 OpenMP Integral Computing Module                       
 Release: version 1.0, May 2013, Q-Chem Inc. Pittsburgh 
 -------------------------------------------------------
 Integral Job Info:
 Integral job number is                      11
 Integral operator is                         1
 short-range coefficients                     0
 long-range coefficients              100000000
 Omega coefficients                           0
 if combine SR and LR in K                    0
 Integral screening is                        0
 Integral computing path is                   2
 max size of driver memory is            800000
 size of driver memory is                593474
 size of scratch memory is              2361544
 max col of scratch BK array               1296
 max len of scratch array in speh3          155
 max len of scratch index in speh4           18
 max int batch size is                      520
 min int batch size is                       52
 fixed nKL is                                52
 max L of basis functions is                  2
 order of int derivative is                   0
 number of shells is                         38
 number of basis is                         105
 number of cartesian basis is               105
 number of contracted shell pairs           721
 number of primitive shell pairs           2601
 maxK2 (contraction) of shell pair           36
 max number of K2 of shell pair               1
 max number of CS2 of shell pair             61
 max number of PS2 of shell pair            276
 mem total for path MDJ                  520332
 -------------------------------------------------------
 Smallest overlap matrix eigenvalue = 4.41E-03

 Scale SEOQF with 1.000000e-01/1.000000e-01/1.000000e-01

 Standard Electronic Orientation quadrupole field applied
 Nucleus-field energy     =    -0.0000000008 hartrees
 Guess from superposition of atomic densities
 Warning:  Energy on first SCF cycle will be non-variational
 SAD guess density has 42.000000 electrons

 -----------------------------------------------------------------------
  General SCF calculation program by
  Eric Jon Sundstrom, Paul Horn, Yuezhi Mao, Dmitri Zuev, Alec White,
  David Stuck, Shaama M.S., Shane Yost, Joonho Lee, David Small,
  Daniel Levine, Susi Lehtola, Hugh Burton, Evgeny Epifanovsky
 -----------------------------------------------------------------------
 Exchange:     0.2000 Hartree-Fock + 0.0800 Slater + 0.7200 B88
 Correlation:  0.1900 VWN1RPA + 0.8100 LYP
 Using SG-1 standard quadrature grid
 using 12 threads for integral computing
 -------------------------------------------------------
 OpenMP Integral computing Module                
 Release: version 1.0, May 2013, Q-Chem Inc. Pittsburgh 
 -------------------------------------------------------
 -------------------------------------------------------
 OpenMP BLAS3 based DFT computing Module                
 Release: version 1.0, May 2013, Q-Chem Inc. Pittsburgh 
 -------------------------------------------------------
 A unrestricted SCF calculation will be
 performed using DIIS
 SCF converges when DIIS error is below 1.0e-06
 Alpha HF Exchange    Energy =  -3.74879870740874
 Beta HF Exchange     Energy =  -3.74879870740874
 DFT Correlation      Energy =  -1.84329745433086
 DFT Exchange         Energy = -29.59808785674713
 One-Electron (alpha) Energy = -393.51424822818711
 One-Electron (beta)  Energy = -393.51424822818711
 Total Coulomb        Energy = 329.90090660536657
 ---------------------------------------
  Cycle       Energy         DIIS error
 ---------------------------------------
    1    -317.8799200443      2.91e-02  
 Alpha HF Exchange    Energy =  -3.91520089374219
 Beta HF Exchange     Energy =  -3.71625000601873
 DFT Correlation      Energy =  -1.86021988942242
 DFT Exchange         Energy = -30.32608166646615
 One-Electron (alpha) Energy = -409.14782990170357
 One-Electron (beta)  Energy = -384.29093518203854
 Total Coulomb        Energy = 337.66279285236482
    2    -317.4070721544      4.26e-03  
 Alpha HF Exchange    Energy =  -3.83813476079639
 Beta HF Exchange     Energy =  -3.64098624274852
 DFT Correlation      Energy =  -1.83522631361892
 DFT Exchange         Energy = -29.71196147283123
 One-Electron (alpha) Energy = -406.09797874104976
 One-Electron (beta)  Energy = -381.21591514380526
 Total Coulomb        Energy = 330.75075083674443
    3    -317.4027993055      4.64e-03  
 Alpha HF Exchange    Energy =  -3.87788378602379
 Beta HF Exchange     Energy =  -3.68091357738985
 DFT Correlation      Energy =  -1.84643982996007
 DFT Exchange         Energy = -30.02623615592173
 One-Electron (alpha) Energy = -407.68415395544918
 One-Electron (beta)  Energy = -382.72942254524963
 Total Coulomb        Energy = 334.16786091334632
    4    -317.4905364040      4.06e-04  
 Alpha HF Exchange    Energy =  -3.87893361345271
 Beta HF Exchange     Energy =  -3.68091374745992
 DFT Correlation      Energy =  -1.84674920868002
 DFT Exchange         Energy = -30.03082426782653
 One-Electron (alpha) Energy = -407.77712287892990
 One-Electron (beta)  Energy = -382.76553442516712
 Total Coulomb        Energy = 334.30228879045160
    5    -317.4911368184      1.82e-04  
 Alpha HF Exchange    Energy =  -3.87863255440965
 Beta HF Exchange     Energy =  -3.68071519703472
 DFT Correlation      Energy =  -1.84638065400647
 DFT Exchange         Energy = -30.02807949292731
 One-Electron (alpha) Energy = -407.74723828251962
 One-Electron (beta)  Energy = -382.72397315406943
 Total Coulomb        Energy = 334.22707331998197
    6    -317.4912934823      3.87e-05  
 Alpha HF Exchange    Energy =  -3.87866992266343
 Beta HF Exchange     Energy =  -3.68088616267233
 DFT Correlation      Energy =  -1.84633266724392
 DFT Exchange         Energy = -30.02865816242516
 One-Electron (alpha) Energy = -407.75074770323647
 One-Electron (beta)  Energy = -382.72400415409646
 Total Coulomb        Energy = 334.23134553057469
    7    -317.4913007091      2.17e-05  
 Alpha HF Exchange    Energy =  -3.87865864813639
 Beta HF Exchange     Energy =  -3.68080993933593
 DFT Correlation      Energy =  -1.84633108691676
 DFT Exchange         Energy = -30.02837955896575
 One-Electron (alpha) Energy = -407.75308165375219
 One-Electron (beta)  Energy = -382.72253445177773
 Total Coulomb        Energy = 334.23183982805898
    8    -317.4913029782      7.79e-06  
 Alpha HF Exchange    Energy =  -3.87869293333840
 Beta HF Exchange     Energy =  -3.68086318325058
 DFT Correlation      Energy =  -1.84632420968234
 DFT Exchange         Energy = -30.02867705299436
 One-Electron (alpha) Energy = -407.75406978023221
 One-Electron (beta)  Energy = -382.72283371841377
 Total Coulomb        Energy = 334.23350507744038
    9    -317.4913032678      3.79e-06  
 Alpha HF Exchange    Energy =  -3.87866993769553
 Beta HF Exchange     Energy =  -3.68084843655228
 DFT Correlation      Energy =  -1.84631915118635
 DFT Exchange         Energy = -30.02853318804683
 One-Electron (alpha) Energy = -407.75340984674551
 One-Electron (beta)  Energy = -382.72202357442069
 Total Coulomb        Energy = 334.23184826297023
   10    -317.4913033390      6.47e-07  Convergence criterion met
 ---------------------------------------
 SCF time:   CPU 24.20s  wall 2.00s 
<S^2> =          2.004263043
 Alpha HF Exchange    Energy =  -3.87866993769553
 Beta HF Exchange     Energy =  -3.68084843655228
 DFT Correlation      Energy =  -1.84631915118635
 DFT Exchange         Energy = -30.02853318804683
 One-Electron (alpha) Energy = -407.75340984674551
 One-Electron (beta)  Energy = -382.72202357442069
 Total Coulomb        Energy = 334.23184826297023
 Nuclear repulsion Energy = 178.18665253264371
 SCF   energy in the final basis set =     -317.4913033390
 Total energy in the final basis set =     -317.4913033390
 
 --------------------------------------------------------------
 
                    Orbital Energies (a.u.)
 --------------------------------------------------------------
 
 Alpha MOs
 -- Occupied --
-24.715 -24.652 -10.280 -10.219 -10.197  -1.216  -1.155  -0.801
 -0.715  -0.595  -0.526  -0.496  -0.480  -0.477  -0.432  -0.414
 -0.404  -0.372  -0.367  -0.366  -0.247  -0.209
 -- Virtual --
  0.098   0.122   0.131   0.154   0.167   0.171   0.210   0.226
  0.293   0.485   0.524   0.543   0.546   0.563   0.575   0.602
  0.675   0.733   0.795   0.807   0.829   0.859   0.878   0.895
  0.921   0.998   1.094   1.156   1.201   1.238   1.245   1.326
  1.349   1.372   1.439   1.468   1.562   1.609   1.635   1.653
  1.724   1.738   1.755   1.811   1.862   1.883   1.897   1.903
  1.971   1.982   2.020   2.024   2.038   2.074   2.089   2.188
  2.220   2.326   2.385   2.419   2.535   2.582   2.604   2.614
  2.651   2.742   2.753   2.806   2.858   2.886   2.931   3.091
  3.181   3.295   3.400   3.414   3.476   3.709   3.832   4.130
  4.363   4.528   4.613
 
 Beta MOs
 -- Occupied --
-24.711 -24.652 -10.266 -10.205 -10.197  -1.204  -1.154  -0.773
 -0.689  -0.574  -0.518  -0.481  -0.464  -0.456  -0.417  -0.404
 -0.399  -0.367  -0.366  -0.361
 -- Virtual --
 -0.086  -0.055   0.105   0.135   0.144   0.160   0.177   0.186
  0.228   0.244   0.310   0.504   0.554   0.565   0.568   0.586
  0.612   0.626   0.694   0.745   0.800   0.818   0.837   0.865
  0.890   0.911   0.929   1.019   1.099   1.161   1.212   1.240
  1.259   1.336   1.359   1.385   1.469   1.486   1.586   1.619
  1.640   1.666   1.734   1.752   1.781   1.826   1.867   1.886
  1.908   1.911   1.996   2.011   2.030   2.046   2.052   2.084
  2.103   2.202   2.236   2.336   2.402   2.450   2.566   2.601
  2.615   2.627   2.663   2.743   2.767   2.812   2.869   2.888
  2.944   3.102   3.186   3.308   3.407   3.420   3.486   3.709
  3.833   4.158   4.387   4.540   4.626
 --------------------------------------------------------------
 
          Ground-State Mulliken Net Atomic Charges

     Atom                 Charge (a.u.)    Spin (a.u.)
  --------------------------------------------------------
      1 F                    -0.306531       0.083365
      2 F                    -0.378338       0.000444
      3 C                     0.283974       0.880309
      4 C                    -0.256197       1.002535
      5 C                    -0.370847      -0.047937
      6 H                     0.354987       0.004359
      7 H                     0.142953       0.011281
      8 H                     0.130861      -0.021439
      9 H                     0.131884       0.022182
     10 H                     0.126291       0.002670
     11 H                     0.140962       0.062229
  --------------------------------------------------------
  Sum of atomic charges =    -0.000000
  Sum of spin   charges =     2.000000

 -----------------------------------------------------------------
                    Cartesian Multipole Moments
 -----------------------------------------------------------------
    Charge (ESU x 10^10)
                 0.0000
    Dipole Moment (Debye)
         X      -1.0230      Y       0.8481      Z       1.2240
       Tot       1.8066
    Quadrupole Moments (Debye-Ang)
        XX     -28.5298     XY      -0.3837     YY     -28.3954
        XZ       2.8208     YZ       1.2544     ZZ     -31.6773
    Octopole Moments (Debye-Ang^2)
       XXX      24.9431    XXY      -5.1271    XYY      10.7602
       YYY     -20.3961    XXZ      -0.9052    XYZ       0.2077
       YYZ      -3.3623    XZZ       7.8623    YZZ      -3.9477
       ZZZ       1.4540
    Hexadecapole Moments (Debye-Ang^3)
      XXXX    -232.6821   XXXY      20.2230   XXYY     -60.3427
      XYYY      15.2803   YYYY    -147.1713   XXXZ      13.0961
      XXYZ      -8.7541   XYYZ       3.6350   YYYZ     -23.0019
      XXZZ     -77.4469   XYZZ       9.5763   YYZZ     -54.6113
      XZZZ      19.9394   YZZZ     -22.5334   ZZZZ    -193.7246
 -----------------------------------------------------------------
 Calculating analytic gradient of the SCF energy
 Gradient of SCF Energy
            1           2           3           4           5           6
    1   0.0000632  -0.0000248   0.0000561   0.0000278  -0.0000807  -0.0000122
    2  -0.0000518   0.0002105   0.0000743  -0.0001942  -0.0000458   0.0000255
    3  -0.0001080   0.0004502   0.0001113  -0.0003869   0.0000726  -0.0001009
            7           8           9          10          11
    1  -0.0000067  -0.0000597   0.0000127   0.0000080   0.0000162
    2  -0.0000178  -0.0000312   0.0000021   0.0000230   0.0000055
    3   0.0000256   0.0000338  -0.0000102  -0.0000681  -0.0000194
 Max gradient component =       4.502E-04
 RMS gradient           =       1.247E-04
 Gradient time:  CPU 9.73 s  wall 0.86 s
 Geometry Optimization Parameters
   NAtoms,    NIC,     NZ,  NCons,   NDum,   NFix, NCnnct, MaxDiis
       11      59       0       1       0       0       0       0


** CONSTRAINED OPTIMIZATION IN DELOCALIZED INTERNAL COORDINATES **
   Searching for a Minimum

   Optimization Cycle:   1

                       Coordinates (Angstroms)
     ATOM                X               Y               Z
      1  F        -0.3682960000   -1.0939180000    0.5020170000
      2  F         0.9986580000   -0.3581860000   -1.6188150000
      3  C        -0.7018500000    0.2608570000    0.6893650000
      4  C         0.4422970000    1.0703580000    1.0755730000
      5  C        -1.7484770000    0.6853990000   -0.2791570000
      6  H         0.6393890000   -0.9002350000   -0.9473040000
      7  H         1.1848740000    1.3402480000    0.3249120000
      8  H         0.6387110000    1.3272370000    2.1124100000
      9  H        -2.6034020000    0.0017680000   -0.2560860000
     10  H        -2.0964400000    1.6961670000   -0.0529590000
     11  H        -1.3317610000    0.6807090000   -1.2982490000
   Point Group: c1    Number of degrees of freedom:    27


   Energy is   -317.491303339

              Constraints and their Current Values
                                        Value     Constraint
   Distance(Angs):        2   4             3.100000     3.000000

 Attempting to Generate Delocalized Internal Coordinates

   Using Lagrange Multiplier Algorithm


 28 Hessian modes will be used to form the next step
  Hessian Eigenvalues:
    -0.992059    0.045000    0.045000    0.045000    0.045372    0.051380
     0.059090    0.075193    0.094031    0.095421    0.160000    0.160000
     0.160000    0.160000    0.160000    0.160000    0.220071    0.228886
     0.335707    0.336862    0.342538    0.345076    0.348310    0.352682
     0.375611    0.436994    0.607730    1.008004

 Minimum Search - Taking P-RFO Step
 Searching for Lamda that Maximizes Along the Constraint modes Only
 Value Taken    Lamda =   0.01789854
 Searching for Lamda that Minimizes Along All other modes
 Value Taken    Lamda =  -0.01720114
 Step Taken.  Stepsize is  0.185724

                             Maximum     Tolerance    Cnvgd?
         Gradient            0.188973       0.000300      NO
         Displacement        0.185713       0.001200      NO
         Energy change     *********       0.000001      NO


 New Cartesian Coordinates Obtained by Inverse Iteration

 Displacement from previous Coordinates is:  0.216256
 ----------------------------------------------------------------
             Standard Nuclear Orientation (Angstroms)
    I     Atom           X                Y                Z
 ----------------------------------------------------------------
    1      F      -0.3767728026    -1.1012864839     0.5152962148
    2      F       0.9811340784    -0.2940546521    -1.5701999674
    3      C      -0.7038263854     0.2534200428     0.6858342652
    4      C       0.4491028833     1.0529119341     1.0590546439
    5      C      -1.7473426755     0.6790017361    -0.2855117827
    6      H       0.6333342140    -0.8647210852    -0.9202126170
    7      H       1.1924628913     1.3057336468     0.3032384382
    8      H       0.6516479036     1.3194973514     2.0922525391
    9      H      -2.6089883525     0.0041240263    -0.2549605992
   10      H      -2.0849813863     1.6951610538    -0.0680745754
   11      H      -1.3320673684     0.6606164297    -1.3050095596
 ----------------------------------------------------------------
 Nuclear Repulsion Energy =   179.3782783817 hartrees
 There are       22 alpha and       20 beta electrons

                       Distance Matrix (Angstroms)
             F (  1)   F (  2)   C (  3)   C (  4)   C (  5)   H (  6)
   F (  2)  2.616262
   C (  3)  1.404022  2.868538
   C (  4)  2.370298  3.001726  1.451801
   C (  5)  2.385200  3.168887  1.487803  2.602315
   H (  6)  1.771148  0.932260  2.370153  2.762020  2.907499
   H (  7)  2.881183  2.472601  2.202194  1.089845  3.062985  2.553494
   H (  8)  3.066698  4.015678  2.225274  1.086089  3.437900  3.721034
   H (  9)  2.607300  3.835068  2.139366  3.489773  1.094909  3.422003
   H ( 10)  3.328426  3.951509  2.134147  2.846838  1.092638  3.829932
   H ( 11)  2.707472  2.516470  2.126959  2.985844  1.100985  2.517444
             H (  7)   H (  8)   H (  9)   H ( 10)
   H (  8)  1.869022
   H (  9)  4.056699  4.227454
   H ( 10)  3.321320  3.506747  1.780201
   H ( 11)  3.062008  3.988814  1.778795  1.779655
 
 Applying Cartesian multipole field
    Component          Value
    ---------          -----
     (2,0,0)        1.00000E-11
     (0,2,0)        2.00000E-11
     (0,0,2)       -3.00000E-11
 Nucleus-field energy     =    -0.0000000007 hartrees
 Requested basis set is 6-31G(d,p)
 There are 38 shells and 105 basis functions
 A cutoff of  1.0D-14 yielded    722 shell pairs
 There are      5654 function pairs
 Smallest overlap matrix eigenvalue = 4.30E-03
 Guess from superposition of atomic densities
 Warning:  Energy on first SCF cycle will be non-variational
 SAD guess density has 42.000000 electrons

 -----------------------------------------------------------------------
  General SCF calculation program by
  Eric Jon Sundstrom, Paul Horn, Yuezhi Mao, Dmitri Zuev, Alec White,
  David Stuck, Shaama M.S., Shane Yost, Joonho Lee, David Small,
  Daniel Levine, Susi Lehtola, Hugh Burton, Evgeny Epifanovsky
 -----------------------------------------------------------------------
 Exchange:     0.2000 Hartree-Fock + 0.0800 Slater + 0.7200 B88
 Correlation:  0.1900 VWN1RPA + 0.8100 LYP
 Using SG-1 standard quadrature grid
 using 12 threads for integral computing
 -------------------------------------------------------
 OpenMP Integral computing Module                
 Release: version 1.0, May 2013, Q-Chem Inc. Pittsburgh 
 -------------------------------------------------------
 -------------------------------------------------------
 OpenMP BLAS3 based DFT computing Module                
 Release: version 1.0, May 2013, Q-Chem Inc. Pittsburgh 
 -------------------------------------------------------
 A unrestricted SCF calculation will be
 performed using DIIS
 SCF converges when DIIS error is below 1.0e-06
 Alpha HF Exchange    Energy =  -3.75028021142694
 Beta HF Exchange     Energy =  -3.75028021142694
 DFT Correlation      Energy =  -1.84422333967749
 DFT Exchange         Energy = -29.60102110902075
 One-Electron (alpha) Energy = -394.69965738944484
 One-Electron (beta)  Energy = -394.69965738944484
 Total Coulomb        Energy = 331.07388429634346
 ---------------------------------------
  Cycle       Energy         DIIS error
 ---------------------------------------
    1    -317.8929569731      2.92e-02  
 Alpha HF Exchange    Energy =  -3.91560469835690
 Beta HF Exchange     Energy =  -3.71638765932090
 DFT Correlation      Energy =  -1.86098053106114
 DFT Exchange         Energy = -30.32798933338297
 One-Electron (alpha) Energy = -410.38292893846125
 One-Electron (beta)  Energy = -385.42072420922511
 Total Coulomb        Energy = 338.83936878432866
    2    -317.4069682045      4.25e-03  
 Alpha HF Exchange    Energy =  -3.83884596839006
 Beta HF Exchange     Energy =  -3.64169585562274
 DFT Correlation      Energy =  -1.83613018948513
 DFT Exchange         Energy = -29.71707635275488
 One-Electron (alpha) Energy = -407.33395947986850
 One-Electron (beta)  Energy = -382.35341320270885
 Total Coulomb        Energy = 331.93981883335050
    3    -317.4030238345      4.62e-03  
 Alpha HF Exchange    Energy =  -3.87835779530019
 Beta HF Exchange     Energy =  -3.68129244991041
 DFT Correlation      Energy =  -1.84726193656584
 DFT Exchange         Energy = -30.02918734751639
 One-Electron (alpha) Energy = -408.91808861272779
 One-Electron (beta)  Energy = -383.86199920632220
 Total Coulomb        Energy = 335.34767477223522
    4    -317.4902341951      4.14e-04  
 Alpha HF Exchange    Energy =  -3.87942459166812
 Beta HF Exchange     Energy =  -3.68134074654003
 DFT Correlation      Energy =  -1.84756698259237
 DFT Exchange         Energy = -30.03399590387579
 One-Electron (alpha) Energy = -409.01077733009822
 One-Electron (beta)  Energy = -383.89870081766600
 Total Coulomb        Energy = 335.48267596769807
    5    -317.4908520238      1.85e-04  
 Alpha HF Exchange    Energy =  -3.87909318290403
 Beta HF Exchange     Energy =  -3.68109049975619
 DFT Correlation      Energy =  -1.84719942046616
 DFT Exchange         Energy = -30.03097015552311
 One-Electron (alpha) Energy = -408.98059378289736
 One-Electron (beta)  Energy = -383.85619962420651
 Total Coulomb        Energy = 335.40585809592591
    6    -317.4910101889      4.10e-05  
 Alpha HF Exchange    Energy =  -3.87915160145644
 Beta HF Exchange     Energy =  -3.68129735006679
 DFT Correlation      Energy =  -1.84715085080455
 DFT Exchange         Energy = -30.03174397136007
 One-Electron (alpha) Energy = -408.98421165959121
 One-Electron (beta)  Energy = -383.85678016147887
 Total Coulomb        Energy = 335.41103942876805
    7    -317.4910177850      2.38e-05  
 Alpha HF Exchange    Energy =  -3.87912787490439
 Beta HF Exchange     Energy =  -3.68120705252938
 DFT Correlation      Energy =  -1.84714843550240
 DFT Exchange         Energy = -30.03136924995612
 One-Electron (alpha) Energy = -408.98642240763888
 One-Electron (beta)  Energy = -383.85504062674863
 Total Coulomb        Energy = 335.41101683844488
    8    -317.4910204279      7.72e-06  
 Alpha HF Exchange    Energy =  -3.87916476684752
 Beta HF Exchange     Energy =  -3.68125971505199
 DFT Correlation      Energy =  -1.84714190105517
 DFT Exchange         Energy = -30.03167642926448
 One-Electron (alpha) Energy = -408.98754732561565
 One-Electron (beta)  Energy = -383.85534522141666
 Total Coulomb        Energy = 335.41283625542678
    9    -317.4910207229      3.71e-06  
 Alpha HF Exchange    Energy =  -3.87914205026088
 Beta HF Exchange     Energy =  -3.68124639620461
 DFT Correlation      Energy =  -1.84713662937688
 DFT Exchange         Energy = -30.03153777733852
 One-Electron (alpha) Energy = -408.98687725574109
 One-Electron (beta)  Energy = -383.85453713120097
 Total Coulomb        Energy = 335.41117806487290
   10    -317.4910207943      6.45e-07  Convergence criterion met
 ---------------------------------------
 SCF time:   CPU 23.78s  wall 2.00s 
<S^2> =          2.004258111
 Alpha HF Exchange    Energy =  -3.87914205026088
 Beta HF Exchange     Energy =  -3.68124639620461
 DFT Correlation      Energy =  -1.84713662937688
 DFT Exchange         Energy = -30.03153777733852
 One-Electron (alpha) Energy = -408.98687725574109
 One-Electron (beta)  Energy = -383.85453713120097
 Total Coulomb        Energy = 335.41117806487290
 Nuclear repulsion Energy = 179.37827838096445
 SCF   energy in the final basis set =     -317.4910207943
 Total energy in the final basis set =     -317.4910207943
 
 --------------------------------------------------------------
 
                    Orbital Energies (a.u.)
 --------------------------------------------------------------
 
 Alpha MOs
 -- Occupied --
-24.716 -24.655 -10.279 -10.216 -10.196  -1.217  -1.158  -0.800
 -0.714  -0.595  -0.529  -0.496  -0.481  -0.478  -0.431  -0.414
 -0.404  -0.372  -0.369  -0.368  -0.246  -0.208
 -- Virtual --
  0.100   0.123   0.133   0.154   0.169   0.172   0.213   0.227
  0.295   0.486   0.525   0.546   0.547   0.563   0.576   0.603
  0.677   0.736   0.791   0.808   0.830   0.860   0.879   0.897
  0.922   0.999   1.095   1.157   1.204   1.245   1.247   1.329
  1.358   1.376   1.440   1.468   1.561   1.607   1.635   1.655
  1.724   1.739   1.760   1.811   1.861   1.883   1.899   1.905
  1.973   1.985   2.024   2.036   2.045   2.078   2.091   2.191
  2.223   2.328   2.387   2.422   2.537   2.585   2.606   2.617
  2.655   2.744   2.756   2.806   2.860   2.898   2.933   3.096
  3.183   3.299   3.402   3.415   3.477   3.710   3.839   4.137
  4.366   4.545   4.633
 
 Beta MOs
 -- Occupied --
-24.711 -24.655 -10.264 -10.203 -10.196  -1.206  -1.158  -0.772
 -0.688  -0.573  -0.522  -0.480  -0.465  -0.457  -0.416  -0.404
 -0.399  -0.369  -0.368  -0.361
 -- Virtual --
 -0.084  -0.054   0.106   0.137   0.146   0.161   0.178   0.189
  0.231   0.245   0.312   0.506   0.554   0.567   0.569   0.587
  0.615   0.627   0.695   0.747   0.796   0.820   0.838   0.866
  0.891   0.912   0.930   1.019   1.101   1.161   1.215   1.249
  1.259   1.339   1.369   1.388   1.469   1.488   1.584   1.616
  1.640   1.667   1.734   1.753   1.785   1.826   1.865   1.887
  1.911   1.914   1.999   2.018   2.031   2.048   2.061   2.092
  2.107   2.204   2.239   2.339   2.404   2.453   2.568   2.603
  2.618   2.629   2.667   2.744   2.770   2.813   2.871   2.901
  2.946   3.106   3.188   3.311   3.409   3.421   3.488   3.711
  3.840   4.163   4.390   4.560   4.645
 --------------------------------------------------------------
 
          Ground-State Mulliken Net Atomic Charges

     Atom                 Charge (a.u.)    Spin (a.u.)
  --------------------------------------------------------
      1 F                    -0.306004       0.083447
      2 F                    -0.372605       0.000347
      3 C                     0.282284       0.879913
      4 C                    -0.258323       1.002438
      5 C                    -0.370382      -0.048074
      6 H                     0.354661       0.004431
      7 H                     0.143791       0.011636
      8 H                     0.129098      -0.021353
      9 H                     0.130814       0.022072
     10 H                     0.126265       0.002677
     11 H                     0.140402       0.062467
  --------------------------------------------------------
  Sum of atomic charges =    -0.000000
  Sum of spin   charges =     2.000000

 -----------------------------------------------------------------
                    Cartesian Multipole Moments
 -----------------------------------------------------------------
    Charge (ESU x 10^10)
                -0.0000
    Dipole Moment (Debye)
         X      -0.9690      Y       0.7503      Z       1.1100
       Tot       1.6535
    Quadrupole Moments (Debye-Ang)
        XX     -28.4968     XY      -0.4874     YY     -28.4702
        XZ       2.6858     YZ       1.3598     ZZ     -31.5116
    Octopole Moments (Debye-Ang^2)
       XXX      25.3876    XXY      -5.3578    XYY      10.8350
       YYY     -20.5854    XXZ      -1.2192    XYZ       0.3648
       YYZ      -3.5870    XZZ       8.2423    YZZ      -4.4119
       ZZZ       0.2690
    Hexadecapole Moments (Debye-Ang^3)
      XXXX    -232.1373   XXXY      18.6348   XXYY     -59.7863
      XYYY      13.6659   YYYY    -144.2294   XXXZ      11.5636
      XXYZ      -7.6161   XYYZ       3.1127   YYYZ     -20.1773
      XXZZ     -76.0315   XYZZ       8.7270   YYZZ     -53.0869
      XZZZ      17.9415   YZZZ     -19.2193   ZZZZ    -187.2737
 -----------------------------------------------------------------
 Calculating analytic gradient of the SCF energy
 Gradient of SCF Energy
            1           2           3           4           5           6
    1   0.0004127  -0.0019460   0.0010128  -0.0011769   0.0002954   0.0009035
    2   0.0025319  -0.0006984  -0.0018001  -0.0021399   0.0004229   0.0019968
    3   0.0007320   0.0039360  -0.0006755  -0.0015035   0.0001727  -0.0019636
            7           8           9          10          11
    1   0.0002793   0.0000352   0.0001252  -0.0000072   0.0000659
    2  -0.0001004  -0.0000402  -0.0000316   0.0000533  -0.0001942
    3  -0.0002617  -0.0000840  -0.0000353  -0.0001061  -0.0002111
 Max gradient component =       3.936E-03
 RMS gradient           =       1.219E-03
 Gradient time:  CPU 8.24 s  wall 0.71 s
 Geometry Optimization Parameters
   NAtoms,    NIC,     NZ,  NCons,   NDum,   NFix, NCnnct, MaxDiis
       11      59       0       1       0       0       0       0

 Cartesian Hessian Update
 Hessian Updated using BFGS Update


** CONSTRAINED OPTIMIZATION IN DELOCALIZED INTERNAL COORDINATES **
   Searching for a Minimum

   Optimization Cycle:   2

                       Coordinates (Angstroms)
     ATOM                X               Y               Z
      1  F        -0.3767728026   -1.1012864839    0.5152962148
      2  F         0.9811340784   -0.2940546521   -1.5701999674
      3  C        -0.7038263854    0.2534200428    0.6858342652
      4  C         0.4491028833    1.0529119341    1.0590546439
      5  C        -1.7473426755    0.6790017361   -0.2855117827
      6  H         0.6333342140   -0.8647210852   -0.9202126170
      7  H         1.1924628913    1.3057336468    0.3032384382
      8  H         0.6516479036    1.3194973514    2.0922525391
      9  H        -2.6089883525    0.0041240263   -0.2549605992
     10  H        -2.0849813863    1.6951610538   -0.0680745754
     11  H        -1.3320673684    0.6606164297   -1.3050095596
   Point Group: c1    Number of degrees of freedom:    27


   Energy is   -317.491020794

              Constraints and their Current Values
                                        Value     Constraint
   Distance(Angs):        2   4             3.001726     3.000000
 Hessian Updated using BFGS Update

   Using Lagrange Multiplier Algorithm


 23 Hessian modes will be used to form the next step
  Hessian Eigenvalues:
    -0.994090    0.044999    0.045014    0.045404    0.054528    0.062796
     0.080729    0.094065    0.095581    0.159987    0.160364    0.221346
     0.228889    0.335773    0.336921    0.342546    0.345077    0.348540
     0.352697    0.380195    0.453627    0.626907    1.006866

 Minimum Search - Taking P-RFO Step
 Searching for Lamda that Maximizes Along the Constraint modes Only
 Value Taken    Lamda =   0.00000345
 Searching for Lamda that Minimizes Along All other modes
 Value Taken    Lamda =  -0.00011317
 Step Taken.  Stepsize is  0.032550

                             Maximum     Tolerance    Cnvgd?
         Gradient            0.003261       0.000300      NO
         Displacement        0.022725       0.001200      NO
         Energy change      0.000283       0.000001      NO


 New Cartesian Coordinates Obtained by Inverse Iteration

 Displacement from previous Coordinates is:  0.104036
 ----------------------------------------------------------------
             Standard Nuclear Orientation (Angstroms)
    I     Atom           X                Y                Z
 ----------------------------------------------------------------
    1      F      -0.3840613028    -1.1043298925     0.5050106897
    2      F       1.0167085129    -0.3049219262    -1.5612007205
    3      C      -0.7070472486     0.2531653820     0.6819994207
    4      C       0.4487004071     1.0529010889     1.0529309383
    5      C      -1.7561394401     0.6830144456    -0.2816939668
    6      H       0.6503042606    -0.8739697047    -0.9171626187
    7      H       1.1870582009     1.3116496637     0.2948428820
    8      H       0.6554183695     1.3159027822     2.0863337404
    9      H      -2.6182307944     0.0086172895    -0.2492771446
   10      H      -2.0919717154     1.6980475848    -0.0565983049
   11      H      -1.3470362498     0.6703272866    -1.3034779156
 ----------------------------------------------------------------
 Nuclear Repulsion Energy =   178.9816203052 hartrees
 There are       22 alpha and       20 beta electrons

                       Distance Matrix (Angstroms)
             F (  1)   F (  2)   C (  3)   C (  4)   C (  5)   H (  6)
   F (  2)  2.621152
   C (  3)  1.406570  2.883529
   C (  4)  2.376416  3.000000  1.453589
   C (  5)  2.386651  3.209648  1.487975  2.603720
   H (  6)  1.773571  0.934266  2.381209  2.763104  2.935812
   H (  7)  2.889558  2.467229  2.204068  1.089413  3.064309  2.556168
   H (  8)  3.072235  4.007756  2.226629  1.086197  3.438563  3.717063
   H (  9)  2.607511  3.877143  2.140024  3.491753  1.095018  3.450848
   H ( 10)  3.329517  3.992444  2.133360  2.846451  1.092586  3.856932
   H ( 11)  2.710601  2.569985  2.127376  2.987256  1.100713  2.554107
             H (  7)   H (  8)   H (  9)   H ( 10)
   H (  8)  1.868716
   H (  9)  4.058840  4.228576
   H ( 10)  3.320369  3.505188  1.779957
   H ( 11)  3.063912  3.989664  1.779083  1.779283
 
 Applying Cartesian multipole field
    Component          Value
    ---------          -----
     (2,0,0)        1.00000E-11
     (0,2,0)        2.00000E-11
     (0,0,2)       -3.00000E-11
 Nucleus-field energy     =    -0.0000000006 hartrees
 Requested basis set is 6-31G(d,p)
 There are 38 shells and 105 basis functions
 A cutoff of  1.0D-14 yielded    721 shell pairs
 There are      5653 function pairs
 Smallest overlap matrix eigenvalue = 4.36E-03
 Guess from superposition of atomic densities
 Warning:  Energy on first SCF cycle will be non-variational
 SAD guess density has 42.000000 electrons

 -----------------------------------------------------------------------
  General SCF calculation program by
  Eric Jon Sundstrom, Paul Horn, Yuezhi Mao, Dmitri Zuev, Alec White,
  David Stuck, Shaama M.S., Shane Yost, Joonho Lee, David Small,
  Daniel Levine, Susi Lehtola, Hugh Burton, Evgeny Epifanovsky
 -----------------------------------------------------------------------
 Exchange:     0.2000 Hartree-Fock + 0.0800 Slater + 0.7200 B88
 Correlation:  0.1900 VWN1RPA + 0.8100 LYP
 Using SG-1 standard quadrature grid
 using 12 threads for integral computing
 -------------------------------------------------------
 OpenMP Integral computing Module                
 Release: version 1.0, May 2013, Q-Chem Inc. Pittsburgh 
 -------------------------------------------------------
 -------------------------------------------------------
 OpenMP BLAS3 based DFT computing Module                
 Release: version 1.0, May 2013, Q-Chem Inc. Pittsburgh 
 -------------------------------------------------------
 A unrestricted SCF calculation will be
 performed using DIIS
 SCF converges when DIIS error is below 1.0e-06
 Alpha HF Exchange    Energy =  -3.74945134244268
 Beta HF Exchange     Energy =  -3.74945134244268
 DFT Correlation      Energy =  -1.84387753068008
 DFT Exchange         Energy = -29.59928350265034
 One-Electron (alpha) Energy = -394.30750671450573
 One-Electron (beta)  Energy = -394.30750671450573
 Total Coulomb        Energy = 330.69020515063636
 ---------------------------------------
  Cycle       Energy         DIIS error
 ---------------------------------------
    1    -317.8852516920      2.91e-02  
 Alpha HF Exchange    Energy =  -3.91529797955079
 Beta HF Exchange     Energy =  -3.71620610205241
 DFT Correlation      Energy =  -1.86067816735764
 DFT Exchange         Energy = -30.32626475668905
 One-Electron (alpha) Energy = -409.98160383842816
 One-Electron (beta)  Energy = -385.04025757914746
 Total Coulomb        Energy = 338.45169882877485
    2    -317.4069892899      4.26e-03  
 Alpha HF Exchange    Energy =  -3.83840987273445
 Beta HF Exchange     Energy =  -3.64122716638877
 DFT Correlation      Energy =  -1.83578978508189
 DFT Exchange         Energy = -29.71395379454484
 One-Electron (alpha) Energy = -406.93430873922404
 One-Electron (beta)  Energy = -381.96971449709076
 Total Coulomb        Energy = 331.54899476117492
    3    -317.4027887893      4.63e-03  
 Alpha HF Exchange    Energy =  -3.87803812325547
 Beta HF Exchange     Energy =  -3.68103314754260
 DFT Correlation      Energy =  -1.84694399763377
 DFT Exchange         Energy = -30.02721361555993
 One-Electron (alpha) Energy = -408.51845235708225
 One-Electron (beta)  Energy = -383.48075399332555
 Total Coulomb        Energy = 334.96052076238448
    4    -317.4902941674      4.12e-04  
 Alpha HF Exchange    Energy =  -3.87908012237425
 Beta HF Exchange     Energy =  -3.68103202931103
 DFT Correlation      Energy =  -1.84725136653875
 DFT Exchange         Energy = -30.03177298648636
 One-Electron (alpha) Energy = -408.61107310419283
 One-Electron (beta)  Energy = -383.51677704847867
 Total Coulomb        Energy = 335.09445401766766
    5    -317.4909123351      1.84e-04  
 Alpha HF Exchange    Energy =  -3.87877283838975
 Beta HF Exchange     Energy =  -3.68082162857080
 DFT Correlation      Energy =  -1.84688355546891
 DFT Exchange         Energy = -30.02896810382382
 One-Electron (alpha) Energy = -408.58133123279947
 One-Electron (beta)  Energy = -383.47508453160191
 Total Coulomb        Energy = 335.01917113448144
    6    -317.4910704516      3.96e-05  
 Alpha HF Exchange    Energy =  -3.87881536097250
 Beta HF Exchange     Energy =  -3.68100545899884
 DFT Correlation      Energy =  -1.84683477525995
 DFT Exchange         Energy = -30.02960530615512
 One-Electron (alpha) Energy = -408.58471780750955
 One-Electron (beta)  Energy = -383.47518827010140
 Total Coulomb        Energy = 335.02346882126915
    7    -317.4910778532      2.26e-05  
 Alpha HF Exchange    Energy =  -3.87879911460937
 Beta HF Exchange     Energy =  -3.68092386550578
 DFT Correlation      Energy =  -1.84683282376705
 DFT Exchange         Energy = -30.02928961223423
 One-Electron (alpha) Energy = -408.58703217218988
 One-Electron (beta)  Energy = -383.47364849181884
 Total Coulomb        Energy = 335.02382550089106
    8    -317.4910802747      7.81e-06  
 Alpha HF Exchange    Energy =  -3.87883485554026
 Beta HF Exchange     Energy =  -3.68097756859881
 DFT Correlation      Energy =  -1.84682615591833
 DFT Exchange         Energy = -30.02959511451926
 One-Electron (alpha) Energy = -408.58808926867079
 One-Electron (beta)  Energy = -383.47397073114058
 Total Coulomb        Energy = 335.02559282092938
    9    -317.4910805689      3.77e-06  
 Alpha HF Exchange    Energy =  -3.87881171242588
 Beta HF Exchange     Energy =  -3.68096329971867
 DFT Correlation      Energy =  -1.84682095734454
 DFT Exchange         Energy = -30.02945191829183
 One-Electron (alpha) Energy = -408.58741244415319
 One-Electron (beta)  Energy = -383.47315081668961
 Total Coulomb        Energy = 335.02391020316128
   10    -317.4910806409      6.47e-07  Convergence criterion met
 ---------------------------------------
 SCF time:   CPU 22.61s  wall 2.00s 
<S^2> =          2.004265671
 Alpha HF Exchange    Energy =  -3.87881171242588
 Beta HF Exchange     Energy =  -3.68096329971867
 DFT Correlation      Energy =  -1.84682095734454
 DFT Exchange         Energy = -30.02945191829183
 One-Electron (alpha) Energy = -408.58741244415319
 One-Electron (beta)  Energy = -383.47315081668961
 Total Coulomb        Energy = 335.02391020316128
 Nuclear repulsion Energy = 178.98162030457146
 SCF   energy in the final basis set =     -317.4910806409
 Total energy in the final basis set =     -317.4910806409
 
 --------------------------------------------------------------
 
                    Orbital Energies (a.u.)
 --------------------------------------------------------------
 
 Alpha MOs
 -- Occupied --
-24.715 -24.654 -10.279 -10.217 -10.197  -1.216  -1.157  -0.800
 -0.714  -0.595  -0.527  -0.495  -0.480  -0.477  -0.431  -0.414
 -0.404  -0.372  -0.369  -0.368  -0.246  -0.209
 -- Virtual --
  0.099   0.123   0.132   0.154   0.169   0.171   0.211   0.227
  0.294   0.485   0.525   0.545   0.547   0.563   0.575   0.602
  0.676   0.735   0.792   0.808   0.829   0.859   0.878   0.897
  0.921   0.998   1.095   1.157   1.203   1.244   1.244   1.329
  1.357   1.374   1.441   1.467   1.559   1.608   1.635   1.654
  1.725   1.739   1.757   1.811   1.861   1.883   1.898   1.905
  1.972   1.984   2.023   2.033   2.041   2.075   2.090   2.190
  2.221   2.327   2.386   2.421   2.537   2.583   2.605   2.613
  2.653   2.741   2.754   2.805   2.859   2.893   2.932   3.094
  3.181   3.299   3.402   3.414   3.476   3.708   3.836   4.135
  4.363   4.540   4.624
 
 Beta MOs
 -- Occupied --
-24.711 -24.654 -10.265 -10.204 -10.197  -1.205  -1.156  -0.773
 -0.688  -0.573  -0.520  -0.480  -0.465  -0.456  -0.416  -0.404
 -0.399  -0.368  -0.367  -0.361
 -- Virtual --
 -0.084  -0.054   0.106   0.137   0.145   0.160   0.177   0.188
  0.229   0.244   0.312   0.505   0.554   0.567   0.568   0.587
  0.614   0.627   0.695   0.746   0.797   0.820   0.838   0.866
  0.890   0.912   0.929   1.019   1.101   1.161   1.213   1.246
  1.258   1.339   1.367   1.387   1.469   1.487   1.583   1.618
  1.641   1.666   1.735   1.753   1.783   1.826   1.865   1.887
  1.910   1.913   1.998   2.016   2.030   2.047   2.058   2.087
  2.105   2.204   2.238   2.338   2.403   2.452   2.568   2.602
  2.614   2.628   2.665   2.742   2.768   2.812   2.870   2.895
  2.945   3.104   3.187   3.311   3.409   3.420   3.487   3.709
  3.837   4.161   4.388   4.554   4.637
 --------------------------------------------------------------
 
          Ground-State Mulliken Net Atomic Charges

     Atom                 Charge (a.u.)    Spin (a.u.)
  --------------------------------------------------------
      1 F                    -0.306650       0.083303
      2 F                    -0.374783       0.000470
      3 C                     0.282379       0.880718
      4 C                    -0.258490       1.002209
      5 C                    -0.369656      -0.048205
      6 H                     0.355295       0.004364
      7 H                     0.144713       0.011327
      8 H                     0.129263      -0.021411
      9 H                     0.131321       0.022052
     10 H                     0.126646       0.002714
     11 H                     0.139961       0.062459
  --------------------------------------------------------
  Sum of atomic charges =    -0.000000
  Sum of spin   charges =     2.000000

 -----------------------------------------------------------------
                    Cartesian Multipole Moments
 -----------------------------------------------------------------
    Charge (ESU x 10^10)
                 0.0000
    Dipole Moment (Debye)
         X      -1.0175      Y       0.7757      Z       1.1133
       Tot       1.6960
    Quadrupole Moments (Debye-Ang)
        XX     -28.5559     XY      -0.4915     YY     -28.4501
        XZ       2.7536     YZ       1.3361     ZZ     -31.4780
    Octopole Moments (Debye-Ang^2)
       XXX      24.9274    XXY      -5.2401    XYY      10.8145
       YYY     -20.4558    XXZ      -1.0180    XYZ       0.3175
       YYZ      -3.5490    XZZ       8.0940    YZZ      -4.3582
       ZZZ       0.2716
    Hexadecapole Moments (Debye-Ang^3)
      XXXX    -235.8938   XXXY      19.2131   XXYY     -60.4990
      XYYY      14.1812   YYYY    -144.8626   XXXZ      12.6237
      XXYZ      -7.7360   XYYZ       3.3736   YYYZ     -20.3543
      XXZZ     -76.5158   XYZZ       8.9738   YYZZ     -52.9174
      XZZZ      18.9751   YZZZ     -19.5135   ZZZZ    -185.2618
 -----------------------------------------------------------------
 Calculating analytic gradient of the SCF energy
 Gradient of SCF Energy
            1           2           3           4           5           6
    1   0.0003915  -0.0006848   0.0000559  -0.0001277   0.0001157   0.0001188
    2   0.0008110   0.0005301  -0.0010093  -0.0012229   0.0005037   0.0005642
    3   0.0005529   0.0022361  -0.0006304  -0.0013622  -0.0002078  -0.0005623
            7           8           9          10          11
    1   0.0001149   0.0001218  -0.0000292  -0.0000017  -0.0000751
    2  -0.0000067   0.0000082  -0.0000249  -0.0000289  -0.0001245
    3  -0.0000803  -0.0000307   0.0000211  -0.0000194   0.0000831
 Max gradient component =       2.236E-03
 RMS gradient           =       6.198E-04
 Gradient time:  CPU 8.39 s  wall 0.73 s
 Geometry Optimization Parameters
   NAtoms,    NIC,     NZ,  NCons,   NDum,   NFix, NCnnct, MaxDiis
       11      59       0       1       0       0       0       0

 Cartesian Hessian Update
 Hessian Updated using BFGS Update


** CONSTRAINED OPTIMIZATION IN DELOCALIZED INTERNAL COORDINATES **
   Searching for a Minimum

   Optimization Cycle:   3

                       Coordinates (Angstroms)
     ATOM                X               Y               Z
      1  F        -0.3840613028   -1.1043298925    0.5050106897
      2  F         1.0167085129   -0.3049219262   -1.5612007205
      3  C        -0.7070472486    0.2531653820    0.6819994207
      4  C         0.4487004071    1.0529010889    1.0529309383
      5  C        -1.7561394401    0.6830144456   -0.2816939668
      6  H         0.6503042606   -0.8739697047   -0.9171626187
      7  H         1.1870582009    1.3116496637    0.2948428820
      8  H         0.6554183695    1.3159027822    2.0863337404
      9  H        -2.6182307944    0.0086172895   -0.2492771446
     10  H        -2.0919717154    1.6980475848   -0.0565983049
     11  H        -1.3470362498    0.6703272866   -1.3034779156
   Point Group: c1    Number of degrees of freedom:    27


   Energy is   -317.491080641

              Constraints and their Current Values
                                        Value     Constraint
   Distance(Angs):        2   4             3.000000     3.000000
 Hessian Updated using BFGS Update

 23 Hessian modes will be used to form the next step
  Hessian Eigenvalues:
     0.042795    0.045000    0.045040    0.045355    0.052634    0.057656
     0.072053    0.094225    0.095293    0.159011    0.160004    0.160450
     0.215591    0.230314    0.336075    0.337603    0.342634    0.345097
     0.348073    0.352707    0.382787    0.433908    0.617387

 Minimum Search - Taking Simple RFO Step
 Searching for Lamda that Minimizes Along All modes
 Value Taken    Lamda =  -0.00002064
 Step Taken.  Stepsize is  0.017828

                             Maximum     Tolerance    Cnvgd?
         Gradient           0.000745      0.000300      NO
         Displacement       0.009378      0.001200      NO
         Energy change     -0.000060      0.000001      NO


 New Cartesian Coordinates Obtained by Inverse Iteration

 Displacement from previous Coordinates is:  0.046147
 ----------------------------------------------------------------
             Standard Nuclear Orientation (Angstroms)
    I     Atom           X                Y                Z
 ----------------------------------------------------------------
    1      F      -0.3890786362    -1.1053372668     0.4985030014
    2      F       1.0319162037    -0.3108339289    -1.5572519888
    3      C      -0.7080762021     0.2537990146     0.6810248873
    4      C       0.4488370744     1.0535007353     1.0501625420
    5      C      -1.7593846083     0.6844854129    -0.2792708436
    6      H       0.6567715628    -0.8790127314    -0.9164318384
    7      H       1.1846538000     1.3154710940     0.2911375697
    8      H       0.6562885945     1.3148224124     2.0838661094
    9      H      -2.6208738460     0.0094423554    -0.2469658423
   10      H      -2.0953994823     1.6988026241    -0.0510172801
   11      H      -1.3519514603     0.6752642784    -1.3020493165
 ----------------------------------------------------------------
 Nuclear Repulsion Energy =   178.8289421398 hartrees
 There are       22 alpha and       20 beta electrons

                       Distance Matrix (Angstroms)
             F (  1)   F (  2)   C (  3)   C (  4)   C (  5)   H (  6)
   F (  2)  2.622325
   C (  3)  1.407951  2.890721
   C (  4)  2.380549  3.000000  1.454041
   C (  5)  2.384562  3.227268  1.487585  2.603807
   H (  6)  1.773997  0.934993  2.387036  2.765021  2.947594
   H (  7)  2.894814  2.466727  2.204901  1.089116  3.064453  2.559813
   H (  8)  3.076254  4.005196  2.226034  1.086217  3.437618  3.716813
   H (  9)  2.603722  3.893880  2.140017  3.492238  1.094939  3.461285
   H ( 10)  3.328168  4.010921  2.132742  2.846428  1.092632  3.868917
   H ( 11)  2.709180  2.592362  2.127156  2.986436  1.100983  2.568939
             H (  7)   H (  8)   H (  9)   H ( 10)
   H (  8)  1.868969
   H (  9)  4.059225  4.228071
   H ( 10)  3.320055  3.503849  1.780016
   H ( 11)  3.063083  3.988294  1.779518  1.779165
 
 Applying Cartesian multipole field
    Component          Value
    ---------          -----
     (2,0,0)        1.00000E-11
     (0,2,0)        2.00000E-11
     (0,0,2)       -3.00000E-11
 Nucleus-field energy     =    -0.0000000005 hartrees
 Requested basis set is 6-31G(d,p)
 There are 38 shells and 105 basis functions
 A cutoff of  1.0D-14 yielded    721 shell pairs
 There are      5653 function pairs
 Smallest overlap matrix eigenvalue = 4.38E-03
 Guess from superposition of atomic densities
 Warning:  Energy on first SCF cycle will be non-variational
 SAD guess density has 42.000000 electrons

 -----------------------------------------------------------------------
  General SCF calculation program by
  Eric Jon Sundstrom, Paul Horn, Yuezhi Mao, Dmitri Zuev, Alec White,
  David Stuck, Shaama M.S., Shane Yost, Joonho Lee, David Small,
  Daniel Levine, Susi Lehtola, Hugh Burton, Evgeny Epifanovsky
 -----------------------------------------------------------------------
 Exchange:     0.2000 Hartree-Fock + 0.0800 Slater + 0.7200 B88
 Correlation:  0.1900 VWN1RPA + 0.8100 LYP
 Using SG-1 standard quadrature grid
 using 12 threads for integral computing
 -------------------------------------------------------
 OpenMP Integral computing Module                
 Release: version 1.0, May 2013, Q-Chem Inc. Pittsburgh 
 -------------------------------------------------------
 -------------------------------------------------------
 OpenMP BLAS3 based DFT computing Module                
 Release: version 1.0, May 2013, Q-Chem Inc. Pittsburgh 
 -------------------------------------------------------
 A unrestricted SCF calculation will be
 performed using DIIS
 SCF converges when DIIS error is below 1.0e-06
 Alpha HF Exchange    Energy =  -3.74916330588862
 Beta HF Exchange     Energy =  -3.74916330588862
 DFT Correlation      Energy =  -1.84374991735494
 DFT Exchange         Energy = -29.59867125360169
 One-Electron (alpha) Energy = -394.15645131113212
 One-Electron (beta)  Energy = -394.15645131113212
 Total Coulomb        Energy = 330.54214407761583
 ---------------------------------------
  Cycle       Energy         DIIS error
 ---------------------------------------
    1    -317.8825641881      2.91e-02  
 Alpha HF Exchange    Energy =  -3.91521184898623
 Beta HF Exchange     Energy =  -3.71618264318593
 DFT Correlation      Energy =  -1.86057651835539
 DFT Exchange         Energy = -30.32589736326194
 One-Electron (alpha) Energy = -409.82813445213583
 One-Electron (beta)  Energy = -384.89671494950341
 Total Coulomb        Energy = 338.30678963740786
    2    -317.4069859988      4.26e-03  
 Alpha HF Exchange    Energy =  -3.83823359589405
 Beta HF Exchange     Energy =  -3.64103807853270
 DFT Correlation      Energy =  -1.83566256506189
 DFT Exchange         Energy = -29.71268716403888
 One-Electron (alpha) Energy = -406.77832626848868
 One-Electron (beta)  Energy = -381.82180939128557
 Total Coulomb        Energy = 331.39611529529600
    3    -317.4026996288      4.64e-03  
 Alpha HF Exchange    Energy =  -3.87793735375660
 Beta HF Exchange     Energy =  -3.68096305817012
 DFT Correlation      Energy =  -1.84683241237245
 DFT Exchange         Energy = -30.02665104694582
 One-Electron (alpha) Energy = -408.36444889088369
 One-Electron (beta)  Energy = -383.33594526458751
 Total Coulomb        Energy = 334.81352837474810
    4    -317.4903075127      4.11e-04  
 Alpha HF Exchange    Energy =  -3.87896054123951
 Beta HF Exchange     Energy =  -3.68093034761926
 DFT Correlation      Energy =  -1.84713942468009
 DFT Exchange         Energy = -30.03103424012958
 One-Electron (alpha) Energy = -408.45665258266831
 One-Electron (beta)  Energy = -383.37130282014937
 Total Coulomb        Energy = 334.94615334063553
    5    -317.4909244766      1.83e-04  
 Alpha HF Exchange    Energy =  -3.87866768945508
 Beta HF Exchange     Energy =  -3.68074384104498
 DFT Correlation      Energy =  -1.84677165283574
 DFT Exchange         Energy = -30.02836218122922
 One-Electron (alpha) Energy = -408.42716037860225
 One-Electron (beta)  Energy = -383.33011750891575
 Total Coulomb        Energy = 334.87179864803403
    6    -317.4910824648      3.89e-05  
 Alpha HF Exchange    Energy =  -3.87870089762010
 Beta HF Exchange     Energy =  -3.68091349970068
 DFT Correlation      Energy =  -1.84672293889730
 DFT Exchange         Energy = -30.02891770918544
 One-Electron (alpha) Energy = -408.43044860981536
 One-Electron (beta)  Energy = -383.32997119592488
 Total Coulomb        Energy = 334.87564293561763
    7    -317.4910897763      2.18e-05  
 Alpha HF Exchange    Energy =  -3.87868966672090
 Beta HF Exchange     Energy =  -3.68083793776517
 DFT Correlation      Energy =  -1.84672121568338
 DFT Exchange         Energy = -30.02864182960440
 One-Electron (alpha) Energy = -408.43282496812054
 One-Electron (beta)  Energy = -383.32855842842832
 Total Coulomb        Energy = 334.87623984740270
    8    -317.4910920597      7.83e-06  
 Alpha HF Exchange    Energy =  -3.87872425344557
 Beta HF Exchange     Energy =  -3.68089188400529
 DFT Correlation      Energy =  -1.84671440927393
 DFT Exchange         Energy = -30.02894310652669
 One-Electron (alpha) Energy = -408.43382038635974
 One-Electron (beta)  Energy = -383.32887591123171
 Total Coulomb        Energy = 334.87793546041451
    9    -317.4910923512      3.81e-06  
 Alpha HF Exchange    Energy =  -3.87870096120678
 Beta HF Exchange     Energy =  -3.68087700578887
 DFT Correlation      Energy =  -1.84670930517764
 DFT Exchange         Energy = -30.02879758478871
 One-Electron (alpha) Energy = -408.43314703295505
 One-Electron (beta)  Energy = -383.32805499073061
 Total Coulomb        Energy = 334.87625231811552
   10    -317.4910924233      6.49e-07  Convergence criterion met
 ---------------------------------------
 SCF time:   CPU 23.69s  wall 2.00s 
<S^2> =          2.004263449
 Alpha HF Exchange    Energy =  -3.87870096120678
 Beta HF Exchange     Energy =  -3.68087700578887
 DFT Correlation      Energy =  -1.84670930517764
 DFT Exchange         Energy = -30.02879758478871
 One-Electron (alpha) Energy = -408.43314703295505
 One-Electron (beta)  Energy = -383.32805499073061
 Total Coulomb        Energy = 334.87625231811552
 Nuclear repulsion Energy = 178.82894213925013
 SCF   energy in the final basis set =     -317.4910924233
 Total energy in the final basis set =     -317.4910924233
 
 --------------------------------------------------------------
 
                    Orbital Energies (a.u.)
 --------------------------------------------------------------
 
 Alpha MOs
 -- Occupied --
-24.715 -24.653 -10.279 -10.217 -10.197  -1.215  -1.156  -0.800
 -0.714  -0.595  -0.527  -0.495  -0.480  -0.477  -0.431  -0.414
 -0.404  -0.372  -0.368  -0.367  -0.246  -0.209
 -- Virtual --
  0.099   0.123   0.131   0.153   0.169   0.171   0.211   0.226
  0.294   0.485   0.525   0.545   0.547   0.563   0.575   0.602
  0.676   0.735   0.793   0.808   0.829   0.859   0.878   0.897
  0.921   0.999   1.095   1.157   1.202   1.243   1.244   1.329
  1.356   1.374   1.441   1.466   1.558   1.609   1.635   1.653
  1.726   1.740   1.755   1.812   1.862   1.883   1.897   1.905
  1.971   1.983   2.023   2.031   2.040   2.075   2.090   2.191
  2.221   2.327   2.386   2.420   2.537   2.583   2.604   2.611
  2.653   2.741   2.754   2.805   2.859   2.891   2.932   3.093
  3.181   3.299   3.402   3.414   3.476   3.708   3.835   4.134
  4.363   4.539   4.620
 
 Beta MOs
 -- Occupied --
-24.711 -24.653 -10.265 -10.204 -10.197  -1.204  -1.156  -0.773
 -0.688  -0.573  -0.520  -0.480  -0.464  -0.456  -0.416  -0.404
 -0.399  -0.368  -0.367  -0.361
 -- Virtual --
 -0.085  -0.054   0.105   0.137   0.145   0.160   0.177   0.188
  0.229   0.244   0.311   0.505   0.554   0.567   0.568   0.587
  0.614   0.626   0.695   0.746   0.797   0.820   0.837   0.866
  0.890   0.912   0.929   1.019   1.101   1.161   1.212   1.245
  1.258   1.339   1.367   1.386   1.469   1.487   1.581   1.619
  1.641   1.666   1.736   1.753   1.781   1.827   1.866   1.887
  1.910   1.913   1.997   2.015   2.030   2.047   2.056   2.086
  2.105   2.205   2.237   2.337   2.402   2.451   2.568   2.601
  2.612   2.627   2.665   2.741   2.768   2.811   2.870   2.893
  2.945   3.103   3.186   3.312   3.409   3.420   3.487   3.708
  3.836   4.160   4.387   4.552   4.633
 --------------------------------------------------------------
 
          Ground-State Mulliken Net Atomic Charges

     Atom                 Charge (a.u.)    Spin (a.u.)
  --------------------------------------------------------
      1 F                    -0.307129       0.083244
      2 F                    -0.375747       0.000532
      3 C                     0.282540       0.880962
      4 C                    -0.258335       1.001914
      5 C                    -0.369315      -0.048119
      6 H                     0.355519       0.004352
      7 H                     0.145180       0.011224
      8 H                     0.129400      -0.021449
      9 H                     0.131582       0.022032
     10 H                     0.126571       0.002731
     11 H                     0.139734       0.062577
  --------------------------------------------------------
  Sum of atomic charges =    -0.000000
  Sum of spin   charges =     2.000000

 -----------------------------------------------------------------
                    Cartesian Multipole Moments
 -----------------------------------------------------------------
    Charge (ESU x 10^10)
                 0.0000
    Dipole Moment (Debye)
         X      -1.0354      Y       0.7898      Z       1.1178
       Tot       1.7161
    Quadrupole Moments (Debye-Ang)
        XX     -28.5905     XY      -0.4870     YY     -28.4382
        XZ       2.7817     YZ       1.3263     ZZ     -31.4582
    Octopole Moments (Debye-Ang^2)
       XXX      24.7460    XXY      -5.1939    XYY      10.8190
       YYY     -20.4056    XXZ      -0.9270    XYZ       0.2898
       YYZ      -3.5271    XZZ       8.0323    YZZ      -4.3312
       ZZZ       0.2900
    Hexadecapole Moments (Debye-Ang^3)
      XXXX    -237.4954   XXXY      19.4677   XXYY     -60.8255
      XYYY      14.3971   YYYY    -145.2051   XXXZ      13.1130
      XXYZ      -7.8234   XYYZ       3.4940   YYYZ     -20.5129
      XXZZ     -76.7137   XYZZ       9.0715   YYZZ     -52.8380
      XZZZ      19.4412   YZZZ     -19.7291   ZZZZ    -184.3282
 -----------------------------------------------------------------
 Calculating analytic gradient of the SCF energy
 Gradient of SCF Energy
            1           2           3           4           5           6
    1   0.0000832  -0.0002134  -0.0001250   0.0003125   0.0000943  -0.0001619
    2   0.0000382   0.0009436  -0.0002368  -0.0007256   0.0000413   0.0000357
    3   0.0001935   0.0016401  -0.0003195  -0.0014733  -0.0000610  -0.0000902
            7           8           9          10          11
    1  -0.0000047   0.0000453  -0.0000583   0.0000528  -0.0000248
    2   0.0000155  -0.0000266   0.0000153  -0.0000359  -0.0000647
    3   0.0000333   0.0000064   0.0000238   0.0000434   0.0000037
 Max gradient component =       1.640E-03
 RMS gradient           =       4.509E-04
 Gradient time:  CPU 8.40 s  wall 0.74 s
 Geometry Optimization Parameters
   NAtoms,    NIC,     NZ,  NCons,   NDum,   NFix, NCnnct, MaxDiis
       11      59       0       1       0       0       0       0

 Cartesian Hessian Update
 Hessian Updated using BFGS Update


** CONSTRAINED OPTIMIZATION IN DELOCALIZED INTERNAL COORDINATES **
   Searching for a Minimum

   Optimization Cycle:   4

                       Coordinates (Angstroms)
     ATOM                X               Y               Z
      1  F        -0.3890786362   -1.1053372668    0.4985030014
      2  F         1.0319162037   -0.3108339289   -1.5572519888
      3  C        -0.7080762021    0.2537990146    0.6810248873
      4  C         0.4488370744    1.0535007353    1.0501625420
      5  C        -1.7593846083    0.6844854129   -0.2792708436
      6  H         0.6567715628   -0.8790127314   -0.9164318384
      7  H         1.1846538000    1.3154710940    0.2911375697
      8  H         0.6562885945    1.3148224124    2.0838661094
      9  H        -2.6208738460    0.0094423554   -0.2469658423
     10  H        -2.0953994823    1.6988026241   -0.0510172801
     11  H        -1.3519514603    0.6752642784   -1.3020493165
   Point Group: c1    Number of degrees of freedom:    27


   Energy is   -317.491092423

              Constraints and their Current Values
                                        Value     Constraint
   Distance(Angs):        2   4             3.000000     3.000000
 Hessian Updated using BFGS Update

 24 Hessian modes will be used to form the next step
  Hessian Eigenvalues:
     0.033813    0.045002    0.045037    0.045383    0.055494    0.058544
     0.069235    0.094443    0.095602    0.156257    0.160000    0.160210
     0.161543    0.220129    0.229461    0.335893    0.340555    0.342515
     0.345036    0.348258    0.352708    0.386098    0.433005    0.629263

 Minimum Search - Taking Simple RFO Step
 Searching for Lamda that Minimizes Along All modes
 Value Taken    Lamda =  -0.00000204
 Step Taken.  Stepsize is  0.006977

                             Maximum     Tolerance    Cnvgd?
         Gradient           0.000210      0.000300     YES
         Displacement       0.004104      0.001200      NO
         Energy change     -0.000012      0.000001      NO


 New Cartesian Coordinates Obtained by Inverse Iteration

 Displacement from previous Coordinates is:  0.012134
 ----------------------------------------------------------------
             Standard Nuclear Orientation (Angstroms)
    I     Atom           X                Y                Z
 ----------------------------------------------------------------
    1      F      -0.3898995976    -1.1052404241     0.4968248742
    2      F       1.0348220319    -0.3128034429    -1.5564159353
    3      C      -0.7082468803     0.2541503048     0.6810603268
    4      C       0.4490429435     1.0533749308     1.0494275737
    5      C      -1.7602225360     0.6851744866    -0.2784980364
    6      H       0.6585872340    -0.8805390642    -0.9158347440
    7      H       1.1842262560     1.3158949088     0.2900212517
    8      H       0.6564050377     1.3147284684     2.0831473190
    9      H      -2.6207717046     0.0089921049    -0.2470986551
   10      H      -2.0976069189     1.6989627696    -0.0496372830
   11      H      -1.3526328657     0.6777089572    -1.3012896914
 ----------------------------------------------------------------
 Nuclear Repulsion Energy =   178.8039365513 hartrees
 There are       22 alpha and       20 beta electrons

                       Distance Matrix (Angstroms)
             F (  1)   F (  2)   C (  3)   C (  4)   C (  5)   H (  6)
   F (  2)  2.621752
   C (  3)  1.408272  2.892408
   C (  4)  2.380927  3.000000  1.453882
   C (  5)  2.384218  3.231301  1.487678  2.603807
   H (  6)  1.773534  0.934998  2.388688  2.765174  2.950982
   H (  7)  2.895261  2.466639  2.204919  1.089086  3.064441  2.560216
   H (  8)  3.076918  4.004807  2.225522  1.086223  3.437120  3.716598
   H (  9)  2.602254  3.896310  2.139938  3.492202  1.094876  3.463043
   H ( 10)  3.328429  4.016179  2.133477  2.847833  1.092690  3.873078
   H ( 11)  2.709055  2.597334  2.127051  2.985470  1.101039  2.573270
             H (  7)   H (  8)   H (  9)   H ( 10)
   H (  8)  1.869197
   H (  9)  4.058879  4.227870
   H ( 10)  3.321526  3.504424  1.780082
   H ( 11)  3.061896  3.987034  1.779516  1.778926
 
 Applying Cartesian multipole field
    Component          Value
    ---------          -----
     (2,0,0)        1.00000E-11
     (0,2,0)        2.00000E-11
     (0,0,2)       -3.00000E-11
 Nucleus-field energy     =    -0.0000000005 hartrees
 Requested basis set is 6-31G(d,p)
 There are 38 shells and 105 basis functions
 A cutoff of  1.0D-14 yielded    721 shell pairs
 There are      5653 function pairs
 Smallest overlap matrix eigenvalue = 4.38E-03
 Guess from superposition of atomic densities
 Warning:  Energy on first SCF cycle will be non-variational
 SAD guess density has 42.000000 electrons

 -----------------------------------------------------------------------
  General SCF calculation program by
  Eric Jon Sundstrom, Paul Horn, Yuezhi Mao, Dmitri Zuev, Alec White,
  David Stuck, Shaama M.S., Shane Yost, Joonho Lee, David Small,
  Daniel Levine, Susi Lehtola, Hugh Burton, Evgeny Epifanovsky
 -----------------------------------------------------------------------
 Exchange:     0.2000 Hartree-Fock + 0.0800 Slater + 0.7200 B88
 Correlation:  0.1900 VWN1RPA + 0.8100 LYP
 Using SG-1 standard quadrature grid
 using 12 threads for integral computing
 -------------------------------------------------------
 OpenMP Integral computing Module                
 Release: version 1.0, May 2013, Q-Chem Inc. Pittsburgh 
 -------------------------------------------------------
 -------------------------------------------------------
 OpenMP BLAS3 based DFT computing Module                
 Release: version 1.0, May 2013, Q-Chem Inc. Pittsburgh 
 -------------------------------------------------------
 A unrestricted SCF calculation will be
 performed using DIIS
 SCF converges when DIIS error is below 1.0e-06
 Alpha HF Exchange    Energy =  -3.74912206038217
 Beta HF Exchange     Energy =  -3.74912206038217
 DFT Correlation      Energy =  -1.84372946751401
 DFT Exchange         Energy = -29.59859034253884
 One-Electron (alpha) Energy = -394.13159608157906
 One-Electron (beta)  Energy = -394.13159608157906
 Total Coulomb        Energy = 330.51764191325429
 ---------------------------------------
  Cycle       Energy         DIIS error
 ---------------------------------------
    1    -317.8821776299      2.91e-02  
 Alpha HF Exchange    Energy =  -3.91521200193427
 Beta HF Exchange     Energy =  -3.71618290767275
 DFT Correlation      Energy =  -1.86056302180149
 DFT Exchange         Energy = -30.32590840087079
 One-Electron (alpha) Energy = -409.80353427795825
 One-Electron (beta)  Energy = -384.87326745322861
 Total Coulomb        Energy = 338.28374224286745
    2    -317.4069892698      4.26e-03  
 Alpha HF Exchange    Energy =  -3.83821774824740
 Beta HF Exchange     Energy =  -3.64101286256896
 DFT Correlation      Energy =  -1.83564446693477
 DFT Exchange         Energy = -29.71254400548116
 One-Electron (alpha) Energy = -406.75307715310288
 One-Electron (beta)  Energy = -381.79747187942939
 Total Coulomb        Energy = 331.37133728146017
    3    -317.4026942835      4.64e-03  
 Alpha HF Exchange    Energy =  -3.87793169216473
 Beta HF Exchange     Energy =  -3.68095413559401
 DFT Correlation      Energy =  -1.84681662498759
 DFT Exchange         Energy = -30.02660609678336
 One-Electron (alpha) Energy = -408.33955512907954
 One-Electron (beta)  Energy = -383.31214360116371
 Total Coulomb        Energy = 334.78976084132921
    4    -317.4903098877      4.11e-04  
 Alpha HF Exchange    Energy =  -3.87895394628467
 Beta HF Exchange     Energy =  -3.68091805659599
 DFT Correlation      Energy =  -1.84712370191746
 DFT Exchange         Energy = -30.03097456404696
 One-Electron (alpha) Energy = -408.43173586525381
 One-Electron (beta)  Energy = -383.34743525788940
 Total Coulomb        Energy = 334.92227871655433
    5    -317.4909261247      1.83e-04  
 Alpha HF Exchange    Energy =  -3.87866231669955
 Beta HF Exchange     Energy =  -3.68073455744057
 DFT Correlation      Energy =  -1.84675579262248
 DFT Exchange         Energy = -30.02831661291875
 One-Electron (alpha) Energy = -408.40224868638779
 One-Electron (beta)  Energy = -383.30630392540070
 Total Coulomb        Energy = 334.84800131430171
    6    -317.4910840264      3.88e-05  
 Alpha HF Exchange    Energy =  -3.87869439299083
 Beta HF Exchange     Energy =  -3.68090228688044
 DFT Correlation      Energy =  -1.84670714783275
 DFT Exchange         Energy = -30.02886166219147
 One-Electron (alpha) Energy = -408.40553250058912
 One-Electron (beta)  Energy = -383.30613158256716
 Total Coulomb        Energy = 334.85180170234463
    7    -317.4910913199      2.17e-05  
 Alpha HF Exchange    Energy =  -3.87868386412592
 Beta HF Exchange     Energy =  -3.68082758654673
 DFT Correlation      Energy =  -1.84670544173110
 DFT Exchange         Energy = -30.02859137328360
 One-Electron (alpha) Energy = -408.40791470726361
 One-Electron (beta)  Energy = -383.30473468074177
 Total Coulomb        Energy = 334.85242751909686
    8    -317.4910935838      7.83e-06  
 Alpha HF Exchange    Energy =  -3.87871823539037
 Beta HF Exchange     Energy =  -3.68088152299508
 DFT Correlation      Energy =  -1.84669860559684
 DFT Exchange         Energy = -30.02889168803597
 One-Electron (alpha) Energy = -408.40889991345637
 One-Electron (beta)  Energy = -383.30505004486423
 Total Coulomb        Energy = 334.85410958481782
    9    -317.4910938747      3.82e-06  
 Alpha HF Exchange    Energy =  -3.87869493849141
 Beta HF Exchange     Energy =  -3.68086656166156
 DFT Correlation      Energy =  -1.84669352223879
 DFT Exchange         Energy = -30.02874592641768
 One-Electron (alpha) Energy = -408.40822780196146
 One-Electron (beta)  Energy = -383.30422963978168
 Total Coulomb        Energy = 334.85242789294739
   10    -317.4910939468      6.50e-07  Convergence criterion met
 ---------------------------------------
 SCF time:   CPU 23.69s  wall 2.00s 
<S^2> =          2.004261623
 Alpha HF Exchange    Energy =  -3.87869493849141
 Beta HF Exchange     Energy =  -3.68086656166156
 DFT Correlation      Energy =  -1.84669352223879
 DFT Exchange         Energy = -30.02874592641768
 One-Electron (alpha) Energy = -408.40822780196146
 One-Electron (beta)  Energy = -383.30422963978168
 Total Coulomb        Energy = 334.85242789294739
 Nuclear repulsion Energy = 178.80393655078001
 SCF   energy in the final basis set =     -317.4910939468
 Total energy in the final basis set =     -317.4910939468
 
 --------------------------------------------------------------
 
                    Orbital Energies (a.u.)
 --------------------------------------------------------------
 
 Alpha MOs
 -- Occupied --
-24.715 -24.653 -10.279 -10.217 -10.197  -1.215  -1.156  -0.800
 -0.714  -0.595  -0.527  -0.495  -0.480  -0.477  -0.431  -0.414
 -0.404  -0.372  -0.368  -0.367  -0.246  -0.209
 -- Virtual --
  0.099   0.123   0.131   0.154   0.169   0.171   0.211   0.226
  0.294   0.485   0.525   0.545   0.547   0.563   0.575   0.602
  0.676   0.734   0.793   0.808   0.828   0.859   0.878   0.897
  0.921   0.999   1.095   1.157   1.202   1.242   1.244   1.329
  1.356   1.374   1.441   1.466   1.558   1.610   1.635   1.653
  1.726   1.740   1.755   1.812   1.862   1.883   1.897   1.905
  1.971   1.983   2.023   2.031   2.039   2.074   2.090   2.191
[...]
   Distance(Angs):        2   4             3.000000     3.000000
 Hessian Updated using BFGS Update

 26 Hessian modes will be used to form the next step
  Hessian Eigenvalues:
     0.004692    0.044995    0.045206    0.045609    0.054381    0.059436
     0.074531    0.095205    0.095759    0.158317    0.159578    0.160001
     0.160109    0.160240    0.170326    0.218964    0.233268    0.336299
     0.340874    0.342812    0.346044    0.348204    0.352728    0.392899
     0.442626    0.629277

 Minimum Search - Taking Simple RFO Step
 Searching for Lamda that Minimizes Along All modes
 Value Taken    Lamda =  -0.00000120
 Step Taken.  Stepsize is  0.012588

                             Maximum     Tolerance    Cnvgd?
         Gradient           0.000104      0.000300     YES
         Displacement       0.007845      0.001200      NO
         Energy change     -0.000001      0.000001      NO


 New Cartesian Coordinates Obtained by Inverse Iteration

 Displacement from previous Coordinates is:  0.013710
 ----------------------------------------------------------------
             Standard Nuclear Orientation (Angstroms)
    I     Atom           X                Y                Z
 ----------------------------------------------------------------
    1      F      -0.3911800343    -1.1043623453     0.4952009298
    2      F       1.0320798597    -0.3176246006    -1.5563628781
    3      C      -0.7087676965     0.2550303943     0.6820132636
    4      C       0.4501806802     1.0526329235     1.0482078246
    5      C      -1.7604633087     0.6868544763    -0.2777485388
    6      H       0.6611703554    -0.8839860701    -0.9114363487
    7      H       1.1842554995     1.3141954033     0.2873957897
    8      H       0.6572048482     1.3178746306     2.0809734856
    9      H      -2.6159550512     0.0041131937    -0.2540916916
   10      H      -2.1055887549     1.6967501407    -0.0432913186
   11      H      -1.3492333972     0.6889258538    -1.2991535176
 ----------------------------------------------------------------
 Nuclear Repulsion Energy =   178.8356733052 hartrees
 There are       22 alpha and       20 beta electrons

                       Distance Matrix (Angstroms)
             F (  1)   F (  2)   C (  3)   C (  4)   C (  5)   H (  6)
   F (  2)  2.617926
   C (  3)  1.408442  2.892890
   C (  4)  2.380406  3.000000  1.453764
   C (  5)  2.383452  3.231429  1.487844  2.603632
   H (  6)  1.770490  0.935024  2.390224  2.763189  2.955234
   H (  7)  2.893890  2.466868  2.204788  1.089089  3.063383  2.557893
   H (  8)  3.079126  4.005697  2.225446  1.086194  3.436113  3.715202
   H (  9)  2.596109  3.886848  2.139303  3.492358  1.094788  3.458377
   H ( 10)  3.327973  4.023935  2.134416  2.852756  1.092690  3.881859
   H ( 11)  2.711726  2.598067  2.126848  2.979980  1.101082  2.581879
             H (  7)   H (  8)   H (  9)   H ( 10)
   H (  8)  1.869416
   H (  9)  4.055999  4.229902
   H ( 10)  3.328480  3.505578  1.780430
   H ( 11)  3.053959  3.980783  1.779243  1.779037
 
 Applying Cartesian multipole field
    Component          Value
    ---------          -----
     (2,0,0)        1.00000E-11
     (0,2,0)        2.00000E-11
     (0,0,2)       -3.00000E-11
 Nucleus-field energy     =    -0.0000000005 hartrees
 Requested basis set is 6-31G(d,p)
 There are 38 shells and 105 basis functions
 A cutoff of  1.0D-14 yielded    721 shell pairs
 There are      5653 function pairs
 Smallest overlap matrix eigenvalue = 4.37E-03
 Guess from superposition of atomic densities
 Warning:  Energy on first SCF cycle will be non-variational
 SAD guess density has 42.000000 electrons

 -----------------------------------------------------------------------
  General SCF calculation program by
  Eric Jon Sundstrom, Paul Horn, Yuezhi Mao, Dmitri Zuev, Alec White,
  David Stuck, Shaama M.S., Shane Yost, Joonho Lee, David Small,
  Daniel Levine, Susi Lehtola, Hugh Burton, Evgeny Epifanovsky
 -----------------------------------------------------------------------
 Exchange:     0.2000 Hartree-Fock + 0.0800 Slater + 0.7200 B88
 Correlation:  0.1900 VWN1RPA + 0.8100 LYP
 Using SG-1 standard quadrature grid
 using 12 threads for integral computing
 -------------------------------------------------------
 OpenMP Integral computing Module                
 Release: version 1.0, May 2013, Q-Chem Inc. Pittsburgh 
 -------------------------------------------------------
 -------------------------------------------------------
 OpenMP BLAS3 based DFT computing Module                
 Release: version 1.0, May 2013, Q-Chem Inc. Pittsburgh 
 -------------------------------------------------------
 A unrestricted SCF calculation will be
 performed using DIIS
 SCF converges when DIIS error is below 1.0e-06
 Alpha HF Exchange    Energy =  -3.74913730843111
 Beta HF Exchange     Energy =  -3.74913730843111
 DFT Correlation      Energy =  -1.84374918402858
 DFT Exchange         Energy = -29.59862505919434
 One-Electron (alpha) Energy = -394.16335862428144
 One-Electron (beta)  Energy = -394.16335862428144
 Total Coulomb        Energy = 330.54940850429074
 ---------------------------------------
  Cycle       Energy         DIIS error
 ---------------------------------------
    1    -317.8822842997      2.91e-02  
 Alpha HF Exchange    Energy =  -3.91523076575635
 Beta HF Exchange     Energy =  -3.71619464718956
 DFT Correlation      Energy =  -1.86057957306055
 DFT Exchange         Energy = -30.32601697595490
 One-Electron (alpha) Energy = -409.83663127119354
 One-Electron (beta)  Energy = -384.90555205415944
 Total Coulomb        Energy = 338.31754395478509
    2    -317.4069880279      4.26e-03  
 Alpha HF Exchange    Energy =  -3.83823943034265
 Beta HF Exchange     Energy =  -3.64102639073758
 DFT Correlation      Energy =  -1.83566499712882
 DFT Exchange         Energy = -29.71267027825723
 One-Electron (alpha) Energy = -406.78572159308584
 One-Electron (beta)  Energy = -381.82936924852078
 Total Coulomb        Energy = 331.40434299709881
    3    -317.4026756363      4.64e-03  
 Alpha HF Exchange    Energy =  -3.87794458436521
 Beta HF Exchange     Energy =  -3.68095954640464
 DFT Correlation      Energy =  -1.84683314893987
 DFT Exchange         Energy = -30.02666531843076
 One-Electron (alpha) Energy = -408.37217291196606
 One-Electron (beta)  Energy = -383.34408344360077
 Total Coulomb        Energy = 334.82267174942297
    4    -317.4903138996      4.11e-04  
 Alpha HF Exchange    Energy =  -3.87897487273473
 Beta HF Exchange     Energy =  -3.68093160082949
 DFT Correlation      Energy =  -1.84714117193891
 DFT Exchange         Energy = -30.03109313402605
 One-Electron (alpha) Energy = -408.46454722103545
 One-Electron (beta)  Energy = -383.37961690815155
 Total Coulomb        Energy = 334.95570190490298
    5    -317.4909296991      1.83e-04  
 Alpha HF Exchange    Energy =  -3.87867946939840
 Beta HF Exchange     Energy =  -3.68074329262165
 DFT Correlation      Energy =  -1.84677287558768
 DFT Exchange         Energy = -30.02840430828390
 One-Electron (alpha) Energy = -408.43495380864778
 One-Electron (beta)  Energy = -383.33835925230017
 Total Coulomb        Energy = 334.88115210743166
    6    -317.4910875947      3.89e-05  
 Alpha HF Exchange    Energy =  -3.87871323836571
 Beta HF Exchange     Energy =  -3.68091357232299
 DFT Correlation      Energy =  -1.84672421657801
 DFT Exchange         Energy = -30.02896390360931
 One-Electron (alpha) Energy = -408.43826084739612
 One-Electron (beta)  Energy = -383.33824820435262
 Total Coulomb        Energy = 334.88505578296952
    7    -317.4910948950      2.18e-05  
 Alpha HF Exchange    Energy =  -3.87870172400753
 Beta HF Exchange     Energy =  -3.68083763984877
 DFT Correlation      Energy =  -1.84672245625940
 DFT Exchange         Energy = -30.02868566164198
 One-Electron (alpha) Energy = -408.44062298838020
 One-Electron (beta)  Energy = -383.33682039196123
 Total Coulomb        Energy = 334.88562037266030
    8    -317.4910971848      7.83e-06  
 Alpha HF Exchange    Energy =  -3.87873632512553
 Beta HF Exchange     Energy =  -3.68089152930846
 DFT Correlation      Energy =  -1.84671564103205
 DFT Exchange         Energy = -30.02898682909941
 One-Electron (alpha) Energy = -408.44162097018068
 One-Electron (beta)  Energy = -383.33713822948118
 Total Coulomb        Energy = 334.88731874304494
    9    -317.4910974765      3.81e-06  
 Alpha HF Exchange    Energy =  -3.87871306555165
 Beta HF Exchange     Energy =  -3.68087668532067
 DFT Correlation      Energy =  -1.84671053872366
 DFT Exchange         Energy = -30.02884153609681
 One-Electron (alpha) Energy = -408.44094806051612
 One-Electron (beta)  Energy = -383.33631745704167
 Total Coulomb        Energy = 334.88563649006483
   10    -317.4910975485      6.50e-07  Convergence criterion met
 ---------------------------------------
 SCF time:   CPU 23.93s  wall 2.00s 
<S^2> =          2.004257582
 Alpha HF Exchange    Energy =  -3.87871306555165
 Beta HF Exchange     Energy =  -3.68087668532067
 DFT Correlation      Energy =  -1.84671053872366
 DFT Exchange         Energy = -30.02884153609681
 One-Electron (alpha) Energy = -408.44094806051612
 One-Electron (beta)  Energy = -383.33631745704167
 Total Coulomb        Energy = 334.88563649006483
 Nuclear repulsion Energy = 178.83567330466641
 SCF   energy in the final basis set =     -317.4910975485
 Total energy in the final basis set =     -317.4910975485
 
 --------------------------------------------------------------
 
                    Orbital Energies (a.u.)
 --------------------------------------------------------------
 
 Alpha MOs
 -- Occupied --
-24.715 -24.653 -10.279 -10.217 -10.197  -1.215  -1.156  -0.800
 -0.714  -0.595  -0.527  -0.495  -0.480  -0.477  -0.431  -0.414
 -0.404  -0.372  -0.368  -0.367  -0.246  -0.209
 -- Virtual --
  0.099   0.123   0.131   0.154   0.169   0.171   0.211   0.226
  0.294   0.485   0.525   0.545   0.547   0.563   0.576   0.601
  0.676   0.734   0.792   0.808   0.828   0.859   0.878   0.897
  0.921   0.999   1.095   1.157   1.202   1.242   1.244   1.329
  1.356   1.374   1.441   1.466   1.557   1.610   1.636   1.653
  1.726   1.740   1.755   1.812   1.862   1.883   1.897   1.905
  1.970   1.983   2.022   2.031   2.039   2.074   2.090   2.191
  2.221   2.327   2.385   2.419   2.538   2.582   2.604   2.611
  2.653   2.741   2.754   2.805   2.859   2.894   2.932   3.092
  3.180   3.300   3.401   3.414   3.476   3.708   3.835   4.133
  4.363   4.539   4.618
 
 Beta MOs
 -- Occupied --
-24.710 -24.653 -10.265 -10.204 -10.197  -1.204  -1.155  -0.773
 -0.688  -0.573  -0.520  -0.480  -0.464  -0.456  -0.417  -0.404
 -0.399  -0.367  -0.367  -0.361
 -- Virtual --
 -0.085  -0.055   0.105   0.137   0.145   0.160   0.177   0.188
  0.229   0.243   0.311   0.505   0.554   0.566   0.568   0.587
  0.614   0.626   0.694   0.745   0.797   0.820   0.837   0.866
  0.890   0.912   0.929   1.020   1.101   1.162   1.212   1.245
  1.258   1.339   1.367   1.386   1.470   1.486   1.580   1.619
  1.642   1.666   1.737   1.752   1.781   1.827   1.866   1.887
  1.909   1.913   1.995   2.015   2.029   2.046   2.056   2.086
  2.105   2.205   2.238   2.337   2.401   2.451   2.569   2.601
  2.613   2.626   2.665   2.742   2.768   2.811   2.869   2.896
  2.945   3.103   3.186   3.312   3.408   3.420   3.487   3.709
  3.837   4.160   4.387   4.553   4.631
 --------------------------------------------------------------
 
          Ground-State Mulliken Net Atomic Charges

     Atom                 Charge (a.u.)    Spin (a.u.)
  --------------------------------------------------------
      1 F                    -0.307401       0.083267
      2 F                    -0.376237       0.000557
      3 C                     0.282948       0.880821
      4 C                    -0.258429       1.001911
      5 C                    -0.369356      -0.047684
      6 H                     0.355602       0.004411
      7 H                     0.145296       0.011173
      8 H                     0.129459      -0.021610
      9 H                     0.131668       0.021640
     10 H                     0.126446       0.002870
     11 H                     0.140004       0.062644
  --------------------------------------------------------
  Sum of atomic charges =    -0.000000
  Sum of spin   charges =     2.000000

 -----------------------------------------------------------------
                    Cartesian Multipole Moments
 -----------------------------------------------------------------
    Charge (ESU x 10^10)
                 0.0000
    Dipole Moment (Debye)
         X      -1.0305      Y       0.7998      Z       1.1286
       Tot       1.7249
    Quadrupole Moments (Debye-Ang)
        XX     -28.5837     XY      -0.4903     YY     -28.4199
        XZ       2.7820     YZ       1.3078     ZZ     -31.4721
    Octopole Moments (Debye-Ang^2)
       XXX      24.7757    XXY      -5.1758    XYY      10.8299
       YYY     -20.3861    XXZ      -0.9300    XYZ       0.2677
       YYZ      -3.4901    XZZ       8.0340    YZZ      -4.2613
       ZZZ       0.3158
    Hexadecapole Moments (Debye-Ang^3)
      XXXX    -237.8582   XXXY      19.6285   XXYY     -60.8558
      XYYY      14.5831   YYYY    -145.4094   XXXZ      13.2128
      XXYZ      -7.8605   XYYZ       3.5110   YYYZ     -20.6273
      XXZZ     -76.7079   XYZZ       9.1569   YYZZ     -52.7833
      XZZZ      19.4896   YZZZ     -19.9629   ZZZZ    -183.9697
 -----------------------------------------------------------------
 Calculating analytic gradient of the SCF energy
 Gradient of SCF Energy
            1           2           3           4           5           6
    1   0.0000913  -0.0003406   0.0000042   0.0003487  -0.0000714  -0.0000078
    2   0.0000108   0.0008854   0.0000784  -0.0009030  -0.0000225  -0.0000419
    3  -0.0001442   0.0016541   0.0001198  -0.0016184   0.0000451  -0.0000218
            7           8           9          10          11
    1  -0.0000101  -0.0000565   0.0000209   0.0000044   0.0000169
    2   0.0000065   0.0000017  -0.0000170   0.0000040  -0.0000024
    3   0.0000223   0.0000232  -0.0000196  -0.0000457  -0.0000148
 Max gradient component =       1.654E-03
 RMS gradient           =       4.690E-04
 Gradient time:  CPU 8.43 s  wall 0.75 s
 Geometry Optimization Parameters
   NAtoms,    NIC,     NZ,  NCons,   NDum,   NFix, NCnnct, MaxDiis
       11      59       0       1       0       0       0       0

 Cartesian Hessian Update
 Hessian Updated using BFGS Update


** CONSTRAINED OPTIMIZATION IN DELOCALIZED INTERNAL COORDINATES **
   Searching for a Minimum

   Optimization Cycle:   8

                       Coordinates (Angstroms)
     ATOM                X               Y               Z
      1  F        -0.3911800343   -1.1043623453    0.4952009298
      2  F         1.0320798597   -0.3176246006   -1.5563628781
      3  C        -0.7087676965    0.2550303943    0.6820132636
      4  C         0.4501806802    1.0526329235    1.0482078246
      5  C        -1.7604633087    0.6868544763   -0.2777485388
      6  H         0.6611703554   -0.8839860701   -0.9114363487
      7  H         1.1842554995    1.3141954033    0.2873957897
      8  H         0.6572048482    1.3178746306    2.0809734856
      9  H        -2.6159550512    0.0041131937   -0.2540916916
     10  H        -2.1055887549    1.6967501407   -0.0432913186
     11  H        -1.3492333972    0.6889258538   -1.2991535176
   Point Group: c1    Number of degrees of freedom:    27


   Energy is   -317.491097549

              Constraints and their Current Values
                                        Value     Constraint
   Distance(Angs):        2   4             3.000000     3.000000
 Hessian Updated using BFGS Update

 26 Hessian modes will be used to form the next step
  Hessian Eigenvalues:
     0.004012    0.043195    0.045014    0.045229    0.055543    0.057011
     0.067749    0.093913    0.095503    0.153892    0.159909    0.160022
     0.160111    0.160554    0.166268    0.219480    0.228198    0.335881
     0.340615    0.342637    0.346048    0.348207    0.352714    0.386469
     0.438203    0.626842

 Minimum Search - Taking Simple RFO Step
 Searching for Lamda that Minimizes Along All modes
 Value Taken    Lamda =   0.00000000
 Step Taken.  Stepsize is  0.007587

                             Maximum     Tolerance    Cnvgd?
         Gradient           0.000088      0.000300     YES
         Displacement       0.004277      0.001200      NO
         Energy change     -0.000001      0.000001     YES


                       Distance Matrix (Angstroms)
             F (  1)   F (  2)   C (  3)   C (  4)   C (  5)   H (  6)
   F (  2)  2.617926
   C (  3)  1.408442  2.892890
   C (  4)  2.380406  3.000000  1.453764
   C (  5)  2.383452  3.231429  1.487844  2.603632
   H (  6)  1.770490  0.935024  2.390224  2.763189  2.955234
   H (  7)  2.893890  2.466868  2.204788  1.089089  3.063383  2.557893
   H (  8)  3.079126  4.005697  2.225446  1.086194  3.436113  3.715202
   H (  9)  2.596109  3.886848  2.139303  3.492358  1.094788  3.458377
   H ( 10)  3.327973  4.023935  2.134416  2.852756  1.092690  3.881859
   H ( 11)  2.711726  2.598067  2.126848  2.979980  1.101082  2.581879
             H (  7)   H (  8)   H (  9)   H ( 10)
   H (  8)  1.869416
   H (  9)  4.055999  4.229902
   H ( 10)  3.328480  3.505578  1.780430
   H ( 11)  3.053959  3.980783  1.779243  1.779037
 
 Final energy is   -317.491097548519     


 ******************************
 **  OPTIMIZATION CONVERGED  **
 ******************************

                       Coordinates (Angstroms)
     ATOM                X               Y               Z
      1  F        -0.3911800343   -1.1043623453    0.4952009298
      2  F         1.0320798597   -0.3176246006   -1.5563628781
      3  C        -0.7087676965    0.2550303943    0.6820132636
      4  C         0.4501806802    1.0526329235    1.0482078246
      5  C        -1.7604633087    0.6868544763   -0.2777485388
      6  H         0.6611703554   -0.8839860701   -0.9114363487
      7  H         1.1842554995    1.3141954033    0.2873957897
      8  H         0.6572048482    1.3178746306    2.0809734856
      9  H        -2.6159550512    0.0041131937   -0.2540916916
     10  H        -2.1055887549    1.6967501407   -0.0432913186
     11  H        -1.3492333972    0.6889258538   -1.2991535176

Z-matrix Print:
$molecule
0 3
F 
C  1 1.408442
C  2 1.453764 1 112.531396
H  3 1.086194 2 121.696789 1 -98.597751 0
H  3 1.089089 2 119.546939 1 75.454872 0
C  2 1.487844 1 110.729450 3 144.397783 0
H  6 1.092690 2 110.676600 1 172.113187 0
H  6 1.094788 2 110.941676 1 51.029389 0
H  6 1.101082 2 109.568879 1 -68.428933 0
H  1 1.770490 2 96.849909 3 -64.990434 0
F  10 0.935024 1 149.223775 2 -4.918494 0
$end

PES scan, value:    3.0000 energy: -317.4910975485
------- Summary of potential scan: ------ 
    3.0000      -317.4910975485
----------------------------------------- 
Archival summary:
1\1\hpc0244\JobtypUnspecified\ProcedureUnspecified\6-31G**\236(3)\knomura\WedMar1318:58:332019WedMar1318:58:332019\0\\#,JobtypUnspecified,ProcedureUnspecified,6-31G**,\\0,3\F\C,1,1.40844\C,2,1.45376,1,112.531\H,3,1.08619,2,121.697,1,-98.5978,0\H,3,1.08909,2,119.547,1,75.4549,0\C,2,1.48784,1,110.729,3,144.398,0\H,6,1.09269,2,110.677,1,172.113,0\H,6,1.09479,2,110.942,1,51.0294,0\H,6,1.10108,2,109.569,1,-68.4289,0\H,1,1.77049,2,96.8499,3,-64.9904,0\F,10,0.935024,1,149.224,2,-4.91849,0\\\@

 Total job time:  25.93s(wall), 291.11s(cpu) 
 Wed Mar 13 18:58:33 2019

        *************************************************************
        *                                                           *
        *  Thank you very much for using Q-Chem.  Have a nice day.  *
        *                                                           *
        *************************************************************


