
Running Job 1 of 1 halogens/Flourine/03/F_2_4.xyz.data/inputs/bond_singlet_3.0.in
qchem halogens/Flourine/03/F_2_4.xyz.data/inputs/bond_singlet_3.0.in_4570.0 /staging/scratch/2868761/qchem4570/ 1
/usr/usc/qchem/5.1.1/exe/qcprog.exe_s halogens/Flourine/03/F_2_4.xyz.data/inputs/bond_singlet_3.0.in_4570.0 /staging/scratch/2868761/qchem4570/
Check license passed

                  Welcome to Q-Chem
     A Quantum Leap Into The Future Of Chemistry


 Q-Chem 5.1, Q-Chem, Inc., Pleasanton, CA (2018)

 Yihan Shao,  Zhengting Gan,  E. Epifanovsky,  A. T. B. Gilbert,  M. Wormit,  
 J. Kussmann,  A. W. Lange,  A. Behn,  Jia Deng,  Xintian Feng,  D. Ghosh,  
 M. Goldey,  P. R. Horn,  L. D. Jacobson,  I. Kaliman,  T. Kus,  A. Landau,  
 Jie Liu,  E. I. Proynov,  R. M. Richard,  R. P. Steele,  E. J. Sundstrom,  
 H. L. Woodcock III,  P. M. Zimmerman,  D. Zuev,  B. Albrecht,  E. Alguire,  
 S. A. Baeppler,  D. Barton,  Z. Benda,  Y. A. Bernard,  E. J. Berquist,  
 K. B. Bravaya,  H. Burton,  D. Casanova,  Chun-Min Chang,  Yunqing Chen,  
 A. Chien,  K. D. Closser,  M. P. Coons,  S. Coriani,  S. Dasgupta,  
 A. L. Dempwolff,  M. Diedenhofen,  Hainam Do,  R. G. Edgar,  Po-Tung Fang,  
 S. Faraji,  S. Fatehi,  Qingguo Feng,  K. D. Fenk,  J. Fosso-Tande,  
 Qinghui Ge,  A. Ghysels,  G. Gidofalvi,  J. Gomes,  J. Gonthier,  A. Gunina,  
 D. Hait,  M. W. D. Hanson-Heine,  P. H. P. Harbach,  A. W. Hauser,  
 J. E. Herr,  E. G. Hohenstein,  Z. C. Holden,  Kerwin Hui,  B. C. Huynh,  
 T.-C. Jagau,  Hyunjun Ji,  B. Kaduk,  K. Khistyaev,  Jaehoon Kim,  
 P. Klunzinger,  K. Koh,  D. Kosenkov,  L. Koulias,  T. Kowalczyk,  
 C. M. Krauter,  A. Kunitsa,  Ka Un Lao,  A. Laurent,  K. V. Lawler,  
 Joonho Lee,  D. Lefrancois,  S. Lehtola,  D. S. Levine,  Yi-Pei Li,  
 You-Sheng Lin,  Fenglai Liu,  E. Livshits,  A. Luenser,  P. Manohar,  
 E. Mansoor,  S. F. Manzer,  Shan-Ping Mao,  Yuezhi Mao,  N. Mardirossian,  
 A. V. Marenich,  T. Markovich,  L. A. Martinez-Martinez,  S. A. Maurer,  
 N. J. Mayhall,  S. C. McKenzie,  J.-M. Mewes,  A. F. Morrison,  
 J. W. Mullinax,  K. Nanda,  T. S. Nguyen-Beck,  R. Olivares-Amaya,  
 J. A. Parkhill,  T. M. Perrine,  F. Plasser,  P. Pokhilko,  S. Prager,  
 A. Prociuk,  E. Ramos,  D. R. Rehn,  F. Rob,  M. Schneider,  N. Sergueev,  
 S. M. Sharada,  S. Sharma,  D. W. Small,  T. Stauch,  T. Stein,  
 Yu-Chuan Su,  A. J. W. Thom,  A. Tkatchenko,  T. Tsuchimochi,  N. M. Tubman,  
 L. Vogt,  M. L. Vidal,  O. Vydrov,  M. A. Watson,  J. Wenzel,  
 M. de Wergifosse,  T. A. Wesolowski,  A. White,  J. Witte,  A. Yamada,  
 Jun Yang,  K. Yao,  S. Yeganeh,  S. R. Yost,  Zhi-Qiang You,  A. Zech,  
 Igor Ying Zhang,  Xing Zhang,  Yan Zhao,  Ying Zhu,  B. R. Brooks,  
 G. K. L. Chan,  C. J. Cramer,  M. S. Gordon,  W. J. Hehre,  A. Klamt,  
 M. W. Schmidt,  C. D. Sherrill,  D. G. Truhlar,  A. Aspuru-Guzik,  R. Baer,  
 A. T. Bell,  N. A. Besley,  Jeng-Da Chai,  A. E. DePrince, III,  
 R. A. DiStasio Jr.,  A. Dreuw,  B. D. Dunietz,  T. R. Furlani,  
 Chao-Ping Hsu,  Yousung Jung,  Jing Kong,  D. S. Lambrecht,  WanZhen Liang,  
 C. Ochsenfeld,  V. A. Rassolov,  L. V. Slipchenko,  J. E. Subotnik,  
 T. Van Voorhis,  J. M. Herbert,  A. I. Krylov,  P. M. W. Gill,  M. Head-Gordon

 Contributors to earlier versions of Q-Chem not listed above: 
 R. D. Adamson,  B. Austin,  J. Baker,  G. J. O. Beran,  K. Brandhorst,  
 S. T. Brown,  E. F. C. Byrd,  A. K. Chakraborty,  C.-L. Cheng,  
 Siu Hung Chien,  D. M. Chipman,  D. L. Crittenden,  H. Dachsel,  
 R. J. Doerksen,  A. D. Dutoi,  L. Fusti-Molnar,  W. A. Goddard III,  
 A. Golubeva-Zadorozhnaya,  S. R. Gwaltney,  G. Hawkins,  A. Heyden,  
 S. Hirata,  G. Kedziora,  F. J. Keil,  C. Kelley,  Jihan Kim,  R. A. King,  
 R. Z. Khaliullin,  P. P. Korambath,  W. Kurlancheek,  A. M. Lee,  M. S. Lee,  
 S. V. Levchenko,  Ching Yeh Lin,  D. Liotard,  R. C. Lochan,  I. Lotan,  
 P. E. Maslen,  N. Nair,  D. P. O'Neill,  D. Neuhauser,  E. Neuscamman,  
 C. M. Oana,  R. Olson,  B. Peters,  R. Peverati,  P. A. Pieniazek,  
 Y. M. Rhee,  J. Ritchie,  M. A. Rohrdanz,  E. Rosta,  N. J. Russ,  
 H. F. Schaefer III,  N. E. Schultz,  N. Shenvi,  A. C. Simmonett,  A. Sodt,  
 D. Stuck,  K. S. Thanthiriwatte,  V. Vanovschi,  Tao Wang,  A. Warshel,  
 C. F. Williams,  Q. Wu,  X. Xu,  W. Zhang

 Please cite Q-Chem as follows:
 Y. Shao et al., Mol. Phys. 113, 184-215 (2015)
 DOI: 10.1080/00268976.2014.952696

 Q-Chem 5.1.1 for Intel X86 EM64T Linux

 Parts of Q-Chem use Armadillo 8.300.2 (Tropical Shenanigans).
 http://arma.sourceforge.net/

 Q-Chem begins on Wed Mar 13 18:36:00 2019  

Host: 
0

     Scratch files written to /staging/scratch/2868761/qchem4570//
 Aug318 |scratch|qcdevops|jenkins|workspace|build_RNUM 6013   
Processing $rem in /usr/usc/qchem/5.1.1/config/preferences.
 MEM_TOTAL  2000 
Input Ideriv = 2
Curr. Ideriv = -1
Max.  Ideriv = 2

Checking the input file for inconsistencies... 	...done.

--------------------------------------------------------------
User input:
--------------------------------------------------------------

$comment
potential surface scanner
$end

$rem
JOBTYPE  PES_SCAN
UNRESTRICTED TRUE
SYM_IGNORE  TRUE
GEOM_OPT_MAX_CYCLES 400
SCF_MAX_CYCLES 400
METHOD   B3LYP
BASIS   6-31G**
PDB_PRINT 2
SCF_CONVERGENCE 6
THRESH 14
SCF_PRINT 1
$end
$molecule
0 1
F -1.035658 -1.077805 1.308686
F 0.844614 0.694433 -1.959719
C -0.651894 0.054567 0.676383
C 0.561122 0.555290 0.923035
C -1.707375 0.581955 -0.237012
H 0.892453 0.230246 -1.150427
H 0.869976 1.484058 0.461081
H 1.223815 0.077093 1.634483
H -2.568681 0.932026 0.342410
H -1.315916 1.394334 -0.847976
H -2.058758 -0.215792 -0.899240
$end
$scan
stre 2 4 3.000000 3.001000 0.100000
$end
--------------------------------------------------------------
 ----------------------------------------------------------------
             Standard Nuclear Orientation (Angstroms)
    I     Atom           X                Y                Z
 ----------------------------------------------------------------
    1      F      -1.0356580000    -1.0778050000     1.3086860000
    2      F       0.8446140000     0.6944330000    -1.9597190000
    3      C      -0.6518940000     0.0545670000     0.6763830000
    4      C       0.5611220000     0.5552900000     0.9230350000
    5      C      -1.7073750000     0.5819550000    -0.2370120000
    6      H       0.8924530000     0.2302460000    -1.1504270000
    7      H       0.8699760000     1.4840580000     0.4610810000
    8      H       1.2238150000     0.0770930000     1.6344830000
    9      H      -2.5686810000     0.9320260000     0.3424100000
   10      H      -1.3159160000     1.3943340000    -0.8479760000
   11      H      -2.0587580000    -0.2157920000    -0.8992400000
 ----------------------------------------------------------------
 Nuclear Repulsion Energy =   175.4712774070 hartrees
 There are       21 alpha and       21 beta electrons
 Requested basis set is 6-31G(d,p)
 There are 38 shells and 105 basis functions

 Total QAlloc Memory Limit   2000 MB
 Mega-Array Size       188 MB
 MEM_STATIC part       192 MB
A total of 1 constraints
  
            1
    1   1.0100000
    2   2.0100000
    3   4.0100000
    4   3.0000000
    5   3.0010000
    6   0.1000000
    7   0.0000000
    8   0.0000000
    9   0.0000000
   10   0.0000000

                       Distance Matrix (Angstroms)
             F (  1)   F (  2)   C (  3)   C (  4)   C (  5)   H (  6)
   F (  2)  4.166380
   C (  3)  1.352534  3.098064
   C (  4)  2.316340  2.900000  1.335278
   C (  5)  2.365415  3.081074  1.492136  2.548038
   H (  6)  3.387602  0.934190  2.398563  2.124777  2.777973
   H (  7)  3.303486  2.546453  2.099021  1.082313  2.818486  2.041937
   H (  8)  2.558349  3.666496  2.106359  1.083509  3.514151  2.808733
   H (  9)  2.706154  4.123934  2.134372  3.205421  1.095503  3.834124
   H ( 10)  3.292599  2.528581  2.135315  2.713622  1.089255  2.514651
   H ( 11)  2.581615  3.222219  2.129542  3.283143  1.094722  2.995278
             H (  7)   H (  8)   H (  9)   H ( 10)
   H (  8)  1.865911
   H (  9)  3.484707  4.096753
   H ( 10)  2.549471  3.787870  1.788901
   H ( 11)  3.649308  4.157020  1.766126  1.773964
 
 A cutoff of  1.0D-14 yielded    718 shell pairs
 There are      5628 function pairs
 
 -------------------------------------------------------
 OpenMP Integral Computing Module                       
 Release: version 1.0, May 2013, Q-Chem Inc. Pittsburgh 
 -------------------------------------------------------
 Integral Job Info:
 Integral job number is                      11
 Integral operator is                         1
 short-range coefficients                     0
 long-range coefficients              100000000
 Omega coefficients                           0
 if combine SR and LR in K                    0
 Integral screening is                        0
 Integral computing path is                   2
 max size of driver memory is            800000
 size of driver memory is                593474
 size of scratch memory is              2361544
 max col of scratch BK array               1296
 max len of scratch array in speh3          155
 max len of scratch index in speh4           18
 max int batch size is                      520
 min int batch size is                       52
 fixed nKL is                                52
 max L of basis functions is                  2
 order of int derivative is                   0
 number of shells is                         38
 number of basis is                         105
 number of cartesian basis is               105
 number of contracted shell pairs           718
 number of primitive shell pairs           2598
 maxK2 (contraction) of shell pair           36
 max number of K2 of shell pair               1
 max number of CS2 of shell pair             65
 max number of PS2 of shell pair            288
 mem total for path MDJ                  519084
 -------------------------------------------------------
 Smallest overlap matrix eigenvalue = 3.53E-03

 Scale SEOQF with 1.000000e-01/1.000000e+00/1.000000e-01

 Standard Electronic Orientation quadrupole field applied
 Nucleus-field energy     =     0.0000000121 hartrees
 Guess from superposition of atomic densities
 Warning:  Energy on first SCF cycle will be non-variational
 SAD guess density has 42.000000 electrons

 -----------------------------------------------------------------------
  General SCF calculation program by
  Eric Jon Sundstrom, Paul Horn, Yuezhi Mao, Dmitri Zuev, Alec White,
  David Stuck, Shaama M.S., Shane Yost, Joonho Lee, David Small,
  Daniel Levine, Susi Lehtola, Hugh Burton, Evgeny Epifanovsky
 -----------------------------------------------------------------------
 Exchange:     0.2000 Hartree-Fock + 0.0800 Slater + 0.7200 B88
 Correlation:  0.1900 VWN1RPA + 0.8100 LYP
 Using SG-1 standard quadrature grid
 using 12 threads for integral computing
 -------------------------------------------------------
 OpenMP Integral computing Module                
 Release: version 1.0, May 2013, Q-Chem Inc. Pittsburgh 
 -------------------------------------------------------
 -------------------------------------------------------
 OpenMP BLAS3 based DFT computing Module                
 Release: version 1.0, May 2013, Q-Chem Inc. Pittsburgh 
 -------------------------------------------------------
 A unrestricted SCF calculation will be
 performed using DIIS
 SCF converges when DIIS error is below 1.0e-06
 Alpha HF Exchange    Energy =  -3.77057113127188
 Beta HF Exchange     Energy =  -3.77057113127188
 DFT Correlation      Energy =  -1.84705298751880
 DFT Exchange         Energy = -29.64351358550988
 One-Electron (alpha) Energy = -390.67511817510854
 One-Electron (beta)  Energy = -390.67511817510854
 Total Coulomb        Energy = 326.82201702169988
 ---------------------------------------
  Cycle       Energy         DIIS error
 ---------------------------------------
    1    -318.0886507451      3.13e-02  
 Alpha HF Exchange    Energy =  -3.82252086472793
 Beta HF Exchange     Energy =  -3.82252086472793
 DFT Correlation      Energy =  -1.87704981713551
 DFT Exchange         Energy = -30.38476705285763
 One-Electron (alpha) Energy = -394.05318876123317
 One-Electron (beta)  Energy = -394.05318876123312
 Total Coulomb        Energy = 335.06338125491243
    2    -317.4785774480      4.87e-03  
 Alpha HF Exchange    Energy =  -3.74034657376917
 Beta HF Exchange     Energy =  -3.74034657376916
 DFT Correlation      Energy =  -1.85110720512279
 DFT Exchange         Energy = -29.72710709272176
 One-Electron (alpha) Energy = -391.00059351037936
 One-Electron (beta)  Energy = -391.00059351037925
 Total Coulomb        Energy = 328.15041882137234
    3    -317.4383982257      5.73e-03  
 Alpha HF Exchange    Energy =  -3.77609871593546
 Beta HF Exchange     Energy =  -3.77609871593547
 DFT Correlation      Energy =  -1.86213248678263
 DFT Exchange         Energy = -30.01154193858122
 One-Electron (alpha) Energy = -392.15874671242602
 One-Electron (beta)  Energy = -392.15874671242636
 Total Coulomb        Energy = 330.68794674454625
    4    -317.5841411185      9.68e-04  
 Alpha HF Exchange    Energy =  -3.78051716501208
 Beta HF Exchange     Energy =  -3.78051716501208
 DFT Correlation      Energy =  -1.86396670601247
 DFT Exchange         Energy = -30.04909717030730
 One-Electron (alpha) Energy = -392.52041608071664
 One-Electron (beta)  Energy = -392.52041608071642
 Total Coulomb        Energy = 331.45428455209105
    5    -317.5893683967      2.37e-04  
 Alpha HF Exchange    Energy =  -3.77932897012752
 Beta HF Exchange     Energy =  -3.77932897012752
 DFT Correlation      Energy =  -1.86364521344004
 DFT Exchange         Energy = -30.03968043673458
 One-Electron (alpha) Energy = -392.45363643318620
 One-Electron (beta)  Energy = -392.45363643318649
 Total Coulomb        Energy = 331.30834605908444
    6    -317.5896329787      7.83e-05  
 Alpha HF Exchange    Energy =  -3.77955131769049
 Beta HF Exchange     Energy =  -3.77955131769048
 DFT Correlation      Energy =  -1.86362487755736
 DFT Exchange         Energy = -30.04111435935407
 One-Electron (alpha) Energy = -392.45277686187285
 One-Electron (beta)  Energy = -392.45277686187274
 Total Coulomb        Energy = 331.30845923567227
    7    -317.5896589413      1.70e-05  
 Alpha HF Exchange    Energy =  -3.77950158773422
 Beta HF Exchange     Energy =  -3.77950158773422
 DFT Correlation      Energy =  -1.86363141817571
 DFT Exchange         Energy = -30.04080168108214
 One-Electron (alpha) Energy = -392.45309125415275
 One-Electron (beta)  Energy = -392.45309125415287
 Total Coulomb        Energy = 331.30868112199505
    8    -317.5896602420      5.68e-06  
 Alpha HF Exchange    Energy =  -3.77952550973860
 Beta HF Exchange     Energy =  -3.77952550973860
 DFT Correlation      Energy =  -1.86363384002503
 DFT Exchange         Energy = -30.04097261747327
 One-Electron (alpha) Energy = -392.45364727844299
 One-Electron (beta)  Energy = -392.45364727844293
 Total Coulomb        Energy = 331.31001425359551
    9    -317.5896603612      1.10e-06  
 Alpha HF Exchange    Energy =  -3.77952340942398
 Beta HF Exchange     Energy =  -3.77952340942398
 DFT Correlation      Energy =  -1.86363378490495
 DFT Exchange         Energy = -30.04095735806039
 One-Electron (alpha) Energy = -392.45360710489496
 One-Electron (beta)  Energy = -392.45360710489479
 Total Coulomb        Energy = 331.30991438744502
   10    -317.5896603651      3.79e-07  Convergence criterion met
 ---------------------------------------
 SCF time:   CPU 23.75s  wall 2.00s 
<S^2> =         -0.000000000
 Alpha HF Exchange    Energy =  -3.77952340942398
 Beta HF Exchange     Energy =  -3.77952340942398
 DFT Correlation      Energy =  -1.86363378490495
 DFT Exchange         Energy = -30.04095735806039
 One-Electron (alpha) Energy = -392.45360710489496
 One-Electron (beta)  Energy = -392.45360710489479
 Total Coulomb        Energy = 331.30991438744502
 Nuclear repulsion Energy = 175.47127741903230
 SCF   energy in the final basis set =     -317.5896603651
 Total energy in the final basis set =     -317.5896603651
 
 --------------------------------------------------------------
 
                    Orbital Energies (a.u.)
 --------------------------------------------------------------
 
 Alpha MOs
 -- Occupied --
-24.713 -24.653 -10.293 -10.202 -10.195  -1.225  -1.157  -0.806
 -0.720  -0.591  -0.514  -0.503  -0.492  -0.475  -0.425  -0.414
 -0.401  -0.373  -0.367  -0.366  -0.270
 -- Virtual --
  0.002   0.096   0.108   0.132   0.148   0.168   0.179   0.202
  0.254   0.342   0.492   0.536   0.550   0.566   0.596   0.630
  0.648   0.695   0.751   0.785   0.836   0.842   0.868   0.905
  0.920   1.008   1.087   1.137   1.161   1.221   1.247   1.265
  1.276   1.313   1.387   1.402   1.475   1.572   1.600   1.639
  1.712   1.744   1.773   1.815   1.834   1.855   1.881   1.886
  1.946   2.003   2.019   2.050   2.064   2.086   2.111   2.129
  2.235   2.311   2.324   2.409   2.446   2.547   2.555   2.620
  2.642   2.672   2.758   2.776   2.832   2.843   2.863   2.997
  3.099   3.189   3.358   3.409   3.456   3.592   3.717   3.868
  4.183   4.397   4.460   4.894
 
 Beta MOs
 -- Occupied --
-24.713 -24.653 -10.293 -10.202 -10.195  -1.225  -1.157  -0.806
 -0.720  -0.591  -0.514  -0.503  -0.492  -0.475  -0.425  -0.414
 -0.401  -0.373  -0.367  -0.366  -0.270
 -- Virtual --
  0.002   0.096   0.108   0.132   0.148   0.168   0.179   0.202
  0.254   0.342   0.492   0.536   0.550   0.566   0.596   0.630
  0.648   0.695   0.751   0.785   0.836   0.842   0.868   0.905
  0.920   1.008   1.087   1.137   1.161   1.221   1.247   1.265
  1.276   1.313   1.387   1.402   1.475   1.572   1.600   1.639
  1.712   1.744   1.773   1.815   1.834   1.855   1.881   1.886
  1.946   2.003   2.019   2.050   2.064   2.086   2.111   2.129
  2.235   2.311   2.324   2.409   2.446   2.547   2.555   2.620
  2.642   2.672   2.758   2.776   2.832   2.843   2.863   2.997
  3.099   3.189   3.358   3.409   3.456   3.592   3.717   3.868
  4.183   4.397   4.460   4.894
 --------------------------------------------------------------
 
          Ground-State Mulliken Net Atomic Charges

     Atom                 Charge (a.u.)    Spin (a.u.)
  --------------------------------------------------------
      1 F                    -0.281968      -0.000000
      2 F                    -0.372909       0.000000
      3 C                     0.389856      -0.000000
      4 C                    -0.377996       0.000000
      5 C                    -0.385317      -0.000000
      6 H                     0.341376      -0.000000
      7 H                     0.139345       0.000000
      8 H                     0.123814      -0.000000
      9 H                     0.137522       0.000000
     10 H                     0.144201       0.000000
     11 H                     0.142077       0.000000
  --------------------------------------------------------
  Sum of atomic charges =    -0.000000
  Sum of spin   charges =    -0.000000

 -----------------------------------------------------------------
                    Cartesian Multipole Moments
 -----------------------------------------------------------------
    Charge (ESU x 10^10)
                -0.0000
    Dipole Moment (Debye)
         X      -0.5538      Y       0.2793      Z       1.0968
       Tot       1.2601
    Quadrupole Moments (Debye-Ang)
        XX     -27.0389     XY      -1.7281     YY     -29.8941
        XZ       3.1373     YZ       2.4547     ZZ     -34.6014
    Octopole Moments (Debye-Ang^2)
       XXX      32.3871    XXY      -5.7315    XYY      12.4201
       YYY     -20.0792    XXZ      -1.7479    XYZ       0.1761
       YYZ      -4.4642    XZZ       9.8803    YZZ     -10.9471
       ZZZ      -1.1876
    Hexadecapole Moments (Debye-Ang^3)
      XXXX    -244.6541   XXXY     -12.6193   XXYY     -60.9060
      XYYY      -8.2552   YYYY    -111.1693   XXXZ      28.8415
      XXYZ      15.3598   XYYZ      11.9117   YYYZ      33.0201
      XXZZ     -85.4912   XYZZ      -7.8711   YYZZ     -65.0641
      XZZZ      40.3379   YZZZ      38.9617   ZZZZ    -272.9200
 -----------------------------------------------------------------
 Calculating analytic gradient of the SCF energy
 Gradient of SCF Energy
            1           2           3           4           5           6
    1   0.0000016  -0.0001886  -0.0000328   0.0001831   0.0000473  -0.0000126
    2   0.0000274  -0.0000752   0.0000041   0.0000207   0.0000653  -0.0000510
    3  -0.0000250   0.0018993   0.0000667  -0.0019549  -0.0000540   0.0000798
            7           8           9          10          11
    1   0.0000055   0.0000405  -0.0000087  -0.0000092  -0.0000261
    2  -0.0000010   0.0000324   0.0000053  -0.0000198  -0.0000080
    3  -0.0000062  -0.0000184   0.0000004   0.0000026   0.0000097
 Max gradient component =       1.955E-03
 RMS gradient           =       4.778E-04
 Gradient time:  CPU 8.27 s  wall 0.73 s
 Geometry Optimization Parameters
   NAtoms,    NIC,     NZ,  NCons,   NDum,   NFix, NCnnct, MaxDiis
       11      72       0       1       0       0       0       0


** CONSTRAINED OPTIMIZATION IN DELOCALIZED INTERNAL COORDINATES **
   Searching for a Minimum

   Optimization Cycle:   1

                       Coordinates (Angstroms)
     ATOM                X               Y               Z
      1  F        -1.0356580000   -1.0778050000    1.3086860000
      2  F         0.8446140000    0.6944330000   -1.9597190000
      3  C        -0.6518940000    0.0545670000    0.6763830000
      4  C         0.5611220000    0.5552900000    0.9230350000
      5  C        -1.7073750000    0.5819550000   -0.2370120000
      6  H         0.8924530000    0.2302460000   -1.1504270000
      7  H         0.8699760000    1.4840580000    0.4610810000
      8  H         1.2238150000    0.0770930000    1.6344830000
      9  H        -2.5686810000    0.9320260000    0.3424100000
     10  H        -1.3159160000    1.3943340000   -0.8479760000
     11  H        -2.0587580000   -0.2157920000   -0.8992400000
   Point Group: c1    Number of degrees of freedom:    27


   Energy is   -317.589660365

              Constraints and their Current Values
                                        Value     Constraint
   Distance(Angs):        2   4             2.900000     3.000000

 Attempting to Generate Delocalized Internal Coordinates

   Using Lagrange Multiplier Algorithm


 28 Hessian modes will be used to form the next step
  Hessian Eigenvalues:
    -0.989841    0.045000    0.045000    0.045000    0.045501    0.054039
     0.066902    0.075789    0.094229    0.095687    0.098567    0.120919
     0.127172    0.160000    0.160000    0.160000    0.250000    0.250000
     0.324844    0.332166    0.341843    0.342726    0.348989    0.355736
     0.393074    0.544858    0.582762    1.010263

 Minimum Search - Taking P-RFO Step
 Searching for Lamda that Maximizes Along the Constraint modes Only
 Value Taken    Lamda =   0.01754209
 Searching for Lamda that Minimizes Along All other modes
 Value Taken    Lamda =  -0.01755470
 Step Taken.  Stepsize is  0.185716

                             Maximum     Tolerance    Cnvgd?
         Gradient            0.188973       0.000300      NO
         Displacement        0.185714       0.001200      NO
         Energy change     *********       0.000001      NO


 New Cartesian Coordinates Obtained by Inverse Iteration

 Displacement from previous Coordinates is:  0.185574
 ----------------------------------------------------------------
             Standard Nuclear Orientation (Angstroms)
    I     Atom           X                Y                Z
 ----------------------------------------------------------------
    1      F      -1.0458161429    -1.0783269473     1.3216140381
    2      F       0.8759670266     0.7017426682    -2.0381217528
    3      C      -0.6586139294     0.0527272453     0.6889828101
    4      C       0.5541311871     0.5523660851     0.9390855573
    5      C      -1.7104654497     0.5801439444    -0.2284968029
    6      H       0.9087845311     0.2403270018    -1.1707911424
    7      H       0.8669738407     1.4823480859     0.4675954918
    8      H       1.2124477216     0.0737034082     1.6542793985
    9      H      -2.5732318926     0.9320027250     0.3476413720
   10      H      -1.3159568583     1.3913407898    -0.8391345170
   11      H      -2.0605220342    -0.2179700063    -0.8909504526
 ----------------------------------------------------------------
 Nuclear Repulsion Energy =   173.8708767743 hartrees
 There are       21 alpha and       21 beta electrons

                       Distance Matrix (Angstroms)
             F (  1)   F (  2)   C (  3)   C (  4)   C (  5)   H (  6)
   F (  2)  4.260249
   C (  3)  1.352565  3.195819
   C (  4)  2.316316  2.998275  1.335268
   C (  5)  2.365402  3.158981  1.492089  2.548022
   H (  6)  3.430947  0.982977  2.439404  2.162112  2.804258
   H (  7)  3.308349  2.624508  2.102438  1.088595  2.818104  2.056374
   H (  8)  2.556872  3.760516  2.105495  1.083513  3.513510  2.846225
   H (  9)  2.706113  4.200221  2.134339  3.205360  1.095493  3.861152
   H ( 10)  3.292578  2.591842  2.135212  2.713517  1.089291  2.526718
   H ( 11)  2.581721  3.284028  2.129510  3.283118  1.094701  3.017471
             H (  7)   H (  8)   H (  9)   H ( 10)
   H (  8)  1.873993
   H (  9)  3.486013  4.095772
   H ( 10)  2.545783  3.787626  1.788902
   H ( 11)  3.647871  4.156393  1.766188  1.773963
 
 Applying Cartesian multipole field
    Component          Value
    ---------          -----
     (2,0,0)        1.00000E-11
     (0,2,0)        2.00000E-10
     (0,0,2)       -3.00000E-11
 Nucleus-field energy     =     0.0000000118 hartrees
 Requested basis set is 6-31G(d,p)
 There are 38 shells and 105 basis functions
 A cutoff of  1.0D-14 yielded    717 shell pairs
 There are      5624 function pairs
 Smallest overlap matrix eigenvalue = 3.54E-03
 Guess from superposition of atomic densities
 Warning:  Energy on first SCF cycle will be non-variational
 SAD guess density has 42.000000 electrons

 -----------------------------------------------------------------------
  General SCF calculation program by
  Eric Jon Sundstrom, Paul Horn, Yuezhi Mao, Dmitri Zuev, Alec White,
  David Stuck, Shaama M.S., Shane Yost, Joonho Lee, David Small,
  Daniel Levine, Susi Lehtola, Hugh Burton, Evgeny Epifanovsky
 -----------------------------------------------------------------------
 Exchange:     0.2000 Hartree-Fock + 0.0800 Slater + 0.7200 B88
 Correlation:  0.1900 VWN1RPA + 0.8100 LYP
 Using SG-1 standard quadrature grid
 using 12 threads for integral computing
 -------------------------------------------------------
 OpenMP Integral computing Module                
 Release: version 1.0, May 2013, Q-Chem Inc. Pittsburgh 
 -------------------------------------------------------
 -------------------------------------------------------
 OpenMP BLAS3 based DFT computing Module                
 Release: version 1.0, May 2013, Q-Chem Inc. Pittsburgh 
 -------------------------------------------------------
 A unrestricted SCF calculation will be
 performed using DIIS
 SCF converges when DIIS error is below 1.0e-06
 Alpha HF Exchange    Energy =  -3.76599563017612
 Beta HF Exchange     Energy =  -3.76599563017612
 DFT Correlation      Energy =  -1.84561158746244
 DFT Exchange         Energy = -29.63265443966894
 One-Electron (alpha) Energy = -389.12573140646219
 One-Electron (beta)  Energy = -389.12573140646219
 Total Coulomb        Energy = 325.33927619211880
 ---------------------------------------
  Cycle       Energy         DIIS error
 ---------------------------------------
    1    -318.0515671223      3.09e-02  
 Alpha HF Exchange    Energy =  -3.81988259384861
 Beta HF Exchange     Energy =  -3.81988259384862
 DFT Correlation      Energy =  -1.87575197790295
 DFT Exchange         Energy = -30.36685718198209
 One-Electron (alpha) Energy = -392.47689019991998
 One-Electron (beta)  Energy = -392.47689019992015
 Total Coulomb        Energy = 333.48967562900282
    2    -317.4756023324      4.87e-03  
 Alpha HF Exchange    Energy =  -3.73608935205631
 Beta HF Exchange     Energy =  -3.73608935205631
 DFT Correlation      Energy =  -1.84923963037511
 DFT Exchange         Energy = -29.69813645216710
 One-Electron (alpha) Energy = -389.38748876995567
 One-Electron (beta)  Energy = -389.38748876995550
 Total Coulomb        Energy = 326.49000126781533
    3    -317.4336542727      5.82e-03  
 Alpha HF Exchange    Energy =  -3.77347000757749
 Beta HF Exchange     Energy =  -3.77347000757749
 DFT Correlation      Energy =  -1.86070695653745
 DFT Exchange         Energy = -29.99467571420787
 One-Electron (alpha) Energy = -390.59572587142151
 One-Electron (beta)  Energy = -390.59572587142156
 Total Coulomb        Energy = 329.14040139768940
    4    -317.5824962450      9.37e-04  
 Alpha HF Exchange    Energy =  -3.77760217996296
 Beta HF Exchange     Energy =  -3.77760217996296
 DFT Correlation      Energy =  -1.86252134946912
 DFT Exchange         Energy = -30.03004586150228
 One-Electron (alpha) Energy = -390.94869881456674
 One-Electron (beta)  Energy = -390.94869881456702
 Total Coulomb        Energy = 329.88698701825086
    5    -317.5873053958      2.43e-04  
 Alpha HF Exchange    Energy =  -3.77637409175721
 Beta HF Exchange     Energy =  -3.77637409175721
 DFT Correlation      Energy =  -1.86216688995747
 DFT Exchange         Energy = -30.02022607836787
 One-Electron (alpha) Energy = -390.87593467908982
 One-Electron (beta)  Energy = -390.87593467908988
 Total Coulomb        Energy = 329.72854833037593
    6    -317.5875853936      8.48e-05  
 Alpha HF Exchange    Energy =  -3.77664020992141
 Beta HF Exchange     Energy =  -3.77664020992140
 DFT Correlation      Energy =  -1.86216243885976
 DFT Exchange         Energy = -30.02202428890762
 One-Electron (alpha) Energy = -390.87818238230591
 One-Electron (beta)  Energy = -390.87818238230557
 Total Coulomb        Energy = 329.73533925462908
    7    -317.5876158716      1.72e-05  
 Alpha HF Exchange    Energy =  -3.77659055350132
 Beta HF Exchange     Energy =  -3.77659055350132
 DFT Correlation      Energy =  -1.86216724594630
 DFT Exchange         Energy = -30.02170579709477
 One-Electron (alpha) Energy = -390.87811520775443
 One-Electron (beta)  Energy = -390.87811520775438
 Total Coulomb        Energy = 329.73479052389627
    8    -317.5876172556      5.26e-06  
 Alpha HF Exchange    Energy =  -3.77661437586127
 Beta HF Exchange     Energy =  -3.77661437586127
 DFT Correlation      Energy =  -1.86216973062744
 DFT Exchange         Energy = -30.02187677201374
 One-Electron (alpha) Energy = -390.87870164520206
 One-Electron (beta)  Energy = -390.87870164520200
 Total Coulomb        Energy = 329.73618439924059
    9    -317.5876173595      1.19e-06  
 Alpha HF Exchange    Energy =  -3.77661176763333
 Beta HF Exchange     Energy =  -3.77661176763333
 DFT Correlation      Energy =  -1.86216974830853
 DFT Exchange         Energy = -30.02185813600443
 One-Electron (alpha) Energy = -390.87866353820249
 One-Electron (beta)  Energy = -390.87866353820255
 Total Coulomb        Energy = 329.73608434595064
   10    -317.5876173640      4.16e-07  Convergence criterion met
 ---------------------------------------
 SCF time:   CPU 23.39s  wall 2.00s 
<S^2> =          0.000000000
 Alpha HF Exchange    Energy =  -3.77661176763333
 Beta HF Exchange     Energy =  -3.77661176763333
 DFT Correlation      Energy =  -1.86216974830853
 DFT Exchange         Energy = -30.02185813600443
 One-Electron (alpha) Energy = -390.87866353820249
 One-Electron (beta)  Energy = -390.87866353820255
 Total Coulomb        Energy = 329.73608434595064
 Nuclear repulsion Energy = 173.87087678602620
 SCF   energy in the final basis set =     -317.5876173640
 Total energy in the final basis set =     -317.5876173640
 
 --------------------------------------------------------------
 
                    Orbital Energies (a.u.)
 --------------------------------------------------------------
 
 Alpha MOs
 -- Occupied --
-24.714 -24.651 -10.295 -10.204 -10.197  -1.226  -1.140  -0.808
 -0.722  -0.592  -0.509  -0.500  -0.491  -0.475  -0.426  -0.415
 -0.402  -0.374  -0.362  -0.361  -0.272
 -- Virtual --
 -0.000   0.088   0.106   0.124   0.141   0.166   0.177   0.200
  0.253   0.340   0.490   0.536   0.546   0.564   0.596   0.629
  0.648   0.689   0.754   0.772   0.835   0.840   0.859   0.897
  0.918   1.009   1.086   1.137   1.162   1.220   1.246   1.262
  1.267   1.306   1.385   1.396   1.470   1.574   1.598   1.636
  1.702   1.737   1.771   1.812   1.833   1.853   1.885   1.889
  1.937   1.999   2.016   2.045   2.060   2.081   2.108   2.126
  2.227   2.308   2.317   2.396   2.436   2.475   2.547   2.616
  2.638   2.665   2.703   2.722   2.822   2.835   2.861   2.990
  3.097   3.186   3.352   3.407   3.454   3.582   3.671   3.826
  4.181   4.393   4.451   4.887
 
 Beta MOs
 -- Occupied --
-24.714 -24.651 -10.295 -10.204 -10.197  -1.226  -1.140  -0.808
 -0.722  -0.592  -0.509  -0.500  -0.491  -0.475  -0.426  -0.415
 -0.402  -0.374  -0.362  -0.361  -0.272
 -- Virtual --
 -0.000   0.088   0.106   0.124   0.141   0.166   0.177   0.200
  0.253   0.340   0.490   0.536   0.546   0.564   0.596   0.629
  0.648   0.689   0.754   0.772   0.835   0.840   0.859   0.897
  0.918   1.009   1.086   1.137   1.162   1.220   1.246   1.262
  1.267   1.306   1.385   1.396   1.470   1.574   1.598   1.636
  1.702   1.737   1.771   1.812   1.833   1.853   1.885   1.889
  1.937   1.999   2.016   2.045   2.060   2.081   2.108   2.126
  2.227   2.308   2.317   2.396   2.436   2.475   2.547   2.616
  2.638   2.665   2.703   2.722   2.822   2.835   2.861   2.990
  3.097   3.186   3.352   3.407   3.454   3.582   3.671   3.826
  4.181   4.393   4.451   4.887
 --------------------------------------------------------------
 
          Ground-State Mulliken Net Atomic Charges

     Atom                 Charge (a.u.)    Spin (a.u.)
  --------------------------------------------------------
      1 F                    -0.281209      -0.000000
      2 F                    -0.391622       0.000000
      3 C                     0.392874       0.000000
      4 C                    -0.377481      -0.000000
      5 C                    -0.386264      -0.000000
      6 H                     0.353086       0.000000
      7 H                     0.139094      -0.000000
      8 H                     0.125194       0.000000
      9 H                     0.138894       0.000000
     10 H                     0.144059       0.000000
     11 H                     0.143375       0.000000
  --------------------------------------------------------
  Sum of atomic charges =     0.000000
  Sum of spin   charges =    -0.000000

 -----------------------------------------------------------------
                    Cartesian Multipole Moments
 -----------------------------------------------------------------
    Charge (ESU x 10^10)
                 0.0000
    Dipole Moment (Debye)
         X      -0.6276      Y       0.2738      Z       1.2604
       Tot       1.4344
    Quadrupole Moments (Debye-Ang)
        XX     -27.0987     XY      -1.7692     YY     -29.9515
        XZ       3.3463     YZ       2.5535     ZZ     -35.0994
    Octopole Moments (Debye-Ang^2)
       XXX      31.9377    XXY      -5.7641    XYY      12.3098
       YYY     -20.2058    XXZ      -1.3313    XYZ       0.2845
       YYZ      -4.1973    XZZ       9.3000    YZZ     -11.3388
       ZZZ       0.7666
    Hexadecapole Moments (Debye-Ang^3)
      XXXX    -247.0964   XXXY     -13.4312   XXYY     -61.4236
      XYYY      -8.8944   YYYY    -111.5132   XXXZ      32.0418
      XXYZ      15.9479   XYYZ      13.0118   YYYZ      34.2163
      XXZZ     -88.6525   XYZZ      -8.5130   YYZZ     -67.5312
      XZZZ      44.9353   YZZZ      40.9546   ZZZZ    -288.4773
 -----------------------------------------------------------------
 Calculating analytic gradient of the SCF energy
 Gradient of SCF Energy
            1           2           3           4           5           6
    1  -0.0001046  -0.0007233   0.0004599  -0.0013761  -0.0002203   0.0014386
    2  -0.0004305   0.0201200   0.0005013  -0.0031294   0.0002663  -0.0200879
    3   0.0000188  -0.0383697   0.0006286   0.0017337   0.0000883   0.0374490
            7           8           9          10          11
    1   0.0010420  -0.0003079  -0.0000495  -0.0001462  -0.0000127
    2   0.0032268  -0.0002550  -0.0000804  -0.0001174  -0.0000139
    3  -0.0021500   0.0002969   0.0000629   0.0002348   0.0000067
 Max gradient component =       3.837E-02
 RMS gradient           =       1.061E-02
 Gradient time:  CPU 8.20 s  wall 0.70 s
 Geometry Optimization Parameters
   NAtoms,    NIC,     NZ,  NCons,   NDum,   NFix, NCnnct, MaxDiis
       11      72       0       1       0       0       0       0

 Cartesian Hessian Update
 Hessian Updated using BFGS Update


** CONSTRAINED OPTIMIZATION IN DELOCALIZED INTERNAL COORDINATES **
   Searching for a Minimum

   Optimization Cycle:   2

                       Coordinates (Angstroms)
     ATOM                X               Y               Z
      1  F        -1.0458161429   -1.0783269473    1.3216140381
      2  F         0.8759670266    0.7017426682   -2.0381217528
      3  C        -0.6586139294    0.0527272453    0.6889828101
      4  C         0.5541311871    0.5523660851    0.9390855573
      5  C        -1.7104654497    0.5801439444   -0.2284968029
      6  H         0.9087845311    0.2403270018   -1.1707911424
      7  H         0.8669738407    1.4823480859    0.4675954918
      8  H         1.2124477216    0.0737034082    1.6542793985
      9  H        -2.5732318926    0.9320027250    0.3476413720
     10  H        -1.3159568583    1.3913407898   -0.8391345170
     11  H        -2.0605220342   -0.2179700063   -0.8909504526
   Point Group: c1    Number of degrees of freedom:    27


   Energy is   -317.587617364

              Constraints and their Current Values
                                        Value     Constraint
   Distance(Angs):        2   4             2.998275     3.000000
 Hessian Updated using BFGS Update

   Using Lagrange Multiplier Algorithm


 27 Hessian modes will be used to form the next step
  Hessian Eigenvalues:
    -0.945132    0.045000    0.045000    0.045082    0.045531    0.054181
     0.067655    0.076105    0.094229    0.095687    0.098597    0.122428
     0.127179    0.160000    0.160001    0.249999    0.250064    0.330655
     0.332165    0.341843    0.342726    0.348991    0.355737    0.544687
     0.578240    0.582996    1.098562

 Minimum Search - Taking P-RFO Step
 Searching for Lamda that Maximizes Along the Constraint modes Only
 Value Taken    Lamda =   0.00021067
 Searching for Lamda that Minimizes Along All other modes
 Value Taken    Lamda =  -0.00184540
 Step Taken.  Stepsize is  0.062651

                             Maximum     Tolerance    Cnvgd?
         Gradient            0.023809       0.000300      NO
         Displacement        0.034714       0.001200      NO
         Energy change      0.002043       0.000001      NO


 New Cartesian Coordinates Obtained by Inverse Iteration

 Displacement from previous Coordinates is:  0.052800
 ----------------------------------------------------------------
             Standard Nuclear Orientation (Angstroms)
    I     Atom           X                Y                Z
 ----------------------------------------------------------------
    1      F      -1.0463129748    -1.0792443671     1.3223435551
    2      F       0.8644174878     0.6958396754    -2.0351267120
    3      C      -0.6580642659     0.0523526352     0.6918294608
    4      C       0.5535563169     0.5532457882     0.9453145035
    5      C      -1.7060020438     0.5802151543    -0.2297166111
    6      H       0.9009024070     0.2448504030    -1.1852656867
    7      H       0.8628560755     1.4821211975     0.4751473362
    8      H       1.2150441693     0.0746323783     1.6574383604
    9      H      -2.5708932208     0.9330700857     0.3425230669
   10      H      -1.3080969608     1.3910183803    -0.8391732886
   11      H      -2.0537089902    -0.2176963309    -0.8936099845
 ----------------------------------------------------------------
 Nuclear Repulsion Energy =   174.0665906390 hartrees
 There are       21 alpha and       21 beta electrons

                       Distance Matrix (Angstroms)
             F (  1)   F (  2)   C (  3)   C (  4)   C (  5)   H (  6)
   F (  2)  4.251402
   C (  3)  1.352330  3.188780
   C (  4)  2.316626  3.000000  1.335355
   C (  5)  2.365985  3.143236  1.491999  2.546965
   H (  6)  3.439910  0.962801  2.447635  2.180626  2.796693
   H (  7)  3.305036  2.630535  2.098663  1.086063  2.812348  2.071052
   H (  8)  2.560753  3.760834  2.107471  1.083401  3.514183  2.865070
   H (  9)  2.708099  4.184598  2.134618  3.204654  1.095446  3.855016
   H ( 10)  3.292853  2.575538  2.135073  2.711459  1.089572  2.512600
   H ( 11)  2.582162  3.263904  2.129406  3.282351  1.094677  3.004786
             H (  7)   H (  8)   H (  9)   H ( 10)
   H (  8)  1.871596
   H (  9)  3.479897  4.098688
   H ( 10)  2.539444  3.785787  1.789072
   H ( 11)  3.642695  4.156687  1.766286  1.773940
 
 Applying Cartesian multipole field
    Component          Value
    ---------          -----
     (2,0,0)        1.00000E-11
     (0,2,0)        2.00000E-10
     (0,0,2)       -3.00000E-11
 Nucleus-field energy     =     0.0000000117 hartrees
 Requested basis set is 6-31G(d,p)
 There are 38 shells and 105 basis functions
 A cutoff of  1.0D-14 yielded    717 shell pairs
 There are      5624 function pairs
 Smallest overlap matrix eigenvalue = 3.53E-03
 Guess from superposition of atomic densities
 Warning:  Energy on first SCF cycle will be non-variational
 SAD guess density has 42.000000 electrons

 -----------------------------------------------------------------------
  General SCF calculation program by
  Eric Jon Sundstrom, Paul Horn, Yuezhi Mao, Dmitri Zuev, Alec White,
  David Stuck, Shaama M.S., Shane Yost, Joonho Lee, David Small,
  Daniel Levine, Susi Lehtola, Hugh Burton, Evgeny Epifanovsky
 -----------------------------------------------------------------------
 Exchange:     0.2000 Hartree-Fock + 0.0800 Slater + 0.7200 B88
 Correlation:  0.1900 VWN1RPA + 0.8100 LYP
 Using SG-1 standard quadrature grid
 using 12 threads for integral computing
 -------------------------------------------------------
 OpenMP Integral computing Module                
 Release: version 1.0, May 2013, Q-Chem Inc. Pittsburgh 
 -------------------------------------------------------
 -------------------------------------------------------
 OpenMP BLAS3 based DFT computing Module                
 Release: version 1.0, May 2013, Q-Chem Inc. Pittsburgh 
 -------------------------------------------------------
 A unrestricted SCF calculation will be
 performed using DIIS
 SCF converges when DIIS error is below 1.0e-06
 Alpha HF Exchange    Energy =  -3.76746974230906
 Beta HF Exchange     Energy =  -3.76746974230906
 DFT Correlation      Energy =  -1.84590355551071
 DFT Exchange         Energy = -29.63637079795969
 One-Electron (alpha) Energy = -389.30179548902737
 One-Electron (beta)  Energy = -389.30179548902737
 Total Coulomb        Energy = 325.49014574667649
 ---------------------------------------
  Cycle       Energy         DIIS error
 ---------------------------------------
    1    -318.0640684187      3.10e-02  
 Alpha HF Exchange    Energy =  -3.82088619312680
 Beta HF Exchange     Energy =  -3.82088619312680
 DFT Correlation      Energy =  -1.87603893345341
 DFT Exchange         Energy = -30.37356454860938
 One-Electron (alpha) Energy = -392.66238934797985
 One-Electron (beta)  Energy = -392.66238934797985
 Total Coulomb        Energy = 333.67234861540334
    2    -317.4772152981      4.87e-03  
 Alpha HF Exchange    Energy =  -3.73775582844583
 Beta HF Exchange     Energy =  -3.73775582844584
 DFT Correlation      Energy =  -1.84969091278444
 DFT Exchange         Energy = -29.70908251787269
 One-Electron (alpha) Energy = -389.58613766337709
 One-Electron (beta)  Energy = -389.58613766337714
 Total Coulomb        Energy = 326.70362786318810
    3    -317.4363419004      5.77e-03  
 Alpha HF Exchange    Energy =  -3.77445306234617
 Beta HF Exchange     Energy =  -3.77445306234617
 DFT Correlation      Energy =  -1.86101480019670
 DFT Exchange         Energy = -30.00074373973165
 One-Electron (alpha) Energy = -390.77537638313822
 One-Electron (beta)  Energy = -390.77537638313851
 Total Coulomb        Energy = 329.31109810897601
    4    -317.5837286712      9.47e-04  
 Alpha HF Exchange    Energy =  -3.77871842352569
 Beta HF Exchange     Energy =  -3.77871842352569
 DFT Correlation      Energy =  -1.86283579059153
 DFT Exchange         Energy = -30.03709794443980
 One-Electron (alpha) Energy = -391.13190290779704
 One-Electron (beta)  Energy = -391.13190290779715
 Total Coulomb        Energy = 330.06590097564731
    5    -317.5886847713      2.42e-04  
 Alpha HF Exchange    Energy =  -3.77749653000038
 Beta HF Exchange     Energy =  -3.77749653000038
 DFT Correlation      Energy =  -1.86249363470344
 DFT Exchange         Energy = -30.02736783227310
 One-Electron (alpha) Energy = -391.06131857902625
 One-Electron (beta)  Energy = -391.06131857902625
 Total Coulomb        Energy = 329.91193918352042
    6    -317.5889618508      8.17e-05  
 Alpha HF Exchange    Energy =  -3.77774303277766
 Beta HF Exchange     Energy =  -3.77774303277765
 DFT Correlation      Energy =  -1.86248192954619
 DFT Exchange         Energy = -30.02900373412571
 One-Electron (alpha) Energy = -391.06216752321671
 One-Electron (beta)  Energy = -391.06216752321654
 Total Coulomb        Energy = 329.91572604725388
    7    -317.5889900777      1.71e-05  
 Alpha HF Exchange    Energy =  -3.77769363175647
 Beta HF Exchange     Energy =  -3.77769363175647
 DFT Correlation      Energy =  -1.86248759726872
 DFT Exchange         Energy = -30.02869029453830
 One-Electron (alpha) Energy = -391.06227808554195
 One-Electron (beta)  Energy = -391.06227808554195
 Total Coulomb        Energy = 329.91553925819176
    8    -317.5889914175      5.44e-06  
 Alpha HF Exchange    Energy =  -3.77771742406308
 Beta HF Exchange     Energy =  -3.77771742406308
 DFT Correlation      Energy =  -1.86249002434551
 DFT Exchange         Energy = -30.02886061238966
 One-Electron (alpha) Energy = -391.06284565491097
 One-Electron (beta)  Energy = -391.06284565491120
 Total Coulomb        Energy = 329.91689461612987
    9    -317.5889915278      1.15e-06  
 Alpha HF Exchange    Energy =  -3.77771510074263
 Beta HF Exchange     Energy =  -3.77771510074263
 DFT Correlation      Energy =  -1.86249003380660
 DFT Exchange         Energy = -30.02884398140954
 One-Electron (alpha) Energy = -391.06281040879372
 One-Electron (beta)  Energy = -391.06281040879355
 Total Coulomb        Energy = 329.91680285152381
   10    -317.5889915320      3.98e-07  Convergence criterion met
 ---------------------------------------
 SCF time:   CPU 23.48s  wall 2.00s 
<S^2> =          0.000000000
 Alpha HF Exchange    Energy =  -3.77771510074263
 Beta HF Exchange     Energy =  -3.77771510074263
 DFT Correlation      Energy =  -1.86249003380660
 DFT Exchange         Energy = -30.02884398140954
 One-Electron (alpha) Energy = -391.06281040879372
 One-Electron (beta)  Energy = -391.06281040879355
 Total Coulomb        Energy = 329.91680285152381
 Nuclear repulsion Energy = 174.06659065075200
 SCF   energy in the final basis set =     -317.5889915320
 Total energy in the final basis set =     -317.5889915320
 
 --------------------------------------------------------------
 
                    Orbital Energies (a.u.)
 --------------------------------------------------------------
 
 Alpha MOs
 -- Occupied --
-24.713 -24.652 -10.294 -10.203 -10.196  -1.226  -1.147  -0.807
 -0.721  -0.592  -0.510  -0.502  -0.492  -0.476  -0.425  -0.415
 -0.402  -0.373  -0.365  -0.363  -0.271
 -- Virtual --
  0.001   0.090   0.107   0.127   0.142   0.167   0.178   0.201
  0.253   0.341   0.491   0.536   0.548   0.564   0.597   0.629
  0.648   0.690   0.756   0.775   0.836   0.841   0.861   0.898
  0.919   1.009   1.086   1.136   1.162   1.220   1.245   1.261
  1.268   1.307   1.386   1.396   1.471   1.575   1.599   1.636
  1.701   1.738   1.772   1.812   1.833   1.853   1.882   1.887
  1.940   2.001   2.017   2.046   2.061   2.083   2.109   2.127
  2.229   2.309   2.320   2.403   2.442   2.500   2.548   2.618
  2.640   2.667   2.723   2.740   2.824   2.837   2.861   2.992
  3.097   3.187   3.355   3.408   3.455   3.586   3.686   3.839
  4.182   4.393   4.453   4.889
 
 Beta MOs
 -- Occupied --
-24.713 -24.652 -10.294 -10.203 -10.196  -1.226  -1.147  -0.807
 -0.721  -0.592  -0.510  -0.502  -0.492  -0.476  -0.425  -0.415
 -0.402  -0.373  -0.365  -0.363  -0.271
 -- Virtual --
  0.001   0.090   0.107   0.127   0.142   0.167   0.178   0.201
  0.253   0.341   0.491   0.536   0.548   0.564   0.597   0.629
  0.648   0.690   0.756   0.775   0.836   0.841   0.861   0.898
  0.919   1.009   1.086   1.136   1.162   1.220   1.245   1.261
  1.268   1.307   1.386   1.396   1.471   1.575   1.599   1.636
  1.701   1.738   1.772   1.812   1.833   1.853   1.882   1.887
  1.940   2.001   2.017   2.046   2.061   2.083   2.109   2.127
  2.229   2.309   2.320   2.403   2.442   2.500   2.548   2.618
  2.640   2.667   2.723   2.740   2.824   2.837   2.861   2.992
  3.097   3.187   3.355   3.408   3.455   3.586   3.686   3.839
  4.182   4.393   4.453   4.889
 --------------------------------------------------------------
 
          Ground-State Mulliken Net Atomic Charges

     Atom                 Charge (a.u.)    Spin (a.u.)
  --------------------------------------------------------
      1 F                    -0.281520       0.000000
      2 F                    -0.384168       0.000000
      3 C                     0.391159       0.000000
      4 C                    -0.374689      -0.000000
      5 C                    -0.386556       0.000000
      6 H                     0.349126      -0.000000
      7 H                     0.137117      -0.000000
      8 H                     0.124578       0.000000
      9 H                     0.138511      -0.000000
     10 H                     0.143423      -0.000000
     11 H                     0.143020      -0.000000
  --------------------------------------------------------
  Sum of atomic charges =     0.000000
  Sum of spin   charges =     0.000000

 -----------------------------------------------------------------
                    Cartesian Multipole Moments
 -----------------------------------------------------------------
    Charge (ESU x 10^10)
                -0.0000
    Dipole Moment (Debye)
         X      -0.5887      Y       0.2863      Z       1.1986
       Tot       1.3657
    Quadrupole Moments (Debye-Ang)
        XX     -27.0925     XY      -1.7418     YY     -29.9381
        XZ       3.2752     YZ       2.5140     ZZ     -35.0139
    Octopole Moments (Debye-Ang^2)
       XXX      32.2084    XXY      -5.7194    XYY      12.3892
       YYY     -20.1125    XXZ      -1.4991    XYZ       0.2215
       YYZ      -4.3137    XZZ       9.5264    YZZ     -11.2502
       ZZZ       0.3093
    Hexadecapole Moments (Debye-Ang^3)
      XXXX    -245.7774   XXXY     -13.2404   XXYY     -61.1818
      XYYY      -8.7518   YYYY    -111.3818   XXXZ      31.4299
      XXYZ      15.7803   XYYZ      12.7967   YYYZ      33.9430
      XXZZ     -88.2703   XYZZ      -8.3494   YYZZ     -67.5043
      XZZZ      44.1604   YZZZ      40.5491   ZZZZ    -288.4932
 -----------------------------------------------------------------
 Calculating analytic gradient of the SCF energy
 Gradient of SCF Energy
            1           2           3           4           5           6
    1   0.0000718  -0.0004191  -0.0003395  -0.0004366  -0.0000703   0.0009335
    2  -0.0001359   0.0128216   0.0002933  -0.0017914   0.0000711  -0.0127853
    3  -0.0000231  -0.0247069   0.0004211   0.0012729   0.0000918   0.0240251
            7           8           9          10          11
    1   0.0003319  -0.0001028   0.0000171   0.0000015   0.0000126
    2   0.0018220  -0.0002220  -0.0000728   0.0000005  -0.0000011
    3  -0.0013492   0.0000809   0.0000760   0.0000962   0.0000151
 Max gradient component =       2.471E-02
 RMS gradient           =       6.803E-03
 Gradient time:  CPU 8.27 s  wall 0.73 s
 Geometry Optimization Parameters
   NAtoms,    NIC,     NZ,  NCons,   NDum,   NFix, NCnnct, MaxDiis
       11      72       0       1       0       0       0       0

 Cartesian Hessian Update
 Hessian Updated using BFGS Update


** CONSTRAINED OPTIMIZATION IN DELOCALIZED INTERNAL COORDINATES **
   Searching for a Minimum

   Optimization Cycle:   3

                       Coordinates (Angstroms)
     ATOM                X               Y               Z
      1  F        -1.0463129748   -1.0792443671    1.3223435551
      2  F         0.8644174878    0.6958396754   -2.0351267120
      3  C        -0.6580642659    0.0523526352    0.6918294608
      4  C         0.5535563169    0.5532457882    0.9453145035
      5  C        -1.7060020438    0.5802151543   -0.2297166111
      6  H         0.9009024070    0.2448504030   -1.1852656867
      7  H         0.8628560755    1.4821211975    0.4751473362
      8  H         1.2150441693    0.0746323783    1.6574383604
      9  H        -2.5708932208    0.9330700857    0.3425230669
     10  H        -1.3080969608    1.3910183803   -0.8391732886
     11  H        -2.0537089902   -0.2176963309   -0.8936099845
   Point Group: c1    Number of degrees of freedom:    27


   Energy is   -317.588991532

              Constraints and their Current Values
                                        Value     Constraint
   Distance(Angs):        2   4             3.000000     3.000000
 Hessian Updated using BFGS Update

 26 Hessian modes will be used to form the next step
  Hessian Eigenvalues:
     0.044871    0.045000    0.045020    0.045377    0.053680    0.064564
     0.074598    0.094227    0.095683    0.098547    0.117440    0.127219
     0.159957    0.160000    0.160004    0.246589    0.250158    0.252182
     0.332287    0.335777    0.341846    0.342727    0.349045    0.355739
     0.544978    0.582904

 Minimum Search - Taking Simple RFO Step
 Searching for Lamda that Minimizes Along All modes
 Value Taken    Lamda =  -0.00188617
 Step Taken.  Stepsize is  0.108899

                             Maximum     Tolerance    Cnvgd?
         Gradient           0.015128      0.000300      NO
         Displacement       0.061793      0.001200      NO
         Energy change     -0.001374      0.000001      NO


 New Cartesian Coordinates Obtained by Inverse Iteration

 Displacement from previous Coordinates is:  0.090604
 ----------------------------------------------------------------
             Standard Nuclear Orientation (Angstroms)
    I     Atom           X                Y                Z
 ----------------------------------------------------------------
    1      F      -1.0469342855    -1.0804109127     1.3224862138
    2      F       0.8424454227     0.6866010740    -2.0274203672
    3      C      -0.6553534575     0.0521622338     0.6956715867
    4      C       0.5536309652     0.5550479087     0.9557453166
    5      C      -1.6985033511     0.5803099597    -0.2322726046
    6      H       0.8864902518     0.2514268316    -1.2099862906
    7      H       0.8609199685     1.4819178219     0.4881827978
    8      H       1.2179908230     0.0762037860     1.6646753018
    9      H      -2.5674935183     0.9342236572     0.3331317634
   10      H      -1.2973251926     1.3905774070    -0.8402556543
   11      H      -2.0421696262    -0.2176547672    -0.8982540634
 ----------------------------------------------------------------
 Nuclear Repulsion Energy =   174.4497458557 hartrees
 There are       21 alpha and       21 beta electrons

                       Distance Matrix (Angstroms)
             F (  1)   F (  2)   C (  3)   C (  4)   C (  5)   H (  6)
   F (  2)  4.232489
   C (  3)  1.352388  3.171931
   C (  4)  2.317549  3.000000  1.334982
   C (  5)  2.366392  3.112920  1.492710  2.546396
   H (  6)  3.453308  0.927100  2.459374  2.212097  2.783214
   H (  7)  3.301742  2.638395  2.094359  1.082649  2.807597  2.097270
   H (  8)  2.566074  3.761009  2.109257  1.083165  3.515462  2.899013
   H (  9)  2.711028  4.154661  2.136761  3.205127  1.095482  3.844142
   H ( 10)  3.293316  2.546284  2.136014  2.711046  1.089551  2.490666
   H ( 11)  2.581962  3.227026  2.129943  3.282158  1.094708  2.982325
             H (  7)   H (  8)   H (  9)   H ( 10)
   H (  8)  1.867529
   H (  9)  3.475346  4.103547
   H ( 10)  2.535964  3.785376  1.788414
   H ( 11)  3.638500  4.157356  1.766097  1.773293
 
 Applying Cartesian multipole field
    Component          Value
    ---------          -----
     (2,0,0)        1.00000E-11
     (0,2,0)        2.00000E-10
     (0,0,2)       -3.00000E-11
 Nucleus-field energy     =     0.0000000116 hartrees
 Requested basis set is 6-31G(d,p)
 There are 38 shells and 105 basis functions
 A cutoff of  1.0D-14 yielded    717 shell pairs
 There are      5624 function pairs
 Smallest overlap matrix eigenvalue = 3.53E-03
 Guess from superposition of atomic densities
 Warning:  Energy on first SCF cycle will be non-variational
 SAD guess density has 42.000000 electrons

 -----------------------------------------------------------------------
  General SCF calculation program by
  Eric Jon Sundstrom, Paul Horn, Yuezhi Mao, Dmitri Zuev, Alec White,
  David Stuck, Shaama M.S., Shane Yost, Joonho Lee, David Small,
  Daniel Levine, Susi Lehtola, Hugh Burton, Evgeny Epifanovsky
 -----------------------------------------------------------------------
 Exchange:     0.2000 Hartree-Fock + 0.0800 Slater + 0.7200 B88
 Correlation:  0.1900 VWN1RPA + 0.8100 LYP
 Using SG-1 standard quadrature grid
 using 12 threads for integral computing
 -------------------------------------------------------
 OpenMP Integral computing Module                
 Release: version 1.0, May 2013, Q-Chem Inc. Pittsburgh 
 -------------------------------------------------------
 -------------------------------------------------------
 OpenMP BLAS3 based DFT computing Module                
 Release: version 1.0, May 2013, Q-Chem Inc. Pittsburgh 
 -------------------------------------------------------
 A unrestricted SCF calculation will be
 performed using DIIS
 SCF converges when DIIS error is below 1.0e-06
 Alpha HF Exchange    Energy =  -3.77009232137592
 Beta HF Exchange     Energy =  -3.77009232137592
 DFT Correlation      Energy =  -1.84641320283560
 DFT Exchange         Energy = -29.64305454830060
 One-Electron (alpha) Energy = -389.64623255288046
 One-Electron (beta)  Energy = -389.64623255288046
 Total Coulomb        Energy = 325.78699194569538
 ---------------------------------------
  Cycle       Energy         DIIS error
 ---------------------------------------
    1    -318.0853796867      3.13e-02  
 Alpha HF Exchange    Energy =  -3.82281041458953
 Beta HF Exchange     Energy =  -3.82281041458953
 DFT Correlation      Energy =  -1.87657353596108
 DFT Exchange         Energy = -30.38658035272697
 One-Electron (alpha) Energy = -393.02808884397120
 One-Electron (beta)  Energy = -393.02808884397109
 Total Coulomb        Energy = 334.03697232118242
    2    -317.4782342173      4.88e-03  
 Alpha HF Exchange    Energy =  -3.74057302866401
 Beta HF Exchange     Energy =  -3.74057302866401
 DFT Correlation      Energy =  -1.85045885300901
 DFT Exchange         Energy = -29.72761035898391
 One-Electron (alpha) Energy = -389.96706264624254
 One-Electron (beta)  Energy = -389.96706264624271
 Total Coulomb        Energy = 327.10471562896032
    3    -317.4388790656      5.72e-03  
 Alpha HF Exchange    Energy =  -3.77626706910580
 Beta HF Exchange     Energy =  -3.77626706910580
 DFT Correlation      Energy =  -1.86157005742415
 DFT Exchange         Energy = -30.01212953155324
 One-Electron (alpha) Energy = -391.12869554623825
 One-Electron (beta)  Energy = -391.12869554623819
 Total Coulomb        Energy = 329.64962387464050
    4    -317.5842550777      9.67e-04  
 Alpha HF Exchange    Energy =  -3.78072103271061
 Beta HF Exchange     Energy =  -3.78072103271061
 DFT Correlation      Energy =  -1.86339723860580
 DFT Exchange         Energy = -30.04988061387994
 One-Electron (alpha) Energy = -391.49022828465394
 One-Electron (beta)  Energy = -391.49022828465371
 Total Coulomb        Energy = 330.41596023177971
    5    -317.5894703881      2.37e-04  
 Alpha HF Exchange    Energy =  -3.77953033500350
 Beta HF Exchange     Energy =  -3.77953033500350
 DFT Correlation      Energy =  -1.86307792902054
 DFT Exchange         Energy = -30.04045480085541
 One-Electron (alpha) Energy = -391.42378603475981
 One-Electron (beta)  Energy = -391.42378603475970
 Total Coulomb        Energy = 330.27068393794616
    6    -317.5897356642      7.64e-05  
 Alpha HF Exchange    Energy =  -3.77974434958641
 Beta HF Exchange     Energy =  -3.77974434958641
 DFT Correlation      Energy =  -1.86305558226595
 DFT Exchange         Energy = -30.04182540816694
 One-Electron (alpha) Energy = -391.42254692707593
 One-Electron (beta)  Energy = -391.42254692707570
 Total Coulomb        Energy = 330.26995741774277
    7    -317.5897602587      1.70e-05  
 Alpha HF Exchange    Energy =  -3.77969527440478
 Beta HF Exchange     Energy =  -3.77969527440479
 DFT Correlation      Energy =  -1.86306249986865
 DFT Exchange         Energy = -30.04151939675185
 One-Electron (alpha) Energy = -391.42292521211203
 One-Electron (beta)  Energy = -391.42292521211226
 Total Coulomb        Energy = 330.27031545538773
    8    -317.5897615470      5.75e-06  
 Alpha HF Exchange    Energy =  -3.77971902654989
 Beta HF Exchange     Energy =  -3.77971902654989
 DFT Correlation      Energy =  -1.86306492427084
 DFT Exchange         Energy = -30.04168895813061
 One-Electron (alpha) Energy = -391.42347438562456
 One-Electron (beta)  Energy = -391.42347438562427
 Total Coulomb        Energy = 330.27163317106454
    9    -317.5897616684      1.06e-06  
 Alpha HF Exchange    Energy =  -3.77971713818699
 Beta HF Exchange     Energy =  -3.77971713818699
 DFT Correlation      Energy =  -1.86306489410560
 DFT Exchange         Energy = -30.04167522162457
 One-Electron (alpha) Energy = -391.42343765806100
 One-Electron (beta)  Energy = -391.42343765806089
 Total Coulomb        Energy = 330.27154216886794
   10    -317.5897616721      3.62e-07  Convergence criterion met
 ---------------------------------------
 SCF time:   CPU 23.45s  wall 2.00s 
<S^2> =         -0.000000000
 Alpha HF Exchange    Energy =  -3.77971713818699
 Beta HF Exchange     Energy =  -3.77971713818699
 DFT Correlation      Energy =  -1.86306489410560
 DFT Exchange         Energy = -30.04167522162457
 One-Electron (alpha) Energy = -391.42343765806100
 One-Electron (beta)  Energy = -391.42343765806089
 Total Coulomb        Energy = 330.27154216886794
 Nuclear repulsion Energy = 174.44974586729580
 SCF   energy in the final basis set =     -317.5897616721
 Total energy in the final basis set =     -317.5897616721
 
 --------------------------------------------------------------
 
                    Orbital Energies (a.u.)
 --------------------------------------------------------------
 
 Alpha MOs
 -- Occupied --
-24.712 -24.655 -10.292 -10.202 -10.195  -1.224  -1.160  -0.806
 -0.720  -0.591  -0.515  -0.503  -0.492  -0.475  -0.425  -0.414
 -0.401  -0.373  -0.370  -0.368  -0.270
 -- Virtual --
  0.003   0.092   0.108   0.132   0.146   0.167   0.179   0.202
  0.254   0.342   0.492   0.537   0.552   0.566   0.597   0.630
  0.649   0.691   0.759   0.781   0.836   0.843   0.867   0.901
  0.920   1.010   1.086   1.136   1.161   1.221   1.243   1.261
  1.270   1.310   1.387   1.396   1.471   1.577   1.602   1.637
  1.701   1.740   1.774   1.813   1.834   1.854   1.878   1.884
  1.943   2.003   2.018   2.047   2.062   2.085   2.110   2.129
  2.233   2.310   2.325   2.409   2.448   2.550   2.560   2.622
  2.644   2.671   2.759   2.773   2.828   2.841   2.862   2.996
  3.098   3.188   3.359   3.409   3.456   3.591   3.721   3.864
  4.185   4.393   4.457   4.891
 
 Beta MOs
 -- Occupied --
-24.712 -24.655 -10.292 -10.202 -10.195  -1.224  -1.160  -0.806
 -0.720  -0.591  -0.515  -0.503  -0.492  -0.475  -0.425  -0.414
 -0.401  -0.373  -0.370  -0.368  -0.270
 -- Virtual --
  0.003   0.092   0.108   0.132   0.146   0.167   0.179   0.202
  0.254   0.342   0.492   0.537   0.552   0.566   0.597   0.630
  0.649   0.691   0.759   0.781   0.836   0.843   0.867   0.901
  0.920   1.010   1.086   1.136   1.161   1.221   1.243   1.261
  1.270   1.310   1.387   1.396   1.471   1.577   1.602   1.637
  1.701   1.740   1.774   1.813   1.834   1.854   1.878   1.884
  1.943   2.003   2.018   2.047   2.062   2.085   2.110   2.129
  2.233   2.310   2.325   2.409   2.448   2.550   2.560   2.622
  2.644   2.671   2.759   2.773   2.828   2.841   2.862   2.996
  3.098   3.188   3.359   3.409   3.456   3.591   3.721   3.864
  4.185   4.393   4.457   4.891
 --------------------------------------------------------------
 
          Ground-State Mulliken Net Atomic Charges

     Atom                 Charge (a.u.)    Spin (a.u.)
  --------------------------------------------------------
      1 F                    -0.282311       0.000000
      2 F                    -0.368898      -0.000000
      3 C                     0.388438       0.000000
      4 C                    -0.370000      -0.000000
      5 C                    -0.387037      -0.000000
      6 H                     0.339597       0.000000
      7 H                     0.134151       0.000000
      8 H                     0.123562      -0.000000
      9 H                     0.137794       0.000000
     10 H                     0.142411      -0.000000
     11 H                     0.142293      -0.000000
  --------------------------------------------------------
  Sum of atomic charges =    -0.000000
  Sum of spin   charges =    -0.000000

 -----------------------------------------------------------------
                    Cartesian Multipole Moments
 -----------------------------------------------------------------
    Charge (ESU x 10^10)
                 0.0000
    Dipole Moment (Debye)
         X      -0.5165      Y       0.3075      Z       1.0914
       Tot       1.2460
    Quadrupole Moments (Debye-Ang)
        XX     -27.0780     XY      -1.6929     YY     -29.9141
        XZ       3.1519     YZ       2.4505     ZZ     -34.8456
    Octopole Moments (Debye-Ang^2)
       XXX      32.6573    XXY      -5.6309    XYY      12.5292
       YYY     -19.9696    XXZ      -1.8084    XYZ       0.1240
       YYZ      -4.5127    XZZ       9.9347    YZZ     -11.1007
       ZZZ      -0.5059
    Hexadecapole Moments (Debye-Ang^3)
      XXXX    -243.4475   XXXY     -12.9221   XXYY     -60.7334
      XYYY      -8.4962   YYYY    -111.1684   XXXZ      30.1971
      XXYZ      15.4749   XYYZ      12.3772   YYYZ      33.4472
      XXZZ     -87.5261   XYZZ      -8.0654   YYZZ     -67.3849
      XZZZ      42.5989   YZZZ      39.8168   ZZZZ    -287.9590
 -----------------------------------------------------------------
 Calculating analytic gradient of the SCF energy
 Gradient of SCF Energy
            1           2           3           4           5           6
    1   0.0000586   0.0007291  -0.0003108   0.0003766   0.0000717  -0.0005866
    2   0.0001210  -0.0033205  -0.0000225   0.0000180   0.0000246   0.0033608
    3  -0.0000716   0.0058100   0.0003995   0.0004624  -0.0000646  -0.0060557
            7           8           9          10          11
    1  -0.0004565   0.0001264  -0.0000321   0.0000267  -0.0000030
    2  -0.0001025  -0.0001045   0.0000290  -0.0000248   0.0000214
    3  -0.0001722  -0.0002657  -0.0000358   0.0000039  -0.0000102
 Max gradient component =       6.056E-03
 RMS gradient           =       1.693E-03
 Gradient time:  CPU 8.28 s  wall 0.73 s
 Geometry Optimization Parameters
   NAtoms,    NIC,     NZ,  NCons,   NDum,   NFix, NCnnct, MaxDiis
       11      72       0       1       0       0       0       0

 Cartesian Hessian Update
 Hessian Updated using BFGS Update


** CONSTRAINED OPTIMIZATION IN DELOCALIZED INTERNAL COORDINATES **
   Searching for a Minimum

   Optimization Cycle:   4

                       Coordinates (Angstroms)
     ATOM                X               Y               Z
      1  F        -1.0469342855   -1.0804109127    1.3224862138
      2  F         0.8424454227    0.6866010740   -2.0274203672
      3  C        -0.6553534575    0.0521622338    0.6956715867
      4  C         0.5536309652    0.5550479087    0.9557453166
      5  C        -1.6985033511    0.5803099597   -0.2322726046
      6  H         0.8864902518    0.2514268316   -1.2099862906
      7  H         0.8609199685    1.4819178219    0.4881827978
      8  H         1.2179908230    0.0762037860    1.6646753018
      9  H        -2.5674935183    0.9342236572    0.3331317634
     10  H        -1.2973251926    1.3905774070   -0.8402556543
     11  H        -2.0421696262   -0.2176547672   -0.8982540634
   Point Group: c1    Number of degrees of freedom:    27


   Energy is   -317.589761672

              Constraints and their Current Values
                                        Value     Constraint
   Distance(Angs):        2   4             3.000000     3.000000
 Hessian Updated using BFGS Update

 26 Hessian modes will be used to form the next step
  Hessian Eigenvalues:
     0.044867    0.045000    0.045046    0.045301    0.054006    0.065165
     0.074135    0.094229    0.095688    0.098641    0.119451    0.127257
     0.159991    0.160000    0.160011    0.249910    0.250109    0.296263
     0.332289    0.341845    0.342725    0.345884    0.349069    0.355738
     0.545032    0.582930

 Minimum Search - Taking Simple RFO Step
 Searching for Lamda that Minimizes Along All modes
 Value Taken    Lamda =  -0.00009725
 Step Taken.  Stepsize is  0.020216

                             Maximum     Tolerance    Cnvgd?
         Gradient           0.004049      0.000300      NO
         Displacement       0.011283      0.001200      NO
         Energy change     -0.000770      0.000001      NO


 New Cartesian Coordinates Obtained by Inverse Iteration

 Displacement from previous Coordinates is:  0.013460
 ----------------------------------------------------------------
             Standard Nuclear Orientation (Angstroms)
    I     Atom           X                Y                Z
 ----------------------------------------------------------------
    1      F      -1.0465799918    -1.0798383511     1.3220174009
    2      F       0.8407728583     0.6887128944    -2.0284244285
    3      C      -0.6548932345     0.0524131209     0.6945011739
    4      C       0.5541416334     0.5550083685     0.9548561758
    5      C      -1.6985014495     0.5801674698    -0.2329291655
    6      H       0.8857458514     0.2499707368    -1.2048718717
    7      H       0.8633519101     1.4815892635     0.4876181057
    8      H       1.2171475498     0.0761290835     1.6651489234
    9      H      -2.5669478862     0.9337328675     0.3334787371
   10      H      -1.2980719251     1.3905936094    -0.8412666066
   11      H      -2.0424673159    -0.2180740632    -0.8984244443
 ----------------------------------------------------------------
 Nuclear Repulsion Energy =   174.4288032790 hartrees
 There are       21 alpha and       21 beta electrons

                       Distance Matrix (Angstroms)
             F (  1)   F (  2)   C (  3)   C (  4)   C (  5)   H (  6)
   F (  2)  4.232651
   C (  3)  1.352475  3.171154
   C (  4)  2.317292  3.000000  1.334973
   C (  5)  2.366111  3.111832  1.492572  2.546737
   H (  6)  3.447817  0.934214  2.453613  2.206226  2.780654
   H (  7)  3.302268  2.638112  2.095331  1.082809  2.809776  2.093301
   H (  8)  2.564851  3.762898  2.108852  1.083244  3.515361  2.894316
   H (  9)  2.709833  4.153454  2.136121  3.204800  1.095457  3.841243
   H ( 10)  3.293339  2.544924  2.136115  2.712002  1.089591  2.490440
   H ( 11)  2.581626  3.226800  2.129774  3.282481  1.094708  2.981176
             H (  7)   H (  8)   H (  9)   H ( 10)
   H (  8)  1.867369
   H (  9)  3.477192  4.102220
   H ( 10)  2.538891  3.786326  1.788517
   H ( 11)  3.640571  4.157349  1.766161  1.773472
 
 Applying Cartesian multipole field
    Component          Value
    ---------          -----
     (2,0,0)        1.00000E-11
     (0,2,0)        2.00000E-10
     (0,0,2)       -3.00000E-11
 Nucleus-field energy     =     0.0000000116 hartrees
 Requested basis set is 6-31G(d,p)
 There are 38 shells and 105 basis functions
 A cutoff of  1.0D-14 yielded    717 shell pairs
 There are      5624 function pairs
 Smallest overlap matrix eigenvalue = 3.53E-03
 Guess from superposition of atomic densities
 Warning:  Energy on first SCF cycle will be non-variational
 SAD guess density has 42.000000 electrons

 -----------------------------------------------------------------------
  General SCF calculation program by
  Eric Jon Sundstrom, Paul Horn, Yuezhi Mao, Dmitri Zuev, Alec White,
  David Stuck, Shaama M.S., Shane Yost, Joonho Lee, David Small,
  Daniel Levine, Susi Lehtola, Hugh Burton, Evgeny Epifanovsky
 -----------------------------------------------------------------------
 Exchange:     0.2000 Hartree-Fock + 0.0800 Slater + 0.7200 B88
 Correlation:  0.1900 VWN1RPA + 0.8100 LYP
 Using SG-1 standard quadrature grid
 using 12 threads for integral computing
 -------------------------------------------------------
 OpenMP Integral computing Module                
 Release: version 1.0, May 2013, Q-Chem Inc. Pittsburgh 
 -------------------------------------------------------
 -------------------------------------------------------
 OpenMP BLAS3 based DFT computing Module                
 Release: version 1.0, May 2013, Q-Chem Inc. Pittsburgh 
 -------------------------------------------------------
 A unrestricted SCF calculation will be
 performed using DIIS
 SCF converges when DIIS error is below 1.0e-06
 Alpha HF Exchange    Energy =  -3.76959734422709
 Beta HF Exchange     Energy =  -3.76959734422709
 DFT Correlation      Energy =  -1.84634377954828
 DFT Exchange         Energy = -29.64176262527193
 One-Electron (alpha) Energy = -389.63325650313942
 One-Electron (beta)  Energy = -389.63325650313942
 Total Coulomb        Energy = 325.78362333940731
 ---------------------------------------
  Cycle       Energy         DIIS error
 ---------------------------------------
    1    -318.0813874695      3.12e-02  
 Alpha HF Exchange    Energy =  -3.82242188639301
 Beta HF Exchange     Energy =  -3.82242188639302
 DFT Correlation      Energy =  -1.87648939652461
 DFT Exchange         Energy = -30.38394094029425
 One-Electron (alpha) Energy = -393.01049514518320
 One-Electron (beta)  Energy = -393.01049514518326
 Total Coulomb        Energy = 334.01921821132157
    2    -317.4782428980      4.88e-03  
 Alpha HF Exchange    Energy =  -3.74003726701594
 Beta HF Exchange     Energy =  -3.74003726701593
 DFT Correlation      Energy =  -1.85034263114778
 DFT Exchange         Energy = -29.72410572739260
 One-Electron (alpha) Energy = -389.94810541975659
 One-Electron (beta)  Energy = -389.94810541975642
 Total Coulomb        Energy = 327.08332117210301
    3    -317.4386092694      5.73e-03  
 Alpha HF Exchange    Energy =  -3.77591082168961
 Beta HF Exchange     Energy =  -3.77591082168961
 DFT Correlation      Energy =  -1.86148670319008
 DFT Exchange         Energy = -30.00988703581945
 One-Electron (alpha) Energy = -391.11389804297346
 One-Electron (beta)  Energy = -391.11389804297357
 Total Coulomb        Energy = 329.63783832235248
    4    -317.5843498554      9.63e-04  
 Alpha HF Exchange    Energy =  -3.78032895546393
 Beta HF Exchange     Energy =  -3.78032895546393
 DFT Correlation      Energy =  -1.86331335938606
 DFT Exchange         Energy = -30.04737515461469
 One-Electron (alpha) Energy = -391.47469413067967
 One-Electron (beta)  Energy = -391.47469413067972
 Total Coulomb        Energy = 330.40241916028140
    5    -317.5895122354      2.38e-04  
 Alpha HF Exchange    Energy =  -3.77913053174881
 Beta HF Exchange     Energy =  -3.77913053174881
 DFT Correlation      Energy =  -1.86298926785971
 DFT Exchange         Energy = -30.03787745111018
 One-Electron (alpha) Energy = -391.40735003508070
 One-Electron (beta)  Energy = -391.40735003508064
 Total Coulomb        Energy = 330.25524445328949
    6    -317.5897801087      7.74e-05  
 Alpha HF Exchange    Energy =  -3.77935123417617
 Beta HF Exchange     Energy =  -3.77935123417617
 DFT Correlation      Energy =  -1.86296898736597
 DFT Exchange         Energy = -30.03930222639212
 One-Electron (alpha) Energy = -391.40652370402137
 One-Electron (beta)  Energy = -391.40652370402131
 Total Coulomb        Energy = 330.25541242527538
    7    -317.5898053743      1.70e-05  
 Alpha HF Exchange    Energy =  -3.77930196712108
 Beta HF Exchange     Energy =  -3.77930196712109
 DFT Correlation      Energy =  -1.86297565868064
 DFT Exchange         Energy = -30.03899380901104
 One-Electron (alpha) Energy = -391.40684775823087
 One-Electron (beta)  Energy = -391.40684775823115
 Total Coulomb        Energy = 330.25565895501910
    8    -317.5898066728      5.69e-06  
 Alpha HF Exchange    Energy =  -3.77932573669376
 Beta HF Exchange     Energy =  -3.77932573669377
 DFT Correlation      Energy =  -1.86297807837692
 DFT Exchange         Energy = -30.03916357433837
 One-Electron (alpha) Energy = -391.40739986210360
 One-Electron (beta)  Energy = -391.40739986210372
 Total Coulomb        Energy = 330.25698276763819
    9    -317.5898067920      1.08e-06  
 Alpha HF Exchange    Energy =  -3.77932377074905
 Beta HF Exchange     Energy =  -3.77932377074905
 DFT Correlation      Energy =  -1.86297805881235
 DFT Exchange         Energy = -30.03914934405018
 One-Electron (alpha) Energy = -391.40736414726513
 One-Electron (beta)  Energy = -391.40736414726507
 Total Coulomb        Energy = 330.25689315243909
   10    -317.5898067958      3.70e-07  Convergence criterion met
 ---------------------------------------
 SCF time:   CPU 23.05s  wall 2.00s 
<S^2> =         -0.000000000
 Alpha HF Exchange    Energy =  -3.77932377074905
 Beta HF Exchange     Energy =  -3.77932377074905
 DFT Correlation      Energy =  -1.86297805881235
 DFT Exchange         Energy = -30.03914934405018
 One-Electron (alpha) Energy = -391.40736414726513
 One-Electron (beta)  Energy = -391.40736414726507
 Total Coulomb        Energy = 330.25689315243909
 Nuclear repulsion Energy = 174.42880329062297
 SCF   energy in the final basis set =     -317.5898067958
 Total energy in the final basis set =     -317.5898067958
 
 --------------------------------------------------------------
 
                    Orbital Energies (a.u.)
 --------------------------------------------------------------
 
 Alpha MOs
 -- Occupied --
-24.712 -24.654 -10.292 -10.202 -10.195  -1.224  -1.158  -0.806
 -0.720  -0.591  -0.514  -0.503  -0.492  -0.475  -0.425  -0.414
 -0.401  -0.373  -0.369  -0.367  -0.270
 -- Virtual --
  0.003   0.092   0.108   0.131   0.145   0.167   0.179   0.202
  0.254   0.342   0.492   0.537   0.551   0.566   0.597   0.630
  0.649   0.691   0.758   0.780   0.836   0.843   0.866   0.901
  0.920   1.009   1.086   1.136   1.161   1.221   1.243   1.261
  1.270   1.310   1.386   1.396   1.471   1.577   1.601   1.636
[...]
   Distance(Angs):        2   4             3.000000     3.000000
 Hessian Updated using BFGS Update

 26 Hessian modes will be used to form the next step
  Hessian Eigenvalues:
     0.009568    0.045000    0.045073    0.045269    0.053739    0.060619
     0.068134    0.094259    0.095617    0.096936    0.120698    0.127293
     0.159666    0.160006    0.160148    0.246129    0.250349    0.322086
     0.332362    0.341846    0.342721    0.348967    0.355696    0.412762
     0.544143    0.583051

 Minimum Search - Taking Simple RFO Step
 Searching for Lamda that Minimizes Along All modes
 Value Taken    Lamda =  -0.00000110
 Step Taken.  Stepsize is  0.007329

                             Maximum     Tolerance    Cnvgd?
         Gradient           0.000290      0.000300     YES
         Displacement       0.003891      0.001200      NO
         Energy change     -0.000009      0.000001      NO


 New Cartesian Coordinates Obtained by Inverse Iteration

 Displacement from previous Coordinates is:  0.006146
 ----------------------------------------------------------------
             Standard Nuclear Orientation (Angstroms)
    I     Atom           X                Y                Z
 ----------------------------------------------------------------
    1      F      -1.0436510682    -1.0791385855     1.3182364423
    2      F       0.8189456731     0.6873292657    -2.0271068226
    3      C      -0.6504934215     0.0531623268     0.6908235662
    4      C       0.5566301510     0.5565060845     0.9585377291
    5      C      -1.6941440110     0.5800765225    -0.2370001367
    6      H       0.8756878917     0.2471277243    -1.2059971864
    7      H       0.8737056189     1.4821366243     0.4946572339
    8      H       1.2122224959     0.0782005414     1.6762190707
    9      H      -2.5628643976     0.9306834949     0.3308580510
   10      H      -1.2955886328     1.3921624697    -0.8440180133
   11      H      -2.0367522995    -0.2178414685    -0.9035059341
 ----------------------------------------------------------------
 Nuclear Repulsion Energy =   174.6280178540 hartrees
 There are       21 alpha and       21 beta electrons

                       Distance Matrix (Angstroms)
             F (  1)   F (  2)   C (  3)   C (  4)   C (  5)   H (  6)
   F (  2)  4.216752
   C (  3)  1.352895  3.154135
   C (  4)  2.316380  3.000000  1.334981
   C (  5)  2.365353  3.087330  1.492549  2.548696
   H (  6)  3.437237  0.933391  2.442290  2.209689  2.766559
   H (  7)  3.303736  2.644619  2.098483  1.082827  2.818313  2.101779
   H (  8)  2.560576  3.773636  2.107449  1.083349  3.515573  2.906710
   H (  9)  2.705977  4.129874  2.134662  3.203941  1.095474  3.827899
   H ( 10)  3.293349  2.523439  2.136541  2.716292  1.089404  2.481245
   H ( 11)  2.581515  3.199504  2.130034  3.285187  1.094661  2.964794
             H (  7)   H (  8)   H (  9)   H ( 10)
   H (  8)  1.865936
   H (  9)  3.484386  4.097317
   H ( 10)  2.550683  3.790410  1.788654
   H ( 11)  3.649048  4.159142  1.766227  1.773408
 
 Applying Cartesian multipole field
    Component          Value
    ---------          -----
     (2,0,0)        1.00000E-11
     (0,2,0)        2.00000E-10
     (0,0,2)       -3.00000E-11
 Nucleus-field energy     =     0.0000000116 hartrees
 Requested basis set is 6-31G(d,p)
 There are 38 shells and 105 basis functions
 A cutoff of  1.0D-14 yielded    718 shell pairs
 There are      5628 function pairs
 Smallest overlap matrix eigenvalue = 3.54E-03
 Guess from superposition of atomic densities
 Warning:  Energy on first SCF cycle will be non-variational
 SAD guess density has 42.000000 electrons

 -----------------------------------------------------------------------
  General SCF calculation program by
  Eric Jon Sundstrom, Paul Horn, Yuezhi Mao, Dmitri Zuev, Alec White,
  David Stuck, Shaama M.S., Shane Yost, Joonho Lee, David Small,
  Daniel Levine, Susi Lehtola, Hugh Burton, Evgeny Epifanovsky
 -----------------------------------------------------------------------
 Exchange:     0.2000 Hartree-Fock + 0.0800 Slater + 0.7200 B88
 Correlation:  0.1900 VWN1RPA + 0.8100 LYP
 Using SG-1 standard quadrature grid
 using 12 threads for integral computing
 -------------------------------------------------------
 OpenMP Integral computing Module                
 Release: version 1.0, May 2013, Q-Chem Inc. Pittsburgh 
 -------------------------------------------------------
 -------------------------------------------------------
 OpenMP BLAS3 based DFT computing Module                
 Release: version 1.0, May 2013, Q-Chem Inc. Pittsburgh 
 -------------------------------------------------------
 A unrestricted SCF calculation will be
 performed using DIIS
 SCF converges when DIIS error is below 1.0e-06
 Alpha HF Exchange    Energy =  -3.76963891900980
 Beta HF Exchange     Energy =  -3.76963891900980
 DFT Correlation      Energy =  -1.84642239278852
 DFT Exchange         Energy = -29.64183430387412
 One-Electron (alpha) Energy = -389.83182360099920
 One-Electron (beta)  Energy = -389.83182360099920
 Total Coulomb        Energy = 325.98158921379746
 ---------------------------------------
  Cycle       Energy         DIIS error
 ---------------------------------------
    1    -318.0815746573      3.12e-02  
 Alpha HF Exchange    Energy =  -3.82244022422776
 Beta HF Exchange     Energy =  -3.82244022422776
 DFT Correlation      Energy =  -1.87655321664068
 DFT Exchange         Energy = -30.38404720679498
 One-Electron (alpha) Energy = -393.21090870072538
 One-Electron (beta)  Energy = -393.21090870072555
 Total Coulomb        Energy = 334.22095930179876
    2    -317.4783211059      4.87e-03  
 Alpha HF Exchange    Energy =  -3.74006875936486
 Beta HF Exchange     Energy =  -3.74006875936486
 DFT Correlation      Energy =  -1.85043067481207
 DFT Exchange         Energy = -29.72431479030537
 One-Electron (alpha) Energy = -390.15005788146044
 One-Electron (beta)  Energy = -390.15005788146044
 Total Coulomb        Energy = 327.28826953290803
    3    -317.4387113482      5.72e-03  
 Alpha HF Exchange    Energy =  -3.77593959833139
 Beta HF Exchange     Energy =  -3.77593959833139
 DFT Correlation      Energy =  -1.86155949333214
 DFT Exchange         Energy = -30.01005550228970
 One-Electron (alpha) Energy = -391.31383578513277
 One-Electron (beta)  Energy = -391.31383578513277
 Total Coulomb        Energy = 329.83878811377360
    4    -317.5843597831      9.63e-04  
 Alpha HF Exchange    Energy =  -3.78034922677404
 Beta HF Exchange     Energy =  -3.78034922677405
 DFT Correlation      Energy =  -1.86338568341342
 DFT Exchange         Energy = -30.04748460434023
 One-Electron (alpha) Energy = -391.67516141996572
 One-Electron (beta)  Energy = -391.67516141996589
 Total Coulomb        Energy = 330.60434667144654
    5    -317.5895270442      2.38e-04  
 Alpha HF Exchange    Energy =  -3.77915289317821
 Beta HF Exchange     Energy =  -3.77915289317821
 DFT Correlation      Energy =  -1.86306237593889
 DFT Exchange         Energy = -30.03800508630719
 One-Electron (alpha) Energy = -391.60780471655573
 One-Electron (beta)  Energy = -391.60780471655562
 Total Coulomb        Energy = 330.45717073282839
    6    -317.5897940833      7.73e-05  
 Alpha HF Exchange    Energy =  -3.77937413391414
 Beta HF Exchange     Energy =  -3.77937413391414
 DFT Correlation      Energy =  -1.86304203261382
 DFT Exchange         Energy = -30.03943307659754
 One-Electron (alpha) Energy = -391.60700352118755
 One-Electron (beta)  Energy = -391.60700352118749
 Total Coulomb        Energy = 330.45739326564239
    7    -317.5898192881      1.70e-05  
 Alpha HF Exchange    Energy =  -3.77932448558418
 Beta HF Exchange     Energy =  -3.77932448558418
 DFT Correlation      Energy =  -1.86304866356339
 DFT Exchange         Energy = -30.03912186055945
 One-Electron (alpha) Energy = -391.60731505437798
 One-Electron (beta)  Energy = -391.60731505437803
 Total Coulomb        Energy = 330.45761114650884
    8    -317.5898205919      5.71e-06  
 Alpha HF Exchange    Energy =  -3.77934829884975
 Beta HF Exchange     Energy =  -3.77934829884975
 DFT Correlation      Energy =  -1.86305111028911
 DFT Exchange         Energy = -30.03929202121013
 One-Electron (alpha) Energy = -391.60787127548997
 One-Electron (beta)  Energy = -391.60787127548991
 Total Coulomb        Energy = 330.45894370280683
    9    -317.5898207117      1.08e-06  
 Alpha HF Exchange    Energy =  -3.77934635789871
 Beta HF Exchange     Energy =  -3.77934635789870
 DFT Correlation      Energy =  -1.86305109316976
 DFT Exchange         Energy = -30.03927797797155
 One-Electron (alpha) Energy = -391.60783622278387
 One-Electron (beta)  Energy = -391.60783622278393
 Total Coulomb        Energy = 330.45885565137365
   10    -317.5898207155      3.70e-07  Convergence criterion met
 ---------------------------------------
 SCF time:   CPU 23.44s  wall 2.00s 
<S^2> =         -0.000000000
 Alpha HF Exchange    Energy =  -3.77934635789871
 Beta HF Exchange     Energy =  -3.77934635789870
 DFT Correlation      Energy =  -1.86305109316976
 DFT Exchange         Energy = -30.03927797797155
 One-Electron (alpha) Energy = -391.60783622278387
 One-Electron (beta)  Energy = -391.60783622278393
 Total Coulomb        Energy = 330.45885565137365
 Nuclear repulsion Energy = 174.62801786563023
 SCF   energy in the final basis set =     -317.5898207155
 Total energy in the final basis set =     -317.5898207155
 
 --------------------------------------------------------------
 
                    Orbital Energies (a.u.)
 --------------------------------------------------------------
 
 Alpha MOs
 -- Occupied --
-24.712 -24.655 -10.292 -10.202 -10.195  -1.224  -1.159  -0.806
 -0.720  -0.591  -0.514  -0.503  -0.492  -0.475  -0.425  -0.414
 -0.401  -0.373  -0.369  -0.367  -0.270
 -- Virtual --
  0.003   0.092   0.108   0.132   0.145   0.168   0.179   0.202
  0.254   0.342   0.492   0.537   0.552   0.567   0.597   0.630
  0.649   0.690   0.758   0.780   0.836   0.844   0.867   0.901
  0.920   1.010   1.084   1.136   1.159   1.222   1.243   1.262
  1.271   1.312   1.386   1.397   1.472   1.576   1.601   1.637
  1.700   1.741   1.773   1.813   1.834   1.854   1.878   1.885
  1.943   2.002   2.019   2.048   2.063   2.086   2.110   2.129
  2.233   2.310   2.325   2.407   2.447   2.546   2.553   2.621
  2.642   2.671   2.754   2.767   2.828   2.842   2.863   2.997
  3.099   3.188   3.356   3.410   3.456   3.592   3.714   3.860
  4.183   4.393   4.458   4.888
 
 Beta MOs
 -- Occupied --
-24.712 -24.655 -10.292 -10.202 -10.195  -1.224  -1.159  -0.806
 -0.720  -0.591  -0.514  -0.503  -0.492  -0.475  -0.425  -0.414
 -0.401  -0.373  -0.369  -0.367  -0.270
 -- Virtual --
  0.003   0.092   0.108   0.132   0.145   0.168   0.179   0.202
  0.254   0.342   0.492   0.537   0.552   0.567   0.597   0.630
  0.649   0.690   0.758   0.780   0.836   0.844   0.867   0.901
  0.920   1.010   1.084   1.136   1.159   1.222   1.243   1.262
  1.271   1.312   1.386   1.397   1.472   1.576   1.601   1.637
  1.700   1.741   1.773   1.813   1.834   1.854   1.878   1.885
  1.943   2.002   2.019   2.048   2.063   2.086   2.110   2.129
  2.233   2.310   2.325   2.407   2.447   2.546   2.553   2.621
  2.642   2.671   2.754   2.767   2.828   2.842   2.863   2.997
  3.099   3.188   3.356   3.410   3.456   3.592   3.714   3.860
  4.183   4.393   4.458   4.888
 --------------------------------------------------------------
 
          Ground-State Mulliken Net Atomic Charges

     Atom                 Charge (a.u.)    Spin (a.u.)
  --------------------------------------------------------
      1 F                    -0.282667       0.000000
      2 F                    -0.370989       0.000000
      3 C                     0.387477      -0.000000
      4 C                    -0.369583       0.000000
      5 C                    -0.386566      -0.000000
      6 H                     0.341375      -0.000000
      7 H                     0.134571       0.000000
      8 H                     0.123581      -0.000000
      9 H                     0.137631       0.000000
     10 H                     0.142930       0.000000
     11 H                     0.142240       0.000000
  --------------------------------------------------------
  Sum of atomic charges =    -0.000000
  Sum of spin   charges =     0.000000

 -----------------------------------------------------------------
                    Cartesian Multipole Moments
 -----------------------------------------------------------------
    Charge (ESU x 10^10)
                -0.0000
    Dipole Moment (Debye)
         X      -0.4882      Y       0.3082      Z       1.0995
       Tot       1.2419
    Quadrupole Moments (Debye-Ang)
        XX     -27.0577     XY      -1.6563     YY     -29.9178
        XZ       3.1023     YZ       2.4637     ZZ     -34.8252
    Octopole Moments (Debye-Ang^2)
       XXX      32.7970    XXY      -5.5971    XYY      12.5901
       YYY     -20.0148    XXZ      -1.8670    XYZ       0.1158
       YYZ      -4.4551    XZZ      10.0906    YZZ     -11.1152
       ZZZ      -0.2797
    Hexadecapole Moments (Debye-Ang^3)
      XXXX    -241.4518   XXXY     -12.6428   XXYY     -60.3247
      XYYY      -8.2953   YYYY    -111.1348   XXXZ      28.8749
      XXYZ      15.3710   XYYZ      11.9854   YYYZ      33.3492
      XXZZ     -86.9380   XYZZ      -7.9184   YYZZ     -67.3477
      XZZZ      41.2398   YZZZ      39.7163   ZZZZ    -287.7354
 -----------------------------------------------------------------
 Calculating analytic gradient of the SCF energy
 Gradient of SCF Energy
            1           2           3           4           5           6
    1  -0.0000183   0.0001761   0.0000727  -0.0001029  -0.0000142  -0.0002525
    2   0.0000081  -0.0000678  -0.0000463  -0.0000018   0.0000148   0.0000952
    3   0.0000219  -0.0000275  -0.0000628   0.0002554  -0.0000093  -0.0001343
            7           8           9          10          11
    1   0.0000787   0.0000597   0.0000033   0.0000013  -0.0000038
    2  -0.0000559   0.0000571   0.0000139  -0.0000120  -0.0000053
    3  -0.0000369  -0.0000109  -0.0000006  -0.0000104   0.0000155
 Max gradient component =       2.554E-04
 RMS gradient           =       8.424E-05
 Gradient time:  CPU 8.27 s  wall 0.74 s
 Geometry Optimization Parameters
   NAtoms,    NIC,     NZ,  NCons,   NDum,   NFix, NCnnct, MaxDiis
       11      72       0       1       0       0       0       0

 Cartesian Hessian Update
 Hessian Updated using BFGS Update


** CONSTRAINED OPTIMIZATION IN DELOCALIZED INTERNAL COORDINATES **
   Searching for a Minimum

   Optimization Cycle:   8

                       Coordinates (Angstroms)
     ATOM                X               Y               Z
      1  F        -1.0436510682   -1.0791385855    1.3182364423
      2  F         0.8189456731    0.6873292657   -2.0271068226
      3  C        -0.6504934215    0.0531623268    0.6908235662
      4  C         0.5566301510    0.5565060845    0.9585377291
      5  C        -1.6941440110    0.5800765225   -0.2370001367
      6  H         0.8756878917    0.2471277243   -1.2059971864
      7  H         0.8737056189    1.4821366243    0.4946572339
      8  H         1.2122224959    0.0782005414    1.6762190707
      9  H        -2.5628643976    0.9306834949    0.3308580510
     10  H        -1.2955886328    1.3921624697   -0.8440180133
     11  H        -2.0367522995   -0.2178414685   -0.9035059341
   Point Group: c1    Number of degrees of freedom:    27


   Energy is   -317.589820716

              Constraints and their Current Values
                                        Value     Constraint
   Distance(Angs):        2   4             3.000000     3.000000
 Hessian Updated using BFGS Update

 26 Hessian modes will be used to form the next step
  Hessian Eigenvalues:
     0.006418    0.036024    0.045001    0.046177    0.047265    0.054481
     0.069953    0.094044    0.095669    0.096830    0.121396    0.126026
     0.159678    0.159760    0.160077    0.246793    0.250344    0.320820
     0.332161    0.341844    0.342720    0.348987    0.355699    0.395867
     0.544563    0.583093

 Minimum Search - Taking Simple RFO Step
 Searching for Lamda that Minimizes Along All modes
 Value Taken    Lamda =  -0.00000164
 Step Taken.  Stepsize is  0.012825

                             Maximum     Tolerance    Cnvgd?
         Gradient           0.000149      0.000300     YES
         Displacement       0.007228      0.001200      NO
         Energy change     -0.000001      0.000001     YES


                       Distance Matrix (Angstroms)
             F (  1)   F (  2)   C (  3)   C (  4)   C (  5)   H (  6)
   F (  2)  4.216752
   C (  3)  1.352895  3.154135
   C (  4)  2.316380  3.000000  1.334981
   C (  5)  2.365353  3.087330  1.492549  2.548696
   H (  6)  3.437237  0.933391  2.442290  2.209689  2.766559
   H (  7)  3.303736  2.644619  2.098483  1.082827  2.818313  2.101779
   H (  8)  2.560576  3.773636  2.107449  1.083349  3.515573  2.906710
   H (  9)  2.705977  4.129874  2.134662  3.203941  1.095474  3.827899
   H ( 10)  3.293349  2.523439  2.136541  2.716292  1.089404  2.481245
   H ( 11)  2.581515  3.199504  2.130034  3.285187  1.094661  2.964794
             H (  7)   H (  8)   H (  9)   H ( 10)
   H (  8)  1.865936
   H (  9)  3.484386  4.097317
   H ( 10)  2.550683  3.790410  1.788654
   H ( 11)  3.649048  4.159142  1.766227  1.773408
 
 Final energy is   -317.589820715503     


 ******************************
 **  OPTIMIZATION CONVERGED  **
 ******************************

                       Coordinates (Angstroms)
     ATOM                X               Y               Z
      1  F        -1.0436510682   -1.0791385855    1.3182364423
      2  F         0.8189456731    0.6873292657   -2.0271068226
      3  C        -0.6504934215    0.0531623268    0.6908235662
      4  C         0.5566301510    0.5565060845    0.9585377291
      5  C        -1.6941440110    0.5800765225   -0.2370001367
      6  H         0.8756878917    0.2471277243   -1.2059971864
      7  H         0.8737056189    1.4821366243    0.4946572339
      8  H         1.2122224959    0.0782005414    1.6762190707
      9  H        -2.5628643976    0.9306834949    0.3308580510
     10  H        -1.2955886328    1.3921624697   -0.8440180133
     11  H        -2.0367522995   -0.2178414685   -0.9035059341

Z-matrix Print:
$molecule
0 1
C 
C  1 1.334981
H  2 1.082827 1 120.077647
H  2 1.083349 1 120.902479 3 176.874772 0
F  1 1.352895 2 119.034462 3 -177.677160 0
C  1 1.492549 2 128.596061 3 1.827782 0
H  6 1.089404 1 110.715319 2 9.601849 0
H  6 1.094661 1 109.877800 2 129.531636 0
H  6 1.095474 1 110.197341 2 -112.192180 0
H  3 2.101779 2 81.060924 1 -69.090257 0
F  10 0.933391 3 115.762060 2 158.851666 0
$end

PES scan, value:    3.0000 energy: -317.5898207155
------- Summary of potential scan: ------ 
    3.0000      -317.5898207155
----------------------------------------- 
Archival summary:
1\1\hpc0244\JobtypUnspecified\ProcedureUnspecified\6-31G**\236\knomura\WedMar1318:36:252019WedMar1318:36:252019\0\\#,JobtypUnspecified,ProcedureUnspecified,6-31G**,\\0,1\C\C,1,1.33498\H,2,1.08283,1,120.078\H,2,1.08335,1,120.902,3,176.875,0\F,1,1.3529,2,119.034,3,-177.677,0\C,1,1.49255,2,128.596,3,1.82778,0\H,6,1.0894,1,110.715,2,9.60185,0\H,6,1.09466,1,109.878,2,129.532,0\H,6,1.09547,1,110.197,2,-112.192,0\H,3,2.10178,2,81.0609,1,-69.0903,0\F,10,0.933391,3,115.762,2,158.852,0\\\@

 Total job time:  25.06s(wall), 287.91s(cpu) 
 Wed Mar 13 18:36:25 2019

        *************************************************************
        *                                                           *
        *  Thank you very much for using Q-Chem.  Have a nice day.  *
        *                                                           *
        *************************************************************


