
Running Job 1 of 1 halogens/Flourine/03/F_2_4.xyz.data/inputs/bond_singlet_3.4.in
qchem halogens/Flourine/03/F_2_4.xyz.data/inputs/bond_singlet_3.4.in_4694.0 /staging/scratch/2868761/qchem4694/ 1
/usr/usc/qchem/5.1.1/exe/qcprog.exe_s halogens/Flourine/03/F_2_4.xyz.data/inputs/bond_singlet_3.4.in_4694.0 /staging/scratch/2868761/qchem4694/
Check license passed

                  Welcome to Q-Chem
     A Quantum Leap Into The Future Of Chemistry


 Q-Chem 5.1, Q-Chem, Inc., Pleasanton, CA (2018)

 Yihan Shao,  Zhengting Gan,  E. Epifanovsky,  A. T. B. Gilbert,  M. Wormit,  
 J. Kussmann,  A. W. Lange,  A. Behn,  Jia Deng,  Xintian Feng,  D. Ghosh,  
 M. Goldey,  P. R. Horn,  L. D. Jacobson,  I. Kaliman,  T. Kus,  A. Landau,  
 Jie Liu,  E. I. Proynov,  R. M. Richard,  R. P. Steele,  E. J. Sundstrom,  
 H. L. Woodcock III,  P. M. Zimmerman,  D. Zuev,  B. Albrecht,  E. Alguire,  
 S. A. Baeppler,  D. Barton,  Z. Benda,  Y. A. Bernard,  E. J. Berquist,  
 K. B. Bravaya,  H. Burton,  D. Casanova,  Chun-Min Chang,  Yunqing Chen,  
 A. Chien,  K. D. Closser,  M. P. Coons,  S. Coriani,  S. Dasgupta,  
 A. L. Dempwolff,  M. Diedenhofen,  Hainam Do,  R. G. Edgar,  Po-Tung Fang,  
 S. Faraji,  S. Fatehi,  Qingguo Feng,  K. D. Fenk,  J. Fosso-Tande,  
 Qinghui Ge,  A. Ghysels,  G. Gidofalvi,  J. Gomes,  J. Gonthier,  A. Gunina,  
 D. Hait,  M. W. D. Hanson-Heine,  P. H. P. Harbach,  A. W. Hauser,  
 J. E. Herr,  E. G. Hohenstein,  Z. C. Holden,  Kerwin Hui,  B. C. Huynh,  
 T.-C. Jagau,  Hyunjun Ji,  B. Kaduk,  K. Khistyaev,  Jaehoon Kim,  
 P. Klunzinger,  K. Koh,  D. Kosenkov,  L. Koulias,  T. Kowalczyk,  
 C. M. Krauter,  A. Kunitsa,  Ka Un Lao,  A. Laurent,  K. V. Lawler,  
 Joonho Lee,  D. Lefrancois,  S. Lehtola,  D. S. Levine,  Yi-Pei Li,  
 You-Sheng Lin,  Fenglai Liu,  E. Livshits,  A. Luenser,  P. Manohar,  
 E. Mansoor,  S. F. Manzer,  Shan-Ping Mao,  Yuezhi Mao,  N. Mardirossian,  
 A. V. Marenich,  T. Markovich,  L. A. Martinez-Martinez,  S. A. Maurer,  
 N. J. Mayhall,  S. C. McKenzie,  J.-M. Mewes,  A. F. Morrison,  
 J. W. Mullinax,  K. Nanda,  T. S. Nguyen-Beck,  R. Olivares-Amaya,  
 J. A. Parkhill,  T. M. Perrine,  F. Plasser,  P. Pokhilko,  S. Prager,  
 A. Prociuk,  E. Ramos,  D. R. Rehn,  F. Rob,  M. Schneider,  N. Sergueev,  
 S. M. Sharada,  S. Sharma,  D. W. Small,  T. Stauch,  T. Stein,  
 Yu-Chuan Su,  A. J. W. Thom,  A. Tkatchenko,  T. Tsuchimochi,  N. M. Tubman,  
 L. Vogt,  M. L. Vidal,  O. Vydrov,  M. A. Watson,  J. Wenzel,  
 M. de Wergifosse,  T. A. Wesolowski,  A. White,  J. Witte,  A. Yamada,  
 Jun Yang,  K. Yao,  S. Yeganeh,  S. R. Yost,  Zhi-Qiang You,  A. Zech,  
 Igor Ying Zhang,  Xing Zhang,  Yan Zhao,  Ying Zhu,  B. R. Brooks,  
 G. K. L. Chan,  C. J. Cramer,  M. S. Gordon,  W. J. Hehre,  A. Klamt,  
 M. W. Schmidt,  C. D. Sherrill,  D. G. Truhlar,  A. Aspuru-Guzik,  R. Baer,  
 A. T. Bell,  N. A. Besley,  Jeng-Da Chai,  A. E. DePrince, III,  
 R. A. DiStasio Jr.,  A. Dreuw,  B. D. Dunietz,  T. R. Furlani,  
 Chao-Ping Hsu,  Yousung Jung,  Jing Kong,  D. S. Lambrecht,  WanZhen Liang,  
 C. Ochsenfeld,  V. A. Rassolov,  L. V. Slipchenko,  J. E. Subotnik,  
 T. Van Voorhis,  J. M. Herbert,  A. I. Krylov,  P. M. W. Gill,  M. Head-Gordon

 Contributors to earlier versions of Q-Chem not listed above: 
 R. D. Adamson,  B. Austin,  J. Baker,  G. J. O. Beran,  K. Brandhorst,  
 S. T. Brown,  E. F. C. Byrd,  A. K. Chakraborty,  C.-L. Cheng,  
 Siu Hung Chien,  D. M. Chipman,  D. L. Crittenden,  H. Dachsel,  
 R. J. Doerksen,  A. D. Dutoi,  L. Fusti-Molnar,  W. A. Goddard III,  
 A. Golubeva-Zadorozhnaya,  S. R. Gwaltney,  G. Hawkins,  A. Heyden,  
 S. Hirata,  G. Kedziora,  F. J. Keil,  C. Kelley,  Jihan Kim,  R. A. King,  
 R. Z. Khaliullin,  P. P. Korambath,  W. Kurlancheek,  A. M. Lee,  M. S. Lee,  
 S. V. Levchenko,  Ching Yeh Lin,  D. Liotard,  R. C. Lochan,  I. Lotan,  
 P. E. Maslen,  N. Nair,  D. P. O'Neill,  D. Neuhauser,  E. Neuscamman,  
 C. M. Oana,  R. Olson,  B. Peters,  R. Peverati,  P. A. Pieniazek,  
 Y. M. Rhee,  J. Ritchie,  M. A. Rohrdanz,  E. Rosta,  N. J. Russ,  
 H. F. Schaefer III,  N. E. Schultz,  N. Shenvi,  A. C. Simmonett,  A. Sodt,  
 D. Stuck,  K. S. Thanthiriwatte,  V. Vanovschi,  Tao Wang,  A. Warshel,  
 C. F. Williams,  Q. Wu,  X. Xu,  W. Zhang

 Please cite Q-Chem as follows:
 Y. Shao et al., Mol. Phys. 113, 184-215 (2015)
 DOI: 10.1080/00268976.2014.952696

 Q-Chem 5.1.1 for Intel X86 EM64T Linux

 Parts of Q-Chem use Armadillo 8.300.2 (Tropical Shenanigans).
 http://arma.sourceforge.net/

 Q-Chem begins on Wed Mar 13 18:39:14 2019  

Host: 
0

     Scratch files written to /staging/scratch/2868761/qchem4694//
 Aug318 |scratch|qcdevops|jenkins|workspace|build_RNUM 6013   
Processing $rem in /usr/usc/qchem/5.1.1/config/preferences.
 MEM_TOTAL  2000 
Input Ideriv = 2
Curr. Ideriv = -1
Max.  Ideriv = 2

Checking the input file for inconsistencies... 	...done.

--------------------------------------------------------------
User input:
--------------------------------------------------------------

$comment
potential surface scanner
$end

$rem
JOBTYPE  PES_SCAN
UNRESTRICTED TRUE
SYM_IGNORE  TRUE
GEOM_OPT_MAX_CYCLES 400
SCF_MAX_CYCLES 400
METHOD   B3LYP
BASIS   6-31G**
PDB_PRINT 2
SCF_CONVERGENCE 6
THRESH 14
SCF_PRINT 1
$end
$molecule
0 1
F -0.837082 -1.148366 0.995291
F 0.606582 -0.121609 -2.144936
C -0.584372 0.132284 0.639726
C 0.548229 0.708638 1.048382
C -1.667824 0.702503 -0.213358
H 0.805254 0.007957 -1.242373
H 0.755458 1.741181 0.796194
H 1.253543 0.170986 1.670771
H -2.638416 0.570978 0.274714
H -1.500134 1.764986 -0.398225
H -1.687540 0.180869 -1.174485
$end
$scan
stre 2 4 3.400000 3.401000 0.100000
$end
--------------------------------------------------------------
 ----------------------------------------------------------------
             Standard Nuclear Orientation (Angstroms)
    I     Atom           X                Y                Z
 ----------------------------------------------------------------
    1      F      -0.8370820000    -1.1483660000     0.9952910000
    2      F       0.6065820000    -0.1216090000    -2.1449360000
    3      C      -0.5843720000     0.1322840000     0.6397260000
    4      C       0.5482290000     0.7086380000     1.0483820000
    5      C      -1.6678240000     0.7025030000    -0.2133580000
    6      H       0.8052540000     0.0079570000    -1.2423730000
    7      H       0.7554580000     1.7411810000     0.7961940000
    8      H       1.2535430000     0.1709860000     1.6707710000
    9      H      -2.6384160000     0.5709780000     0.2747140000
   10      H      -1.5001340000     1.7649860000    -0.3982250000
   11      H      -1.6875400000     0.1808690000    -1.1744850000
 ----------------------------------------------------------------
 Nuclear Repulsion Energy =   175.3874308998 hartrees
 There are       21 alpha and       21 beta electrons
 Requested basis set is 6-31G(d,p)
 There are 38 shells and 105 basis functions

 Total QAlloc Memory Limit   2000 MB
 Mega-Array Size       188 MB
 MEM_STATIC part       192 MB
A total of 1 constraints
  
            1
    1   1.0100000
    2   2.0100000
    3   4.0100000
    4   3.4000000
    5   3.4010000
    6   0.1000000
    7   0.0000000
    8   0.0000000
    9   0.0000000
   10   0.0000000

                       Distance Matrix (Angstroms)
             F (  1)   F (  2)   C (  3)   C (  4)   C (  5)   H (  6)
   F (  2)  3.605471
   C (  3)  1.352905  3.039272
   C (  4)  2.317406  3.299999  1.334904
   C (  5)  2.361500  3.095655  1.492237  2.550082
   H (  6)  3.006907  0.933208  2.342822  2.409268  2.767197
   H (  7)  3.305345  3.484594  2.099566  1.082907  2.823180  2.676247
   H (  8)  2.562748  3.881210  2.107720  1.083469  3.516651  2.951940
   H (  9)  2.592331  4.106628  2.131850  3.282106  1.094332  3.804919
   H ( 10)  3.296839  3.323927  2.140485  2.721091  1.091405  3.019031
   H ( 11)  2.682922  2.509236  2.123841  3.196614  1.093735  2.499706
             H (  7)   H (  8)   H (  9)   H ( 10)
   H (  8)  1.865070
   H (  9)  3.627630  4.154072
   H ( 10)  2.552430  3.795302  1.781625
   H ( 11)  3.505195  4.092133  1.776662  1.774014
 
 A cutoff of  1.0D-14 yielded    717 shell pairs
 There are      5639 function pairs
 
 -------------------------------------------------------
 OpenMP Integral Computing Module                       
 Release: version 1.0, May 2013, Q-Chem Inc. Pittsburgh 
 -------------------------------------------------------
 Integral Job Info:
 Integral job number is                      11
 Integral operator is                         1
 short-range coefficients                     0
 long-range coefficients              100000000
 Omega coefficients                           0
 if combine SR and LR in K                    0
 Integral screening is                        0
 Integral computing path is                   2
 max size of driver memory is            800000
 size of driver memory is                593474
 size of scratch memory is              2361544
 max col of scratch BK array               1296
 max len of scratch array in speh3          155
 max len of scratch index in speh4           18
 max int batch size is                      520
 min int batch size is                       52
 fixed nKL is                                52
 max L of basis functions is                  2
 order of int derivative is                   0
 number of shells is                         38
 number of basis is                         105
 number of cartesian basis is               105
 number of contracted shell pairs           717
 number of primitive shell pairs           2581
 maxK2 (contraction) of shell pair           36
 max number of K2 of shell pair               1
 max number of CS2 of shell pair             64
 max number of PS2 of shell pair            282
 mem total for path MDJ                  519084
 -------------------------------------------------------
 Smallest overlap matrix eigenvalue = 3.48E-03

 Scale SEOQF with 1.000000e-01/1.000000e-01/1.000000e-01

 Standard Electronic Orientation quadrupole field applied
 Nucleus-field energy     =    -0.0000000037 hartrees
 Guess from superposition of atomic densities
 Warning:  Energy on first SCF cycle will be non-variational
 SAD guess density has 42.000000 electrons

 -----------------------------------------------------------------------
  General SCF calculation program by
  Eric Jon Sundstrom, Paul Horn, Yuezhi Mao, Dmitri Zuev, Alec White,
  David Stuck, Shaama M.S., Shane Yost, Joonho Lee, David Small,
  Daniel Levine, Susi Lehtola, Hugh Burton, Evgeny Epifanovsky
 -----------------------------------------------------------------------
 Exchange:     0.2000 Hartree-Fock + 0.0800 Slater + 0.7200 B88
 Correlation:  0.1900 VWN1RPA + 0.8100 LYP
 Using SG-1 standard quadrature grid
 using 12 threads for integral computing
 -------------------------------------------------------
 OpenMP Integral computing Module                
 Release: version 1.0, May 2013, Q-Chem Inc. Pittsburgh 
 -------------------------------------------------------
 -------------------------------------------------------
 OpenMP BLAS3 based DFT computing Module                
 Release: version 1.0, May 2013, Q-Chem Inc. Pittsburgh 
 -------------------------------------------------------
 A unrestricted SCF calculation will be
 performed using DIIS
 SCF converges when DIIS error is below 1.0e-06
 Alpha HF Exchange    Energy =  -3.76841424431143
 Beta HF Exchange     Energy =  -3.76841424431143
 DFT Correlation      Energy =  -1.84535600609905
 DFT Exchange         Energy = -29.63976652521544
 One-Electron (alpha) Energy = -390.59133587008887
 One-Electron (beta)  Energy = -390.59133587008887
 Total Coulomb        Energy = 326.74427013749965
 ---------------------------------------
  Cycle       Energy         DIIS error
 ---------------------------------------
    1    -318.0729217265      3.12e-02  
 Alpha HF Exchange    Energy =  -3.82263011363784
 Beta HF Exchange     Energy =  -3.82263011363784
 DFT Correlation      Energy =  -1.87590577702644
 DFT Exchange         Energy = -30.38535641312208
 One-Electron (alpha) Energy = -393.98181297346866
 One-Electron (beta)  Energy = -393.98181297346883
 Total Coulomb        Energy = 335.00512901824396
    2    -317.4775884500      4.88e-03  
 Alpha HF Exchange    Energy =  -3.73969073490676
 Beta HF Exchange     Energy =  -3.73969073490675
 DFT Correlation      Energy =  -1.84947780406270
 DFT Exchange         Energy = -29.72058372765610
 One-Electron (alpha) Energy = -390.94035883440012
 One-Electron (beta)  Energy = -390.94035883439989
 Total Coulomb        Energy = 328.10315678821843
    3    -317.4395729860      5.71e-03  
 Alpha HF Exchange    Energy =  -3.77595449866614
 Beta HF Exchange     Energy =  -3.77595449866614
 DFT Correlation      Energy =  -1.86076643710916
 DFT Exchange         Energy = -30.00982727820241
 One-Electron (alpha) Energy = -392.07615251189935
 One-Electron (beta)  Energy = -392.07615251189935
 Total Coulomb        Energy = 330.60293401850083
    4    -317.5844428218      9.46e-04  
 Alpha HF Exchange    Energy =  -3.78028355330376
 Beta HF Exchange     Energy =  -3.78028355330376
 DFT Correlation      Energy =  -1.86258429684456
 DFT Exchange         Energy = -30.04655216991037
 One-Electron (alpha) Energy = -392.44889305394457
 One-Electron (beta)  Energy = -392.44889305394474
 Total Coulomb        Energy = 331.39064981746139
    5    -317.5894089677      2.39e-04  
 Alpha HF Exchange    Energy =  -3.77909230147312
 Beta HF Exchange     Energy =  -3.77909230147312
 DFT Correlation      Energy =  -1.86226149999581
 DFT Exchange         Energy = -30.03711466661781
 One-Electron (alpha) Energy = -392.37897137983668
 One-Electron (beta)  Energy = -392.37897137983657
 Total Coulomb        Energy = 331.23839298367147
    6    -317.5896796495      7.58e-05  
 Alpha HF Exchange    Energy =  -3.77931177372693
 Beta HF Exchange     Energy =  -3.77931177372693
 DFT Correlation      Energy =  -1.86224087810374
 DFT Exchange         Energy = -30.03852898775367
 One-Electron (alpha) Energy = -392.37850160048674
 One-Electron (beta)  Energy = -392.37850160048686
 Total Coulomb        Energy = 331.23926189348180
    7    -317.5897038247      1.74e-05  
 Alpha HF Exchange    Energy =  -3.77925922199120
 Beta HF Exchange     Energy =  -3.77925922199120
 DFT Correlation      Energy =  -1.86224712431475
 DFT Exchange         Energy = -30.03819797054782
 One-Electron (alpha) Energy = -392.37855352555505
 One-Electron (beta)  Energy = -392.37855352555493
 Total Coulomb        Energy = 331.23893450341615
    8    -317.5897051904      5.97e-06  
 Alpha HF Exchange    Energy =  -3.77928339848278
 Beta HF Exchange     Energy =  -3.77928339848278
 DFT Correlation      Energy =  -1.86224975638641
 DFT Exchange         Energy = -30.03837119923858
 One-Electron (alpha) Energy = -392.37915618446470
 One-Electron (beta)  Energy = -392.37915618446470
 Total Coulomb        Energy = 331.24036390575992
    9    -317.5897053197      1.03e-06  
 Alpha HF Exchange    Energy =  -3.77928178907197
 Beta HF Exchange     Energy =  -3.77928178907196
 DFT Correlation      Energy =  -1.86224978254165
 DFT Exchange         Energy = -30.03835966420313
 One-Electron (alpha) Energy = -392.37912826488110
 One-Electron (beta)  Energy = -392.37912826488088
 Total Coulomb        Energy = 331.24029333546991
   10    -317.5897053231      3.51e-07  Convergence criterion met
 ---------------------------------------
 SCF time:   CPU 23.79s  wall 2.00s 
<S^2> =          0.000000000
 Alpha HF Exchange    Energy =  -3.77928178907197
 Beta HF Exchange     Energy =  -3.77928178907196
 DFT Correlation      Energy =  -1.86224978254165
 DFT Exchange         Energy = -30.03835966420313
 One-Electron (alpha) Energy = -392.37912826488110
 One-Electron (beta)  Energy = -392.37912826488088
 Total Coulomb        Energy = 331.24029333546991
 Nuclear repulsion Energy = 175.38743089609721
 SCF   energy in the final basis set =     -317.5897053231
 Total energy in the final basis set =     -317.5897053231
 
 --------------------------------------------------------------
 
                    Orbital Energies (a.u.)
 --------------------------------------------------------------
 
 Alpha MOs
 -- Occupied --
-24.711 -24.653 -10.292 -10.202 -10.197  -1.223  -1.157  -0.806
 -0.720  -0.590  -0.512  -0.503  -0.493  -0.474  -0.424  -0.415
 -0.400  -0.371  -0.368  -0.366  -0.270
 -- Virtual --
  0.005   0.083   0.108   0.124   0.146   0.169   0.178   0.202
  0.255   0.344   0.491   0.533   0.550   0.579   0.608   0.614
  0.646   0.687   0.758   0.799   0.821   0.855   0.866   0.901
  0.921   1.011   1.075   1.149   1.171   1.203   1.220   1.263
  1.293   1.311   1.389   1.394   1.482   1.582   1.596   1.631
  1.678   1.742   1.780   1.815   1.837   1.850   1.884   1.886
  1.930   2.003   2.023   2.056   2.071   2.088   2.110   2.128
  2.227   2.313   2.334   2.415   2.448   2.540   2.554   2.615
  2.638   2.677   2.731   2.770   2.834   2.838   2.868   3.000
  3.097   3.186   3.355   3.409   3.453   3.591   3.714   3.880
  4.214   4.409   4.469   4.911
 
 Beta MOs
 -- Occupied --
-24.711 -24.653 -10.292 -10.202 -10.197  -1.223  -1.157  -0.806
 -0.720  -0.590  -0.512  -0.503  -0.493  -0.474  -0.424  -0.415
 -0.400  -0.371  -0.368  -0.366  -0.270
 -- Virtual --
  0.005   0.083   0.108   0.124   0.146   0.169   0.178   0.202
  0.255   0.344   0.491   0.533   0.550   0.579   0.608   0.614
  0.646   0.687   0.758   0.799   0.821   0.855   0.866   0.901
  0.921   1.011   1.075   1.149   1.171   1.203   1.220   1.263
  1.293   1.311   1.389   1.394   1.482   1.582   1.596   1.631
  1.678   1.742   1.780   1.815   1.837   1.850   1.884   1.886
  1.930   2.003   2.023   2.056   2.071   2.088   2.110   2.128
  2.227   2.313   2.334   2.415   2.448   2.540   2.554   2.615
  2.638   2.677   2.731   2.770   2.834   2.838   2.868   3.000
  3.097   3.186   3.355   3.409   3.453   3.591   3.714   3.880
  4.214   4.409   4.469   4.911
 --------------------------------------------------------------
 
          Ground-State Mulliken Net Atomic Charges

     Atom                 Charge (a.u.)    Spin (a.u.)
  --------------------------------------------------------
      1 F                    -0.281775      -0.000000
      2 F                    -0.371491      -0.000000
      3 C                     0.374026       0.000000
      4 C                    -0.348404      -0.000000
      5 C                    -0.384826      -0.000000
      6 H                     0.344034       0.000000
      7 H                     0.121570       0.000000
      8 H                     0.125114       0.000000
      9 H                     0.135458       0.000000
     10 H                     0.126092       0.000000
     11 H                     0.160201       0.000000
  --------------------------------------------------------
  Sum of atomic charges =     0.000000
  Sum of spin   charges =    -0.000000

 -----------------------------------------------------------------
                    Cartesian Multipole Moments
 -----------------------------------------------------------------
    Charge (ESU x 10^10)
                 0.0000
    Dipole Moment (Debye)
         X      -0.2976      Y       1.5028      Z       1.4482
       Tot       2.1081
    Quadrupole Moments (Debye-Ang)
        XX     -26.6129     XY      -0.8134     YY     -29.0258
        XZ       2.3754     YZ       0.0482     ZZ     -35.2026
    Octopole Moments (Debye-Ang^2)
       XXX      32.0945    XXY      -3.7384    XYY      13.0460
       YYY     -11.5395    XXZ      -0.6395    XYZ      -0.7251
       YYZ      -3.2515    XZZ      10.0583    YZZ      -5.1791
       ZZZ       5.8417
    Hexadecapole Moments (Debye-Ang^3)
      XXXX    -212.5999   XXXY       5.1670   XXYY     -57.8821
      XYYY       7.1324   YYYY    -114.0396   XXXZ      12.8460
      XXYZ       0.5006   XYYZ       6.4787   YYYZ      -0.0974
      XXZZ     -79.8477   XYZZ       2.7261   YYZZ     -66.6988
      XZZZ      26.1891   YZZZ      -3.6859   ZZZZ    -291.6196
 -----------------------------------------------------------------
 Calculating analytic gradient of the SCF energy
 Gradient of SCF Energy
            1           2           3           4           5           6
    1   0.0000115   0.0001716   0.0000440  -0.0000166   0.0000424  -0.0002736
    2   0.0000162  -0.0001812  -0.0000511   0.0004905   0.0000028  -0.0003383
    3  -0.0000232  -0.0015367   0.0001291   0.0016490  -0.0001014  -0.0001177
            7           8           9          10          11
    1   0.0000248   0.0000110  -0.0000054   0.0000017  -0.0000115
    2  -0.0000173   0.0000596   0.0000253   0.0000018  -0.0000083
    3  -0.0000731   0.0000432   0.0000083  -0.0000004   0.0000230
 Max gradient component =       1.649E-03
 RMS gradient           =       4.132E-04
 Gradient time:  CPU 8.35 s  wall 0.74 s
 Geometry Optimization Parameters
   NAtoms,    NIC,     NZ,  NCons,   NDum,   NFix, NCnnct, MaxDiis
       11     110       0       1       0       0       0       0


** CONSTRAINED OPTIMIZATION IN DELOCALIZED INTERNAL COORDINATES **
   Searching for a Minimum

   Optimization Cycle:   1

                       Coordinates (Angstroms)
     ATOM                X               Y               Z
      1  F        -0.8370820000   -1.1483660000    0.9952910000
      2  F         0.6065820000   -0.1216090000   -2.1449360000
      3  C        -0.5843720000    0.1322840000    0.6397260000
      4  C         0.5482290000    0.7086380000    1.0483820000
      5  C        -1.6678240000    0.7025030000   -0.2133580000
      6  H         0.8052540000    0.0079570000   -1.2423730000
      7  H         0.7554580000    1.7411810000    0.7961940000
      8  H         1.2535430000    0.1709860000    1.6707710000
      9  H        -2.6384160000    0.5709780000    0.2747140000
     10  H        -1.5001340000    1.7649860000   -0.3982250000
     11  H        -1.6875400000    0.1808690000   -1.1744850000
   Point Group: c1    Number of degrees of freedom:    27


   Energy is   -317.589705323

              Constraints and their Current Values
                                        Value     Constraint
   Distance(Angs):        2   4             3.299999     3.400000

 Attempting to Generate Delocalized Internal Coordinates

   Using Lagrange Multiplier Algorithm


 28 Hessian modes will be used to form the next step
  Hessian Eigenvalues:
    -0.993677    0.028446    0.045470    0.046640    0.050277    0.057121
     0.060667    0.065202    0.070311    0.081819    0.085977    0.093703
     0.103440    0.107280    0.109355    0.114894    0.127611    0.130477
     0.270851    0.300904    0.306123    0.343168    0.346507    0.355784
     0.356454    0.487996    0.544078    1.006363

 Minimum Search - Taking P-RFO Step
 Searching for Lamda that Maximizes Along the Constraint modes Only
 Value Taken    Lamda =   0.01806557
 Searching for Lamda that Minimizes Along All other modes
 Value Taken    Lamda =  -0.01703776
 Step Taken.  Stepsize is  0.185722

                             Maximum     Tolerance    Cnvgd?
         Gradient            0.188974       0.000300      NO
         Displacement        0.185712       0.001200      NO
         Energy change     *********       0.000001      NO


 New Cartesian Coordinates Obtained by Inverse Iteration

 Displacement from previous Coordinates is:  0.179744
 ----------------------------------------------------------------
             Standard Nuclear Orientation (Angstroms)
    I     Atom           X                Y                Z
 ----------------------------------------------------------------
    1      F      -0.8325395829    -1.1466922460     1.0014374458
    2      F       0.5872636923    -0.1371232976    -2.2130930283
    3      C      -0.5815993105     0.1348095391     0.6476286882
    4      C       0.5517824386     0.7157076028     1.0762360674
    5      C      -1.6636357282     0.7016473278    -0.2173224177
    6      H       0.7991115999     0.0018857452    -1.2576538161
    7      H       0.7589969751     1.7495471523     0.8293963306
    8      H       1.2539615945     0.1788424748     1.7028231418
    9      H      -2.6346982246     0.5668368436     0.2688936197
   10      H      -1.4970570053     1.7643822196    -0.4017680722
   11      H      -1.6878884490     0.1805636384    -1.1848769592
 ----------------------------------------------------------------
 Nuclear Repulsion Energy =   173.9724459243 hartrees
 There are       21 alpha and       21 beta electrons

                       Distance Matrix (Angstroms)
             F (  1)   F (  2)   C (  3)   C (  4)   C (  5)   H (  6)
   F (  2)  3.656265
   C (  3)  1.352922  3.102244
   C (  4)  2.321740  3.398274  1.343764
   C (  5)  2.364837  3.123009  1.496746  2.565457
   H (  6)  3.014135  0.988467  2.356721  2.453111  2.763527
   H (  7)  3.309198  3.584098  2.106565  1.082909  2.839518  2.722445
   H (  8)  2.569527  3.984811  2.117701  1.083463  3.531665  3.000438
   H (  9)  2.592408  4.127573  2.131972  3.290535  1.094323  3.800075
   H ( 10)  3.299231  3.352762  2.143549  2.735317  1.091409  3.018497
   H ( 11)  2.696887  2.516837  2.141039  3.227249  1.099217  2.494472
             H (  7)   H (  8)   H (  9)   H ( 10)
   H (  8)  1.864129
   H (  9)  3.637325  4.162736
   H ( 10)  2.570168  3.809376  1.782731
   H ( 11)  3.536418  4.122293  1.777387  1.777121
 
 Applying Cartesian multipole field
    Component          Value
    ---------          -----
     (2,0,0)        1.00000E-11
     (0,2,0)        2.00000E-11
     (0,0,2)       -3.00000E-11
 Nucleus-field energy     =    -0.0000000041 hartrees
 Requested basis set is 6-31G(d,p)
 There are 38 shells and 105 basis functions
 A cutoff of  1.0D-14 yielded    714 shell pairs
 There are      5614 function pairs
 Smallest overlap matrix eigenvalue = 3.54E-03
 Guess from superposition of atomic densities
 Warning:  Energy on first SCF cycle will be non-variational
 SAD guess density has 42.000000 electrons

 -----------------------------------------------------------------------
  General SCF calculation program by
  Eric Jon Sundstrom, Paul Horn, Yuezhi Mao, Dmitri Zuev, Alec White,
  David Stuck, Shaama M.S., Shane Yost, Joonho Lee, David Small,
  Daniel Levine, Susi Lehtola, Hugh Burton, Evgeny Epifanovsky
 -----------------------------------------------------------------------
 Exchange:     0.2000 Hartree-Fock + 0.0800 Slater + 0.7200 B88
 Correlation:  0.1900 VWN1RPA + 0.8100 LYP
 Using SG-1 standard quadrature grid
 using 12 threads for integral computing
 -------------------------------------------------------
 OpenMP Integral computing Module                
 Release: version 1.0, May 2013, Q-Chem Inc. Pittsburgh 
 -------------------------------------------------------
 -------------------------------------------------------
 OpenMP BLAS3 based DFT computing Module                
 Release: version 1.0, May 2013, Q-Chem Inc. Pittsburgh 
 -------------------------------------------------------
 A unrestricted SCF calculation will be
 performed using DIIS
 SCF converges when DIIS error is below 1.0e-06
 Alpha HF Exchange    Energy =  -3.76201331937321
 Beta HF Exchange     Energy =  -3.76201331937321
 DFT Correlation      Energy =  -1.84378275010714
 DFT Exchange         Energy = -29.62485395428197
 One-Electron (alpha) Energy = -389.24233676643507
 One-Electron (beta)  Energy = -389.24233676643507
 Total Coulomb        Energy = 325.48684558419541
 ---------------------------------------
  Cycle       Energy         DIIS error
 ---------------------------------------
    1    -318.0180453716      3.06e-02  
 Alpha HF Exchange    Energy =  -3.81866715069664
 Beta HF Exchange     Energy =  -3.81866715069664
 DFT Correlation      Energy =  -1.87428206157968
 DFT Exchange         Energy = -30.35805433211806
 One-Electron (alpha) Energy = -392.57772211694618
 One-Electron (beta)  Energy = -392.57772211694578
 Total Coulomb        Energy = 333.57974401448689
    2    -317.4729249943      4.89e-03  
 Alpha HF Exchange    Energy =  -3.73462288298790
 Beta HF Exchange     Energy =  -3.73462288298790
 DFT Correlation      Energy =  -1.84754887027647
 DFT Exchange         Energy = -29.68675754698767
 One-Electron (alpha) Energy = -389.56304851690948
 One-Electron (beta)  Energy = -389.56304851690965
 Total Coulomb        Energy = 326.73015568117302
    3    -317.4270476157      5.90e-03  
 Alpha HF Exchange    Energy =  -3.77186611107503
 Beta HF Exchange     Energy =  -3.77186611107503
 DFT Correlation      Energy =  -1.85900922886544
 DFT Exchange         Energy = -29.98272011662241
 One-Electron (alpha) Energy = -390.68915798719962
 One-Electron (beta)  Energy = -390.68915798719956
 Total Coulomb        Energy = 329.21024778079880
    4    -317.5810838410      9.60e-04  
 Alpha HF Exchange    Energy =  -3.77625027436571
 Beta HF Exchange     Energy =  -3.77625027436571
 DFT Correlation      Energy =  -1.86092162171713
 DFT Exchange         Energy = -30.02010037704898
 One-Electron (alpha) Energy = -391.07403018903398
 One-Electron (beta)  Energy = -391.07403018903415
 Total Coulomb        Energy = 330.02298394773595
    5    -317.5861530576      2.50e-04  
 Alpha HF Exchange    Energy =  -3.77497855313871
 Beta HF Exchange     Energy =  -3.77497855313871
 DFT Correlation      Energy =  -1.86056785869704
 DFT Exchange         Energy = -30.01001012837494
 One-Electron (alpha) Energy = -390.99764291954841
 One-Electron (beta)  Energy = -390.99764291954835
 Total Coulomb        Energy = 329.85692541065742
    6    -317.5864496016      8.75e-05  
 Alpha HF Exchange    Energy =  -3.77525813725426
 Beta HF Exchange     Energy =  -3.77525813725426
 DFT Correlation      Energy =  -1.86056143648256
 DFT Exchange         Energy = -30.01188487832712
 One-Electron (alpha) Energy = -391.00033664870676
 One-Electron (beta)  Energy = -391.00033664870671
 Total Coulomb        Energy = 329.86470778329812
    7    -317.5864821832      1.81e-05  
 Alpha HF Exchange    Energy =  -3.77520086512841
 Beta HF Exchange     Energy =  -3.77520086512841
 DFT Correlation      Energy =  -1.86056546495869
 DFT Exchange         Energy = -30.01151290374400
 One-Electron (alpha) Energy = -390.99985241075166
 One-Electron (beta)  Energy = -390.99985241075177
 Total Coulomb        Energy = 329.86325531727385
    8    -317.5864836830      5.98e-06  
 Alpha HF Exchange    Energy =  -3.77522639056245
 Beta HF Exchange     Energy =  -3.77522639056245
 DFT Correlation      Energy =  -1.86056828307879
 DFT Exchange         Energy = -30.01169675385436
 One-Electron (alpha) Energy = -391.00052140754468
 One-Electron (beta)  Energy = -391.00052140754468
 Total Coulomb        Energy = 329.86483089715631
    9    -317.5864838158      1.16e-06  
 Alpha HF Exchange    Energy =  -3.77522447721223
 Beta HF Exchange     Energy =  -3.77522447721223
 DFT Correlation      Energy =  -1.86056843791110
 DFT Exchange         Energy = -30.01168358150891
 One-Electron (alpha) Energy = -391.00050464469791
 One-Electron (beta)  Energy = -391.00050464469820
 Total Coulomb        Energy = 329.86478052298781
   10    -317.5864838200      4.29e-07  Convergence criterion met
 ---------------------------------------
 SCF time:   CPU 22.60s  wall 2.00s 
<S^2> =          0.000000000
 Alpha HF Exchange    Energy =  -3.77522447721223
 Beta HF Exchange     Energy =  -3.77522447721223
 DFT Correlation      Energy =  -1.86056843791110
 DFT Exchange         Energy = -30.01168358150891
 One-Electron (alpha) Energy = -391.00050464469791
 One-Electron (beta)  Energy = -391.00050464469820
 Total Coulomb        Energy = 329.86478052298781
 Nuclear repulsion Energy = 173.97244592020644
 SCF   energy in the final basis set =     -317.5864838200
 Total energy in the final basis set =     -317.5864838200
 
 --------------------------------------------------------------
 
                    Orbital Energies (a.u.)
 --------------------------------------------------------------
 
 Alpha MOs
 -- Occupied --
-24.712 -24.653 -10.294 -10.204 -10.200  -1.224  -1.139  -0.804
 -0.720  -0.591  -0.506  -0.497  -0.494  -0.472  -0.425  -0.414
 -0.402  -0.372  -0.362  -0.361  -0.270
 -- Virtual --
  0.002   0.072   0.103   0.117   0.144   0.168   0.176   0.199
  0.252   0.342   0.488   0.532   0.548   0.576   0.606   0.608
  0.648   0.675   0.749   0.794   0.818   0.851   0.862   0.894
  0.919   1.009   1.074   1.147   1.170   1.200   1.220   1.261
  1.294   1.306   1.388   1.395   1.480   1.578   1.581   1.628
  1.665   1.738   1.773   1.808   1.834   1.848   1.888   1.890
  1.926   1.998   2.022   2.054   2.070   2.082   2.105   2.123
  2.221   2.308   2.326   2.406   2.425   2.451   2.545   2.605
  2.633   2.664   2.664   2.724   2.826   2.833   2.859   2.993
  3.093   3.180   3.351   3.403   3.448   3.584   3.660   3.822
  4.208   4.394   4.460   4.892
 
 Beta MOs
 -- Occupied --
-24.712 -24.653 -10.294 -10.204 -10.200  -1.224  -1.139  -0.804
 -0.720  -0.591  -0.506  -0.497  -0.494  -0.472  -0.425  -0.414
 -0.402  -0.372  -0.362  -0.361  -0.270
 -- Virtual --
  0.002   0.072   0.103   0.117   0.144   0.168   0.176   0.199
  0.252   0.342   0.488   0.532   0.548   0.576   0.606   0.608
  0.648   0.675   0.749   0.794   0.818   0.851   0.862   0.894
  0.919   1.009   1.074   1.147   1.170   1.200   1.220   1.261
  1.294   1.306   1.388   1.395   1.480   1.578   1.581   1.628
  1.665   1.738   1.773   1.808   1.834   1.848   1.888   1.890
  1.926   1.998   2.022   2.054   2.070   2.082   2.105   2.123
  2.221   2.308   2.326   2.406   2.425   2.451   2.545   2.605
  2.633   2.664   2.664   2.724   2.826   2.833   2.859   2.993
  3.093   3.180   3.351   3.403   3.448   3.584   3.660   3.822
  4.208   4.394   4.460   4.892
 --------------------------------------------------------------
 
          Ground-State Mulliken Net Atomic Charges

     Atom                 Charge (a.u.)    Spin (a.u.)
  --------------------------------------------------------
      1 F                    -0.280615      -0.000000
      2 F                    -0.388549       0.000000
      3 C                     0.369925      -0.000000
      4 C                    -0.344661       0.000000
      5 C                    -0.385627       0.000000
      6 H                     0.356870      -0.000000
      7 H                     0.121940      -0.000000
      8 H                     0.126407      -0.000000
      9 H                     0.136462      -0.000000
     10 H                     0.126817      -0.000000
     11 H                     0.161031      -0.000000
  --------------------------------------------------------
  Sum of atomic charges =     0.000000
  Sum of spin   charges =    -0.000000

 -----------------------------------------------------------------
                    Cartesian Multipole Moments
 -----------------------------------------------------------------
    Charge (ESU x 10^10)
                 0.0000
    Dipole Moment (Debye)
         X      -0.2980      Y       1.5271      Z       1.5671
       Tot       2.2083
    Quadrupole Moments (Debye-Ang)
        XX     -26.6091     XY      -0.7917     YY     -29.0722
        XZ       2.4428     YZ       0.0086     ZZ     -35.6234
    Octopole Moments (Debye-Ang^2)
       XXX      31.9691    XXY      -3.7282    XYY      13.0388
       YYY     -11.4622    XXZ      -0.5021    XYZ      -0.6818
       YYZ      -3.0052    XZZ      10.0027    YZZ      -4.9999
       ZZZ       7.7172
    Hexadecapole Moments (Debye-Ang^3)
      XXXX    -211.2034   XXXY       5.1780   XXYY     -57.7587
      XYYY       7.1620   YYYY    -114.3806   XXXZ      12.6037
      XXYZ       0.0775   XYYZ       6.4179   YYYZ      -1.1913
      XXZZ     -81.6149   XYZZ       2.8480   YYZZ     -68.9591
      XZZZ      26.6448   YZZZ      -5.2350   ZZZZ    -308.0098
 -----------------------------------------------------------------
 Calculating analytic gradient of the SCF energy
 Gradient of SCF Energy
            1           2           3           4           5           6
    1   0.0000774  -0.0099300  -0.0062895   0.0077076  -0.0011484   0.0101565
    2  -0.0003353  -0.0071036  -0.0029277   0.0036058   0.0016270   0.0062866
    3   0.0002087  -0.0488185  -0.0008921   0.0061350   0.0009680   0.0459299
            7           8           9          10          11
    1   0.0001252   0.0005580   0.0000757   0.0001043  -0.0014367
    2  -0.0000524   0.0003875  -0.0003019  -0.0000619  -0.0011241
    3   0.0001191  -0.0000163  -0.0001203  -0.0001223  -0.0033912
 Max gradient component =       4.882E-02
 RMS gradient           =       1.226E-02
 Gradient time:  CPU 8.29 s  wall 0.72 s
 Geometry Optimization Parameters
   NAtoms,    NIC,     NZ,  NCons,   NDum,   NFix, NCnnct, MaxDiis
       11     110       0       1       0       0       0       0

 Cartesian Hessian Update
 Hessian Updated using BFGS Update


** CONSTRAINED OPTIMIZATION IN DELOCALIZED INTERNAL COORDINATES **
   Searching for a Minimum

   Optimization Cycle:   2

                       Coordinates (Angstroms)
     ATOM                X               Y               Z
      1  F        -0.8325395829   -1.1466922460    1.0014374458
      2  F         0.5872636923   -0.1371232976   -2.2130930283
      3  C        -0.5815993105    0.1348095391    0.6476286882
      4  C         0.5517824386    0.7157076028    1.0762360674
      5  C        -1.6636357282    0.7016473278   -0.2173224177
      6  H         0.7991115999    0.0018857452   -1.2576538161
      7  H         0.7589969751    1.7495471523    0.8293963306
      8  H         1.2539615945    0.1788424748    1.7028231418
      9  H        -2.6346982246    0.5668368436    0.2688936197
     10  H        -1.4970570053    1.7643822196   -0.4017680722
     11  H        -1.6878884490    0.1805636384   -1.1848769592
   Point Group: c1    Number of degrees of freedom:    27


   Energy is   -317.586483820

              Constraints and their Current Values
                                        Value     Constraint
   Distance(Angs):        2   4             3.398274     3.400000
 Hessian Updated using BFGS Update

   Using Lagrange Multiplier Algorithm


 28 Hessian modes will be used to form the next step
  Hessian Eigenvalues:
    -0.933330    0.028462    0.045464    0.046647    0.050281    0.057115
     0.060672    0.065205    0.070362    0.081843    0.085979    0.093931
     0.104175    0.107281    0.109359    0.114928    0.128088    0.130759
     0.286504    0.303348    0.343167    0.346507    0.355781    0.356453
     0.445242    0.489436    0.544138    1.104981

 Minimum Search - Taking P-RFO Step
 Searching for Lamda that Maximizes Along the Constraint modes Only
 Value Taken    Lamda =   0.00036088
 Searching for Lamda that Minimizes Along All other modes
 Value Taken    Lamda =  -0.00234829
 Step Taken.  Stepsize is  0.071646

                             Maximum     Tolerance    Cnvgd?
         Gradient            0.027153       0.000300      NO
         Displacement        0.046709       0.001200      NO
         Energy change      0.003222       0.000001      NO


 New Cartesian Coordinates Obtained by Inverse Iteration

 Displacement from previous Coordinates is:  0.046987
 ----------------------------------------------------------------
             Standard Nuclear Orientation (Angstroms)
    I     Atom           X                Y                Z
 ----------------------------------------------------------------
    1      F      -0.8303384331    -1.1459536644     1.0010721937
    2      F       0.5866782095    -0.1387164234    -2.2109364305
    3      C      -0.5795848907     0.1354410476     0.6475622498
    4      C       0.5475611441     0.7169039114     1.0794102005
    5      C      -1.6595382586     0.7015453584    -0.2165231791
    6      H       0.7953188110    -0.0024777206    -1.2766788926
    7      H       0.7530517237     1.7514592864     0.8338843229
    8      H       1.2486184315     0.1796166369     1.7066247263
    9      H      -2.6305153431     0.5673950224     0.2702144037
   10      H      -1.4933106097     1.7643740805    -0.4009070670
   11      H      -1.6842427846     0.1808194649    -1.1820215277
 ----------------------------------------------------------------
 Nuclear Repulsion Energy =   174.2313520286 hartrees
 There are       21 alpha and       21 beta electrons

                       Distance Matrix (Angstroms)
             F (  1)   F (  2)   C (  3)   C (  4)   C (  5)   H (  6)
   F (  2)  3.652323
   C (  3)  1.352708  3.099411
   C (  4)  2.318401  3.400000  1.339795
   C (  5)  2.362914  3.119169  1.494462  2.559486
   H (  6)  3.022987  0.966917  2.368984  2.475894  2.765122
   H (  7)  3.306067  3.587670  2.102891  1.082965  2.833066  2.744551
   H (  8)  2.564567  3.985823  2.113266  1.083308  3.525377  3.023035
   H (  9)  2.590435  4.123716  2.129622  3.282883  1.094398  3.801838
   H ( 10)  3.297739  3.350271  2.141870  2.730145  1.091437  3.021021
   H ( 11)  2.693581  2.513534  2.137687  3.222175  1.097248  2.488129
             H (  7)   H (  8)   H (  9)   H ( 10)
   H (  8)  1.864927
   H (  9)  3.628809  4.154675
   H ( 10)  2.563400  3.804119  1.782245
   H ( 11)  3.531457  4.116546  1.775911  1.776018
 
 Applying Cartesian multipole field
    Component          Value
    ---------          -----
     (2,0,0)        1.00000E-11
     (0,2,0)        2.00000E-11
     (0,0,2)       -3.00000E-11
 Nucleus-field energy     =    -0.0000000041 hartrees
 Requested basis set is 6-31G(d,p)
 There are 38 shells and 105 basis functions
 A cutoff of  1.0D-14 yielded    714 shell pairs
 There are      5614 function pairs
 Smallest overlap matrix eigenvalue = 3.52E-03
 Guess from superposition of atomic densities
 Warning:  Energy on first SCF cycle will be non-variational
 SAD guess density has 42.000000 electrons

 -----------------------------------------------------------------------
  General SCF calculation program by
  Eric Jon Sundstrom, Paul Horn, Yuezhi Mao, Dmitri Zuev, Alec White,
  David Stuck, Shaama M.S., Shane Yost, Joonho Lee, David Small,
  Daniel Levine, Susi Lehtola, Hugh Burton, Evgeny Epifanovsky
 -----------------------------------------------------------------------
 Exchange:     0.2000 Hartree-Fock + 0.0800 Slater + 0.7200 B88
 Correlation:  0.1900 VWN1RPA + 0.8100 LYP
 Using SG-1 standard quadrature grid
 using 12 threads for integral computing
 -------------------------------------------------------
 OpenMP Integral computing Module                
 Release: version 1.0, May 2013, Q-Chem Inc. Pittsburgh 
 -------------------------------------------------------
 -------------------------------------------------------
 OpenMP BLAS3 based DFT computing Module                
 Release: version 1.0, May 2013, Q-Chem Inc. Pittsburgh 
 -------------------------------------------------------
 A unrestricted SCF calculation will be
 performed using DIIS
 SCF converges when DIIS error is below 1.0e-06
 Alpha HF Exchange    Energy =  -3.76440440773996
 Beta HF Exchange     Energy =  -3.76440440773996
 DFT Correlation      Energy =  -1.84424468664233
 DFT Exchange         Energy = -29.63048010960673
 One-Electron (alpha) Energy = -389.47645206966041
 One-Electron (beta)  Energy = -389.47645206966041
 Total Coulomb        Energy = 325.68579616866970
 ---------------------------------------
  Cycle       Energy         DIIS error
 ---------------------------------------
    1    -318.0392895579      3.09e-02  
 Alpha HF Exchange    Energy =  -3.82022868197309
 Beta HF Exchange     Energy =  -3.82022868197309
 DFT Correlation      Energy =  -1.87483006523064
 DFT Exchange         Energy = -30.36881229530449
 One-Electron (alpha) Energy = -392.83626835852181
 One-Electron (beta)  Energy = -392.83626835852164
 Total Coulomb        Energy = 333.85030909260155
    2    -317.4749753244      4.89e-03  
 Alpha HF Exchange    Energy =  -3.73659523240317
 Beta HF Exchange     Energy =  -3.73659523240317
 DFT Correlation      Energy =  -1.84814992518177
 DFT Exchange         Energy = -29.69962660700613
 One-Electron (alpha) Energy = -389.80678053685654
 One-Electron (beta)  Energy = -389.80678053685665
 Total Coulomb        Energy = 326.97095894852987
    3    -317.4322170977      5.82e-03  
 Alpha HF Exchange    Energy =  -3.77344089565885
 Beta HF Exchange     Energy =  -3.77344089565885
 DFT Correlation      Energy =  -1.85957378942984
 DFT Exchange         Energy = -29.99304205503826
 One-Electron (alpha) Energy = -390.93816667802469
 One-Electron (beta)  Energy = -390.93816667802474
 Total Coulomb        Energy = 329.46166047346065
    4    -317.5828184939      9.56e-04  
 Alpha HF Exchange    Energy =  -3.77782383319954
 Beta HF Exchange     Energy =  -3.77782383319955
 DFT Correlation      Energy =  -1.86145148151176
 DFT Exchange         Energy = -30.03029630853172
 One-Electron (alpha) Energy = -391.31919097287869
 One-Electron (beta)  Energy = -391.31919097287897
 Total Coulomb        Energy = 330.26656646693357
    5    -317.5878589108      2.47e-04  
 Alpha HF Exchange    Energy =  -3.77657383151427
 Beta HF Exchange     Energy =  -3.77657383151428
 DFT Correlation      Energy =  -1.86110841396086
 DFT Exchange         Energy = -30.02039176173924
 One-Electron (alpha) Energy = -391.24500606503051
 One-Electron (beta)  Energy = -391.24500606503074
 Total Coulomb        Energy = 330.10516040137588
    6    -317.5881475429      8.27e-05  
 Alpha HF Exchange    Energy =  -3.77683063852581
 Beta HF Exchange     Energy =  -3.77683063852581
 DFT Correlation      Energy =  -1.86109630405498
 DFT Exchange         Energy = -30.02209168746592
 One-Electron (alpha) Energy = -391.24644825796366
 One-Electron (beta)  Energy = -391.24644825796366
 Total Coulomb        Energy = 330.11021731407823
    7    -317.5881764459      1.78e-05  
 Alpha HF Exchange    Energy =  -3.77677550435640
 Beta HF Exchange     Energy =  -3.77677550435640
 DFT Correlation      Energy =  -1.86110136095831
 DFT Exchange         Energy = -30.02173817166091
 One-Electron (alpha) Energy = -391.24619252475804
 One-Electron (beta)  Energy = -391.24619252475799
 Total Coulomb        Energy = 330.10924567296917
    8    -317.5881778934      5.96e-06  
 Alpha HF Exchange    Energy =  -3.77680029869940
 Beta HF Exchange     Energy =  -3.77680029869940
 DFT Correlation      Energy =  -1.86110404540586
 DFT Exchange         Energy = -30.02191625392597
 One-Electron (alpha) Energy = -391.24682420189009
 One-Electron (beta)  Energy = -391.24682420189015
 Total Coulomb        Energy = 330.11073925188293
    9    -317.5881780241      1.11e-06  
 Alpha HF Exchange    Energy =  -3.77679854976687
 Beta HF Exchange     Energy =  -3.77679854976686
 DFT Correlation      Energy =  -1.86110417331412
 DFT Exchange         Energy = -30.02190412759585
 One-Electron (alpha) Energy = -391.24680687160986
 One-Electron (beta)  Energy = -391.24680687160981
 Total Coulomb        Energy = 330.11068909109099
   10    -317.5881780281      4.00e-07  Convergence criterion met
 ---------------------------------------
 SCF time:   CPU 23.46s  wall 2.00s 
<S^2> =          0.000000000
 Alpha HF Exchange    Energy =  -3.77679854976687
 Beta HF Exchange     Energy =  -3.77679854976686
 DFT Correlation      Energy =  -1.86110417331412
 DFT Exchange         Energy = -30.02190412759585
 One-Electron (alpha) Energy = -391.24680687160986
 One-Electron (beta)  Energy = -391.24680687160981
 Total Coulomb        Energy = 330.11068909109099
 Nuclear repulsion Energy = 174.23135202448759
 SCF   energy in the final basis set =     -317.5881780281
 Total energy in the final basis set =     -317.5881780281
 
 --------------------------------------------------------------
 
                    Orbital Energies (a.u.)
 --------------------------------------------------------------
 
 Alpha MOs
 -- Occupied --
-24.711 -24.654 -10.293 -10.203 -10.198  -1.224  -1.147  -0.805
 -0.720  -0.590  -0.508  -0.500  -0.493  -0.473  -0.424  -0.414
 -0.401  -0.372  -0.365  -0.364  -0.270
 -- Virtual --
  0.004   0.075   0.105   0.119   0.144   0.168   0.177   0.201
  0.254   0.343   0.490   0.533   0.550   0.577   0.607   0.611
  0.648   0.677   0.751   0.796   0.819   0.853   0.862   0.895
  0.920   1.010   1.077   1.147   1.169   1.200   1.221   1.261
  1.295   1.306   1.389   1.395   1.481   1.579   1.583   1.628
  1.664   1.740   1.775   1.810   1.835   1.848   1.886   1.887
  1.928   2.000   2.023   2.055   2.071   2.084   2.107   2.125
  2.224   2.310   2.330   2.412   2.444   2.469   2.547   2.610
  2.636   2.668   2.688   2.740   2.830   2.835   2.862   2.995
  3.095   3.182   3.353   3.406   3.450   3.587   3.677   3.833
  4.210   4.396   4.462   4.897
 
 Beta MOs
 -- Occupied --
-24.711 -24.654 -10.293 -10.203 -10.198  -1.224  -1.147  -0.805
 -0.720  -0.590  -0.508  -0.500  -0.493  -0.473  -0.424  -0.414
 -0.401  -0.372  -0.365  -0.364  -0.270
 -- Virtual --
  0.004   0.075   0.105   0.119   0.144   0.168   0.177   0.201
  0.254   0.343   0.490   0.533   0.550   0.577   0.607   0.611
  0.648   0.677   0.751   0.796   0.819   0.853   0.862   0.895
  0.920   1.010   1.077   1.147   1.169   1.200   1.221   1.261
  1.295   1.306   1.389   1.395   1.481   1.579   1.583   1.628
  1.664   1.740   1.775   1.810   1.835   1.848   1.886   1.887
  1.928   2.000   2.023   2.055   2.071   2.084   2.107   2.125
  2.224   2.310   2.330   2.412   2.444   2.469   2.547   2.610
  2.636   2.668   2.688   2.740   2.830   2.835   2.862   2.995
  3.095   3.182   3.353   3.406   3.450   3.587   3.677   3.833
  4.210   4.396   4.462   4.897
 --------------------------------------------------------------
 
          Ground-State Mulliken Net Atomic Charges

     Atom                 Charge (a.u.)    Spin (a.u.)
  --------------------------------------------------------
      1 F                    -0.281491      -0.000000
      2 F                    -0.381506       0.000000
      3 C                     0.370462      -0.000000
      4 C                    -0.343778       0.000000
      5 C                    -0.385938       0.000000
      6 H                     0.353304       0.000000
      7 H                     0.120846       0.000000
      8 H                     0.125444       0.000000
      9 H                     0.136186       0.000000
     10 H                     0.126382      -0.000000
     11 H                     0.160090       0.000000
  --------------------------------------------------------
  Sum of atomic charges =     0.000000
  Sum of spin   charges =    -0.000000

 -----------------------------------------------------------------
                    Cartesian Multipole Moments
 -----------------------------------------------------------------
    Charge (ESU x 10^10)
                -0.0000
    Dipole Moment (Debye)
         X      -0.2768      Y       1.5185      Z       1.5058
       Tot       2.1564
    Quadrupole Moments (Debye-Ang)
        XX     -26.6309     XY      -0.7987     YY     -29.0641
        XZ       2.3852     YZ       0.0135     ZZ     -35.5192
    Octopole Moments (Debye-Ang^2)
       XXX      32.0307    XXY      -3.7687    XYY      13.0379
       YYY     -11.4817    XXZ      -0.5952    XYZ      -0.6914
       YYZ      -3.0652    XZZ      10.1019    YZZ      -4.9984
       ZZZ       7.3785
    Hexadecapole Moments (Debye-Ang^3)
      XXXX    -210.3080   XXXY       5.2512   XXYY     -57.6159
      XYYY       7.1987   YYYY    -114.4666   XXXZ      12.4747
      XXYZ       0.0258   XYYZ       6.3955   YYYZ      -1.3309
      XXZZ     -81.3829   XYZZ       2.8705   YYZZ     -68.9381
      XZZZ      26.4513   YZZZ      -5.4409   ZZZZ    -307.6740
 -----------------------------------------------------------------
 Calculating analytic gradient of the SCF energy
 Gradient of SCF Energy
            1           2           3           4           5           6
    1   0.0002148  -0.0065752  -0.0039056   0.0044882  -0.0001574   0.0066881
    2   0.0004158  -0.0048597  -0.0016816   0.0019604   0.0007656   0.0041070
    3   0.0002353  -0.0333525  -0.0006719   0.0048358   0.0006263   0.0307163
            7           8           9          10          11
    1  -0.0000831   0.0003407   0.0001406   0.0000879  -0.0012389
    2   0.0000310   0.0002274  -0.0003030  -0.0000444  -0.0006183
    3   0.0000735  -0.0001350  -0.0000206  -0.0000679  -0.0022393
 Max gradient component =       3.335E-02
 RMS gradient           =       8.273E-03
 Gradient time:  CPU 8.19 s  wall 0.70 s
 Geometry Optimization Parameters
   NAtoms,    NIC,     NZ,  NCons,   NDum,   NFix, NCnnct, MaxDiis
       11     110       0       1       0       0       0       0

 Cartesian Hessian Update
 Hessian Updated using BFGS Update


** CONSTRAINED OPTIMIZATION IN DELOCALIZED INTERNAL COORDINATES **
   Searching for a Minimum

   Optimization Cycle:   3

                       Coordinates (Angstroms)
     ATOM                X               Y               Z
      1  F        -0.8303384331   -1.1459536644    1.0010721937
      2  F         0.5866782095   -0.1387164234   -2.2109364305
      3  C        -0.5795848907    0.1354410476    0.6475622498
      4  C         0.5475611441    0.7169039114    1.0794102005
      5  C        -1.6595382586    0.7015453584   -0.2165231791
      6  H         0.7953188110   -0.0024777206   -1.2766788926
      7  H         0.7530517237    1.7514592864    0.8338843229
      8  H         1.2486184315    0.1796166369    1.7066247263
      9  H        -2.6305153431    0.5673950224    0.2702144037
     10  H        -1.4933106097    1.7643740805   -0.4009070670
     11  H        -1.6842427846    0.1808194649   -1.1820215277
   Point Group: c1    Number of degrees of freedom:    27


   Energy is   -317.588178028

              Constraints and their Current Values
                                        Value     Constraint
   Distance(Angs):        2   4             3.400000     3.400000
 Hessian Updated using BFGS Update

 26 Hessian modes will be used to form the next step
  Hessian Eigenvalues:
     0.028449    0.045437    0.046592    0.050260    0.057122    0.060655
     0.065196    0.070061    0.081524    0.085940    0.092233    0.099785
     0.107292    0.109312    0.114989    0.122412    0.129867    0.179132
     0.289183    0.303504    0.343171    0.346507    0.355802    0.356456
     0.490401    0.545024

 Minimum Search - Taking Simple RFO Step
 Searching for Lamda that Minimizes Along All modes
 Value Taken    Lamda =  -0.00265031
 Step Taken.  Stepsize is  0.135835

                             Maximum     Tolerance    Cnvgd?
         Gradient           0.012465      0.000300      NO
         Displacement       0.085542      0.001200      NO
         Energy change     -0.001694      0.000001      NO


 New Cartesian Coordinates Obtained by Inverse Iteration

 Displacement from previous Coordinates is:  0.082882
 ----------------------------------------------------------------
             Standard Nuclear Orientation (Angstroms)
    I     Atom           X                Y                Z
 ----------------------------------------------------------------
    1      F      -0.8270268206    -1.1484623114     0.9971131189
    2      F       0.5875487277    -0.1423011995    -2.2040163062
    3      C      -0.5763470146     0.1355549459     0.6480480321
    4      C       0.5414190967     0.7199504218     1.0845078998
    5      C      -1.6546748736     0.7023283502    -0.2139184120
    6      H       0.7900563103    -0.0112314976    -1.3117791650
    7      H       0.7453329101     1.7551627466     0.8405465745
    8      H       1.2408698798     0.1827649930     1.7136664588
    9      H      -2.6270670655     0.5702877296     0.2713017662
   10      H      -1.4894810521     1.7653767683    -0.3983682977
   11      H      -1.6769320983     0.1809760532    -1.1754006694
 ----------------------------------------------------------------
 Nuclear Repulsion Energy =   174.6087639010 hartrees
 There are       21 alpha and       21 beta electrons

                       Distance Matrix (Angstroms)
             F (  1)   F (  2)   C (  3)   C (  4)   C (  5)   H (  6)
   F (  2)  3.641513
   C (  3)  1.354026  3.092916
   C (  4)  2.317595  3.400000  1.334697
   C (  5)  2.361573  3.114716  1.492317  2.551284
   H (  6)  3.039611  0.924270  2.393643  2.517665  2.773297
   H (  7)  3.305732  3.590909  2.099291  1.082942  2.824959  2.784718
   H (  8)  2.561603  3.985064  2.107142  1.083347  3.517060  3.064994
   H (  9)  2.592499  4.119313  2.129879  3.274600  1.094724  3.810649
   H ( 10)  3.297980  3.348679  2.141289  2.723306  1.091505  3.030998
   H ( 11)  2.685063  2.508073  2.130332  3.212283  1.093961  2.478220
             H (  7)   H (  8)   H (  9)   H ( 10)
   H (  8)  1.865564
   H (  9)  3.619537  4.146267
   H ( 10)  2.555271  3.797390  1.780673
   H ( 11)  3.522708  4.106127  1.774054  1.774611
 
 Applying Cartesian multipole field
    Component          Value
    ---------          -----
     (2,0,0)        1.00000E-11
     (0,2,0)        2.00000E-11
     (0,0,2)       -3.00000E-11
 Nucleus-field energy     =    -0.0000000041 hartrees
 Requested basis set is 6-31G(d,p)
 There are 38 shells and 105 basis functions
 A cutoff of  1.0D-14 yielded    715 shell pairs
 There are      5623 function pairs
 Smallest overlap matrix eigenvalue = 3.50E-03
 Guess from superposition of atomic densities
 Warning:  Energy on first SCF cycle will be non-variational
 SAD guess density has 42.000000 electrons

 -----------------------------------------------------------------------
  General SCF calculation program by
  Eric Jon Sundstrom, Paul Horn, Yuezhi Mao, Dmitri Zuev, Alec White,
  David Stuck, Shaama M.S., Shane Yost, Joonho Lee, David Small,
  Daniel Levine, Susi Lehtola, Hugh Burton, Evgeny Epifanovsky
 -----------------------------------------------------------------------
 Exchange:     0.2000 Hartree-Fock + 0.0800 Slater + 0.7200 B88
 Correlation:  0.1900 VWN1RPA + 0.8100 LYP
 Using SG-1 standard quadrature grid
 using 12 threads for integral computing
 -------------------------------------------------------
 OpenMP Integral computing Module                
 Release: version 1.0, May 2013, Q-Chem Inc. Pittsburgh 
 -------------------------------------------------------
 -------------------------------------------------------
 OpenMP BLAS3 based DFT computing Module                
 Release: version 1.0, May 2013, Q-Chem Inc. Pittsburgh 
 -------------------------------------------------------
 A unrestricted SCF calculation will be
 performed using DIIS
 SCF converges when DIIS error is below 1.0e-06
 Alpha HF Exchange    Energy =  -3.76836203574077
 Beta HF Exchange     Energy =  -3.76836203574077
 DFT Correlation      Energy =  -1.84494519268380
 DFT Exchange         Energy = -29.64012591919099
 One-Electron (alpha) Energy = -389.80381075754519
 One-Electron (beta)  Energy = -389.80381075754519
 Total Coulomb        Energy = 325.94808334802809
 ---------------------------------------
  Cycle       Energy         DIIS error
 ---------------------------------------
    1    -318.0725694535      3.12e-02  
 Alpha HF Exchange    Energy =  -3.82305457766633
 Beta HF Exchange     Energy =  -3.82305457766633
 DFT Correlation      Energy =  -1.87568209084060
 DFT Exchange         Energy = -30.38829676171829
 One-Electron (alpha) Energy = -393.20588273426267
 One-Electron (beta)  Energy = -393.20588273426267
 Total Coulomb        Energy = 334.23659818794232
    2    -317.4764913916      4.89e-03  
 Alpha HF Exchange    Energy =  -3.74007869330518
 Beta HF Exchange     Energy =  -3.74007869330518
 DFT Correlation      Energy =  -1.84912260587709
 DFT Exchange         Energy = -29.72247837983085
 One-Electron (alpha) Energy = -390.15906746747919
 One-Electron (beta)  Energy = -390.15906746747902
 Total Coulomb        Energy = 327.32322932511096
    3    -317.4379000852      5.72e-03  
 Alpha HF Exchange    Energy =  -3.77618302649234
 Beta HF Exchange     Energy =  -3.77618302649233
 DFT Correlation      Energy =  -1.86044371346884
 DFT Exchange         Energy = -30.01096072963770
 One-Electron (alpha) Energy = -391.28972693228889
 One-Electron (beta)  Energy = -391.28972693228849
 Total Coulomb        Energy = 329.81062814254039
    4    -317.5838323212      9.58e-04  
 Alpha HF Exchange    Energy =  -3.78060571090918
 Beta HF Exchange     Energy =  -3.78060571090918
 DFT Correlation      Energy =  -1.86227687389054
 DFT Exchange         Energy = -30.04836875020843
 One-Electron (alpha) Energy = -391.66698978088209
 One-Electron (beta)  Energy = -391.66698978088209
 Total Coulomb        Energy = 330.60813427444236
    5    -317.5889384363      2.39e-04  
 Alpha HF Exchange    Energy =  -3.77941018800369
 Beta HF Exchange     Energy =  -3.77941018800368
 DFT Correlation      Energy =  -1.86195774542377
 DFT Exchange         Energy = -30.03892450874841
 One-Electron (alpha) Energy = -391.59761752159085
 One-Electron (beta)  Energy = -391.59761752159073
 Total Coulomb        Energy = 330.45696471398691
    6    -317.5892090625      7.47e-05  
 Alpha HF Exchange    Energy =  -3.77962560244927
 Beta HF Exchange     Energy =  -3.77962560244927
 DFT Correlation      Energy =  -1.86193508038808
 DFT Exchange         Energy = -30.04030250511189
 One-Electron (alpha) Energy = -391.59677748512297
 One-Electron (beta)  Energy = -391.59677748512297
 Total Coulomb        Energy = 330.45704746342392
    7    -317.5892324003      1.75e-05  
 Alpha HF Exchange    Energy =  -3.77957329264137
 Beta HF Exchange     Energy =  -3.77957329264137
 DFT Correlation      Energy =  -1.86194175752475
 DFT Exchange         Energy = -30.03997487021785
 One-Electron (alpha) Energy = -391.59688770387970
 One-Electron (beta)  Energy = -391.59688770387953
 Total Coulomb        Energy = 330.45684094660169
    8    -317.5892337773      6.07e-06  
 Alpha HF Exchange    Energy =  -3.77959730882531
 Beta HF Exchange     Energy =  -3.77959730882530
 DFT Correlation      Energy =  -1.86194438912234
 DFT Exchange         Energy = -30.04014684910445
 One-Electron (alpha) Energy = -391.59748355772632
 One-Electron (beta)  Energy = -391.59748355772604
 Total Coulomb        Energy = 330.45825516406478
    9    -317.5892339103      1.01e-06  
 Alpha HF Exchange    Energy =  -3.77959586616831
 Beta HF Exchange     Energy =  -3.77959586616831
 DFT Correlation      Energy =  -1.86194444503267
 DFT Exchange         Energy = -30.04013653289272
 One-Electron (alpha) Energy = -391.59745957867909
 One-Electron (beta)  Energy = -391.59745957867915
 Total Coulomb        Energy = 330.45819405700496
   10    -317.5892339137      3.45e-07  Convergence criterion met
 ---------------------------------------
 SCF time:   CPU 23.42s  wall 2.00s 
<S^2> =          0.000000000
 Alpha HF Exchange    Energy =  -3.77959586616831
 Beta HF Exchange     Energy =  -3.77959586616831
 DFT Correlation      Energy =  -1.86194444503267
 DFT Exchange         Energy = -30.04013653289272
 One-Electron (alpha) Energy = -391.59745957867909
 One-Electron (beta)  Energy = -391.59745957867915
 Total Coulomb        Energy = 330.45819405700496
 Nuclear repulsion Energy = 174.60876389691808
 SCF   energy in the final basis set =     -317.5892339137
 Total energy in the final basis set =     -317.5892339137
 
 --------------------------------------------------------------
 
                    Orbital Energies (a.u.)
 --------------------------------------------------------------
 
 Alpha MOs
 -- Occupied --
-24.709 -24.656 -10.290 -10.202 -10.196  -1.222  -1.162  -0.805
 -0.719  -0.589  -0.515  -0.502  -0.492  -0.474  -0.423  -0.414
 -0.400  -0.371  -0.370  -0.369  -0.269
 -- Virtual --
  0.007   0.081   0.107   0.123   0.146   0.169   0.179   0.203
  0.255   0.345   0.492   0.535   0.552   0.581   0.609   0.615
  0.649   0.681   0.753   0.802   0.821   0.857   0.865   0.898
  0.922   1.012   1.082   1.147   1.166   1.201   1.221   1.263
  1.294   1.306   1.391   1.395   1.483   1.582   1.586   1.629
  1.666   1.741   1.779   1.813   1.836   1.848   1.881   1.882
  1.930   2.003   2.023   2.056   2.072   2.087   2.110   2.126
  2.228   2.313   2.335   2.415   2.448   2.544   2.557   2.618
  2.640   2.674   2.737   2.774   2.835   2.838   2.867   2.999
  3.098   3.185   3.356   3.409   3.453   3.591   3.722   3.858
  4.214   4.399   4.466   4.902
 
 Beta MOs
 -- Occupied --
-24.709 -24.656 -10.290 -10.202 -10.196  -1.222  -1.162  -0.805
 -0.719  -0.589  -0.515  -0.502  -0.492  -0.474  -0.423  -0.414
 -0.400  -0.371  -0.370  -0.369  -0.269
 -- Virtual --
  0.007   0.081   0.107   0.123   0.146   0.169   0.179   0.203
  0.255   0.345   0.492   0.535   0.552   0.581   0.609   0.615
  0.649   0.681   0.753   0.802   0.821   0.857   0.865   0.898
  0.922   1.012   1.082   1.147   1.166   1.201   1.221   1.263
  1.294   1.306   1.391   1.395   1.483   1.582   1.586   1.629
  1.666   1.741   1.779   1.813   1.836   1.848   1.881   1.882
  1.930   2.003   2.023   2.056   2.072   2.087   2.110   2.126
  2.228   2.313   2.335   2.415   2.448   2.544   2.557   2.618
  2.640   2.674   2.737   2.774   2.835   2.838   2.867   2.999
  3.098   3.185   3.356   3.409   3.453   3.591   3.722   3.858
  4.214   4.399   4.466   4.902
 --------------------------------------------------------------
 
          Ground-State Mulliken Net Atomic Charges

     Atom                 Charge (a.u.)    Spin (a.u.)
  --------------------------------------------------------
      1 F                    -0.283502      -0.000000
      2 F                    -0.364982       0.000000
      3 C                     0.371023       0.000000
      4 C                    -0.342037      -0.000000
      5 C                    -0.386193      -0.000000
      6 H                     0.342657       0.000000
      7 H                     0.119430       0.000000
      8 H                     0.123901      -0.000000
      9 H                     0.135771      -0.000000
     10 H                     0.125645       0.000000
     11 H                     0.158286       0.000000
  --------------------------------------------------------
  Sum of atomic charges =     0.000000
  Sum of spin   charges =     0.000000

 -----------------------------------------------------------------
                    Cartesian Multipole Moments
 -----------------------------------------------------------------
    Charge (ESU x 10^10)
                -0.0000
    Dipole Moment (Debye)
         X      -0.2377      Y       1.5106      Z       1.3965
       Tot       2.0709
    Quadrupole Moments (Debye-Ang)
        XX     -26.6569     XY      -0.8110     YY     -29.0490
        XZ       2.2849     YZ       0.0241     ZZ     -35.3131
    Octopole Moments (Debye-Ang^2)
       XXX      32.1280    XXY      -3.7893    XYY      13.0500
       YYY     -11.4527    XXZ      -0.7636    XYZ      -0.7014
       YYZ      -3.1905    XZZ      10.3027    YZZ      -4.9860
       ZZZ       6.6801
    Hexadecapole Moments (Debye-Ang^3)
      XXXX    -209.1171   XXXY       5.3122   XXYY     -57.4707
      XYYY       7.2569   YYYY    -114.9535   XXXZ      12.2430
      XXYZ      -0.0665   XYYZ       6.3694   YYYZ      -1.6065
      XXZZ     -80.9757   XYZZ       2.9266   YYZZ     -68.8573
      XZZZ      26.0875   YZZZ      -5.8460   ZZZZ    -306.2539
 -----------------------------------------------------------------
 Calculating analytic gradient of the SCF energy
 Gradient of SCF Energy
            1           2           3           4           5           6
    1  -0.0001465   0.0023571   0.0000348   0.0002256   0.0008268  -0.0024049
    2   0.0000444   0.0009836   0.0000153   0.0006674  -0.0001649  -0.0016206
    3   0.0003614   0.0065234  -0.0004103   0.0026214  -0.0001321  -0.0087412
            7           8           9          10          11
    1  -0.0001165   0.0000241  -0.0000530  -0.0001199  -0.0006276
    2   0.0000734  -0.0000257  -0.0000840   0.0000387   0.0000724
    3   0.0000071  -0.0001108   0.0000333   0.0000116  -0.0001639
 Max gradient component =       8.741E-03
 RMS gradient           =       2.080E-03
 Gradient time:  CPU 8.19 s  wall 0.71 s
 Geometry Optimization Parameters
   NAtoms,    NIC,     NZ,  NCons,   NDum,   NFix, NCnnct, MaxDiis
       11     110       0       1       0       0       0       0

 Cartesian Hessian Update
 Hessian Updated using BFGS Update


** CONSTRAINED OPTIMIZATION IN DELOCALIZED INTERNAL COORDINATES **
   Searching for a Minimum

   Optimization Cycle:   4

                       Coordinates (Angstroms)
     ATOM                X               Y               Z
      1  F        -0.8270268206   -1.1484623114    0.9971131189
      2  F         0.5875487277   -0.1423011995   -2.2040163062
      3  C        -0.5763470146    0.1355549459    0.6480480321
      4  C         0.5414190967    0.7199504218    1.0845078998
      5  C        -1.6546748736    0.7023283502   -0.2139184120
      6  H         0.7900563103   -0.0112314976   -1.3117791650
      7  H         0.7453329101    1.7551627466    0.8405465745
      8  H         1.2408698798    0.1827649930    1.7136664588
      9  H        -2.6270670655    0.5702877296    0.2713017662
     10  H        -1.4894810521    1.7653767683   -0.3983682977
     11  H        -1.6769320983    0.1809760532   -1.1754006694
   Point Group: c1    Number of degrees of freedom:    27


   Energy is   -317.589233914

              Constraints and their Current Values
                                        Value     Constraint
   Distance(Angs):        2   4             3.400000     3.400000
 Hessian Updated using BFGS Update

 26 Hessian modes will be used to form the next step
  Hessian Eigenvalues:
     0.028438    0.045422    0.046581    0.050282    0.057035    0.060676
     0.065187    0.070190    0.081561    0.085968    0.093171    0.101298
     0.107298    0.109337    0.114978    0.123662    0.129767    0.223083
     0.290318    0.304309    0.343172    0.346507    0.355805    0.356459
     0.490679    0.545024

 Minimum Search - Taking Simple RFO Step
 Searching for Lamda that Minimizes Along All modes
 Value Taken    Lamda =  -0.00016783
 Step Taken.  Stepsize is  0.028613

                             Maximum     Tolerance    Cnvgd?
         Gradient           0.003841      0.000300      NO
         Displacement       0.017175      0.001200      NO
         Energy change     -0.001056      0.000001      NO


 New Cartesian Coordinates Obtained by Inverse Iteration

 Displacement from previous Coordinates is:  0.016544
 ----------------------------------------------------------------
             Standard Nuclear Orientation (Angstroms)
    I     Atom           X                Y                Z
 ----------------------------------------------------------------
    1      F      -0.8269208549    -1.1486598922     0.9960197319
    2      F       0.5870086618    -0.1423918693    -2.2057470506
    3      C      -0.5769445928     0.1354924047     0.6479857218
    4      C       0.5417110950     0.7194961117     1.0828840467
    5      C      -1.6555358613     0.7025117339    -0.2136652906
    6      H       0.7913375856    -0.0098279085    -1.3043614508
    7      H       0.7460308567     1.7544496034     0.8383382566
    8      H       1.2412607274     0.1826220071     1.7122336172
    9      H      -2.6279369806     0.5704019056     0.2712351069
   10      H      -1.4897985606     1.7654676301    -0.3980204699
   11      H      -1.6765140762     0.1808452737    -1.1752012192
 ----------------------------------------------------------------
 Nuclear Repulsion Energy =   174.5617727451 hartrees
 There are       21 alpha and       21 beta electrons

                       Distance Matrix (Angstroms)
             F (  1)   F (  2)   C (  3)   C (  4)   C (  5)   H (  6)
   F (  2)  3.641852
   C (  3)  1.353759  3.094479
   C (  4)  2.317478  3.400000  1.334761
   C (  5)  2.361520  3.116289  1.492418  2.551318
   H (  6)  3.034378  0.933713  2.388509  2.508619  2.772045
   H (  7)  3.305614  3.590230  2.099410  1.082903  2.825032  2.775948
   H (  8)  2.561767  3.985505  2.107300  1.083367  3.517215  3.056029
   H (  9)  2.593096  4.120606  2.130178  3.275313  1.094598  3.809279
   H ( 10)  3.297710  3.349766  2.141086  2.722897  1.091481  3.029309
   H ( 11)  2.683951  2.507996  2.129582  3.210859  1.094133  2.478574
             H (  7)   H (  8)   H (  9)   H ( 10)
   H (  8)  1.865365
   H (  9)  3.620391  4.146992
   H ( 10)  2.554924  3.797006  1.780855
   H ( 11)  3.521263  4.104960  1.774581  1.774796
 
 Applying Cartesian multipole field
    Component          Value
    ---------          -----
     (2,0,0)        1.00000E-11
     (0,2,0)        2.00000E-11
     (0,0,2)       -3.00000E-11
 Nucleus-field energy     =    -0.0000000041 hartrees
 Requested basis set is 6-31G(d,p)
 There are 38 shells and 105 basis functions
 A cutoff of  1.0D-14 yielded    715 shell pairs
 There are      5623 function pairs
 Smallest overlap matrix eigenvalue = 3.50E-03
 Guess from superposition of atomic densities
 Warning:  Energy on first SCF cycle will be non-variational
 SAD guess density has 42.000000 electrons

 -----------------------------------------------------------------------
  General SCF calculation program by
  Eric Jon Sundstrom, Paul Horn, Yuezhi Mao, Dmitri Zuev, Alec White,
  David Stuck, Shaama M.S., Shane Yost, Joonho Lee, David Small,
  Daniel Levine, Susi Lehtola, Hugh Burton, Evgeny Epifanovsky
 -----------------------------------------------------------------------
 Exchange:     0.2000 Hartree-Fock + 0.0800 Slater + 0.7200 B88
 Correlation:  0.1900 VWN1RPA + 0.8100 LYP
 Using SG-1 standard quadrature grid
 using 12 threads for integral computing
 -------------------------------------------------------
 OpenMP Integral computing Module                
 Release: version 1.0, May 2013, Q-Chem Inc. Pittsburgh 
 -------------------------------------------------------
 -------------------------------------------------------
 OpenMP BLAS3 based DFT computing Module                
 Release: version 1.0, May 2013, Q-Chem Inc. Pittsburgh 
 -------------------------------------------------------
 A unrestricted SCF calculation will be
 performed using DIIS
 SCF converges when DIIS error is below 1.0e-06
 Alpha HF Exchange    Energy =  -3.76769775026666
 Beta HF Exchange     Energy =  -3.76769775026666
 DFT Correlation      Energy =  -1.84484188515925
 DFT Exchange         Energy = -29.63841072904008
 One-Electron (alpha) Energy = -389.76724616774891
 One-Electron (beta)  Energy = -389.76724616774891
 Total Coulomb        Energy = 325.92409213934320
 ---------------------------------------
  Cycle       Energy         DIIS error
 ---------------------------------------
    1    -318.0672755699      3.12e-02  
 Alpha HF Exchange    Energy =  -3.82253965168406
 Beta HF Exchange     Energy =  -3.82253965168406
 DFT Correlation      Energy =  -1.87555939039252
 DFT Exchange         Energy = -30.38477777962281
 One-Electron (alpha) Energy = -393.16297757970995
 One-Electron (beta)  Energy = -393.16297757970983
 Total Coulomb        Energy = 334.19313486361568
    2    -317.4764640282      4.89e-03  
 Alpha HF Exchange    Energy =  -3.73938993359771
 Beta HF Exchange     Energy =  -3.73938993359772
 DFT Correlation      Energy =  -1.84895133921497
 DFT Exchange         Energy = -29.71793521843810
 One-Electron (alpha) Energy = -390.11412760750159
 One-Electron (beta)  Energy = -390.11412760750210
 Total Coulomb        Energy = 327.27466592499491
    3    -317.4374829738      5.73e-03  
 Alpha HF Exchange    Energy =  -3.77570476753031
 Beta HF Exchange     Energy =  -3.77570476753030
 DFT Correlation      Energy =  -1.86031799276927
 DFT Exchange         Energy = -30.00790840753592
 One-Electron (alpha) Energy = -391.25043219471024
 One-Electron (beta)  Energy = -391.25043219471019
 Total Coulomb        Energy = 329.77475762737583
    4    -317.5839699564      9.53e-04  
 Alpha HF Exchange    Energy =  -3.78009189255883
 Beta HF Exchange     Energy =  -3.78009189255884
 DFT Correlation      Energy =  -1.86215138259414
 DFT Exchange         Energy = -30.04505695931822
 One-Electron (alpha) Energy = -391.62673454186836
 One-Electron (beta)  Energy = -391.62673454186864
 Total Coulomb        Energy = 330.57008092078377
    5    -317.5890075490      2.41e-04  
 Alpha HF Exchange    Energy =  -3.77888359320218
 Beta HF Exchange     Energy =  -3.77888359320218
 DFT Correlation      Energy =  -1.86182569553425
 DFT Exchange         Energy = -30.03549973058162
 One-Electron (alpha) Energy = -391.55611057979070
 One-Electron (beta)  Energy = -391.55611057979075
 Total Coulomb        Energy = 330.41625886292383
    6    -317.5892821682      7.61e-05  
 Alpha HF Exchange    Energy =  -3.77910773500668
 Beta HF Exchange     Energy =  -3.77910773500668
 DFT Correlation      Energy =  -1.86180575644347
 DFT Exchange         Energy = -30.03694825701112
 One-Electron (alpha) Energy = -391.55582234440493
 One-Electron (beta)  Energy = -391.55582234440510
 Total Coulomb        Energy = 330.41753500645285
    7    -317.5893064248      1.75e-05  
 Alpha HF Exchange    Energy =  -3.77905516463897
 Beta HF Exchange     Energy =  -3.77905516463897
 DFT Correlation      Energy =  -1.86181211537010
 DFT Exchange         Energy = -30.03661745204045
 One-Electron (alpha) Energy = -391.55586282279961
 One-Electron (beta)  Energy = -391.55586282279944
 Total Coulomb        Energy = 330.41718499124534
    8    -317.5893078100      6.00e-06  
 Alpha HF Exchange    Energy =  -3.77907921634593
 Beta HF Exchange     Energy =  -3.77907921634593
 DFT Correlation      Energy =  -1.86181471764378
 DFT Exchange         Energy = -30.03678971273064
 One-Electron (alpha) Energy = -391.55645906900440
 One-Electron (beta)  Energy = -391.55645906900452
 Total Coulomb        Energy = 330.41860031950978
    9    -317.5893079405      1.03e-06  
 Alpha HF Exchange    Energy =  -3.77907769654284
 Beta HF Exchange     Energy =  -3.77907769654284
 DFT Correlation      Energy =  -1.86181479305958
 DFT Exchange         Energy = -30.03677894970568
 One-Electron (alpha) Energy = -391.55643748739612
 One-Electron (beta)  Energy = -391.55643748739641
 Total Coulomb        Energy = 330.41854342560134
   10    -317.5893079440      3.56e-07  Convergence criterion met
 ---------------------------------------
 SCF time:   CPU 23.37s  wall 2.00s 
<S^2> =          0.000000000
 Alpha HF Exchange    Energy =  -3.77907769654284
 Beta HF Exchange     Energy =  -3.77907769654284
 DFT Correlation      Energy =  -1.86181479305958
 DFT Exchange         Energy = -30.03677894970568
 One-Electron (alpha) Energy = -391.55643748739612
 One-Electron (beta)  Energy = -391.55643748739641
 Total Coulomb        Energy = 330.41854342560134
 Nuclear repulsion Energy = 174.56177274102470
 SCF   energy in the final basis set =     -317.5893079440
 Total energy in the final basis set =     -317.5893079440
 
 --------------------------------------------------------------
 
                    Orbital Energies (a.u.)
 --------------------------------------------------------------
 
 Alpha MOs
 -- Occupied --
-24.710 -24.656 -10.290 -10.202 -10.197  -1.222  -1.159  -0.805
 -0.719  -0.589  -0.513  -0.502  -0.493  -0.474  -0.423  -0.414
 -0.400  -0.371  -0.370  -0.368  -0.269
 -- Virtual --
  0.006   0.080   0.107   0.122   0.146   0.169   0.179   0.202
  0.255   0.345   0.491   0.534   0.551   0.580   0.609   0.614
  0.648   0.680   0.753   0.801   0.821   0.856   0.864   0.897
  0.921   1.011   1.082   1.147   1.166   1.201   1.221   1.262
  1.294   1.306   1.390   1.395   1.483   1.581   1.586   1.628
[...]
   Distance(Angs):        2   4             3.400000     3.400000
 Hessian Updated using BFGS Update

 26 Hessian modes will be used to form the next step
  Hessian Eigenvalues:
     0.000326    0.003046    0.011069    0.021652    0.048463    0.053361
     0.057464    0.063474    0.068879    0.074929    0.080950    0.102411
     0.106811    0.108547    0.110453    0.117069    0.128773    0.275380
     0.298109    0.314588    0.342901    0.346488    0.355730    0.356417
     0.496406    0.546693

 Minimum Search - Taking Simple RFO Step
 Searching for Lamda that Minimizes Along All modes
 Value Taken    Lamda =  -0.00000118
 Step Taken.  Stepsize is  0.023765

                             Maximum     Tolerance    Cnvgd?
         Gradient           0.000087      0.000300     YES
         Displacement       0.020623      0.001200      NO
         Energy change     -0.000001      0.000001      NO


 New Cartesian Coordinates Obtained by Inverse Iteration

 Displacement from previous Coordinates is:  0.011536
 ----------------------------------------------------------------
             Standard Nuclear Orientation (Angstroms)
    I     Atom           X                Y                Z
 ----------------------------------------------------------------
    1      F      -0.8077582816    -1.1529971572     0.9566599366
    2      F       0.5712658094    -0.2092701853    -2.1867142125
    3      C      -0.5757169039     0.1424595202     0.6401847254
    4      C       0.5391351142     0.7287608453     1.0811693013
    5      C      -1.6614181433     0.7151768467    -0.2083593005
    6      H       0.8185004196    -0.0264925971    -1.3064817365
    7      H       0.7304697319     1.7715739795     0.8609547534
    8      H       1.2482946575     0.1853672679     1.6941424205
    9      H      -2.6346121155     0.5519407736     0.2649433951
   10      H      -1.5131620242     1.7856274699    -0.3620138644
   11      H      -1.6613002641     0.2182602365    -1.1827844182
 ----------------------------------------------------------------
 Nuclear Repulsion Energy =   174.8722410785 hartrees
 There are       21 alpha and       21 beta electrons

                       Distance Matrix (Angstroms)
             F (  1)   F (  2)   C (  3)   C (  4)   C (  5)   H (  6)
   F (  2)  3.559934
   C (  3)  1.353591  3.070935
   C (  4)  2.317464  3.400000  1.334583
   C (  5)  2.361372  3.123038  1.492240  2.550589
   H (  6)  3.005918  0.932385  2.400395  2.519788  2.811751
   H (  7)  3.305816  3.638320  2.099733  1.082849  2.824984  2.817547
   H (  8)  2.561729  3.959186  2.107056  1.083476  3.516623  3.038643
   H (  9)  2.592813  4.107033  2.132494  3.281792  1.094426  3.837701
   H ( 10)  3.297273  3.413794  2.140842  2.722438  1.091538  3.100395
   H ( 11)  2.680691  2.484956  2.123076  3.198127  1.093815  2.494918
             H (  7)   H (  8)   H (  9)   H ( 10)
   H (  8)  1.865046
   H (  9)  3.628569  4.153788
   H ( 10)  2.555334  3.796611  1.781210
   H ( 11)  3.508592  4.091886  1.776118  1.775457
 
 Applying Cartesian multipole field
    Component          Value
    ---------          -----
     (2,0,0)        1.00000E-11
     (0,2,0)        2.00000E-11
     (0,0,2)       -3.00000E-11
 Nucleus-field energy     =    -0.0000000039 hartrees
 Requested basis set is 6-31G(d,p)
 There are 38 shells and 105 basis functions
 A cutoff of  1.0D-14 yielded    716 shell pairs
 There are      5627 function pairs
 Smallest overlap matrix eigenvalue = 3.50E-03
 Guess from superposition of atomic densities
 Warning:  Energy on first SCF cycle will be non-variational
 SAD guess density has 42.000000 electrons

 -----------------------------------------------------------------------
  General SCF calculation program by
  Eric Jon Sundstrom, Paul Horn, Yuezhi Mao, Dmitri Zuev, Alec White,
  David Stuck, Shaama M.S., Shane Yost, Joonho Lee, David Small,
  Daniel Levine, Susi Lehtola, Hugh Burton, Evgeny Epifanovsky
 -----------------------------------------------------------------------
 Exchange:     0.2000 Hartree-Fock + 0.0800 Slater + 0.7200 B88
 Correlation:  0.1900 VWN1RPA + 0.8100 LYP
 Using SG-1 standard quadrature grid
 using 12 threads for integral computing
 -------------------------------------------------------
 OpenMP Integral computing Module                
 Release: version 1.0, May 2013, Q-Chem Inc. Pittsburgh 
 -------------------------------------------------------
 -------------------------------------------------------
 OpenMP BLAS3 based DFT computing Module                
 Release: version 1.0, May 2013, Q-Chem Inc. Pittsburgh 
 -------------------------------------------------------
 A unrestricted SCF calculation will be
 performed using DIIS
 SCF converges when DIIS error is below 1.0e-06
 Alpha HF Exchange    Energy =  -3.76780326704538
 Beta HF Exchange     Energy =  -3.76780326704538
 DFT Correlation      Energy =  -1.84484326006634
 DFT Exchange         Energy = -29.63869339016304
 One-Electron (alpha) Energy = -390.07571635858966
 One-Electron (beta)  Energy = -390.07571635858966
 Total Coulomb        Energy = 326.22998695395199
 ---------------------------------------
  Cycle       Energy         DIIS error
 ---------------------------------------
    1    -318.0683478729      3.12e-02  
 Alpha HF Exchange    Energy =  -3.82262903635851
 Beta HF Exchange     Energy =  -3.82262903635851
 DFT Correlation      Energy =  -1.87562429673395
 DFT Exchange         Energy = -30.38543723816669
 One-Electron (alpha) Energy = -393.48788944952179
 One-Electron (beta)  Energy = -393.48788944952179
 Total Coulomb        Energy = 334.53339984547580
    2    -317.4764575866      4.89e-03  
 Alpha HF Exchange    Energy =  -3.73939952564365
 Beta HF Exchange     Energy =  -3.73939952564366
 DFT Correlation      Energy =  -1.84896530037221
 DFT Exchange         Energy = -29.71796552218797
 One-Electron (alpha) Energy = -390.42516660931841
 One-Electron (beta)  Energy = -390.42516660931852
 Total Coulomb        Energy = 327.58566670759001
    3    -317.4381553103      5.72e-03  
 Alpha HF Exchange    Energy =  -3.77578594622499
 Beta HF Exchange     Energy =  -3.77578594622499
 DFT Correlation      Energy =  -1.86036478818818
 DFT Exchange         Energy = -30.00848523078438
 One-Electron (alpha) Energy = -391.56828506516280
 One-Electron (beta)  Energy = -391.56828506516257
 Total Coulomb        Energy = 330.10071138065535
    4    -317.5840395865      9.51e-04  
 Alpha HF Exchange    Energy =  -3.78014640291735
 Beta HF Exchange     Energy =  -3.78014640291735
 DFT Correlation      Energy =  -1.86219100816890
 DFT Exchange         Energy = -30.04542351903940
 One-Electron (alpha) Energy = -391.94443694786247
 One-Electron (beta)  Energy = -391.94443694786253
 Total Coulomb        Energy = 330.89548893728022
    5    -317.5890512169      2.40e-04  
 Alpha HF Exchange    Energy =  -3.77893359457083
 Beta HF Exchange     Energy =  -3.77893359457083
 DFT Correlation      Energy =  -1.86186361257592
 DFT Exchange         Energy = -30.03582585582975
 One-Electron (alpha) Energy = -391.87334552190305
 One-Electron (beta)  Energy = -391.87334552190299
 Total Coulomb        Energy = 330.74068158147702
    6    -317.5893250453      7.61e-05  
 Alpha HF Exchange    Energy =  -3.77915915104298
 Beta HF Exchange     Energy =  -3.77915915104298
 DFT Correlation      Energy =  -1.86184467254156
 DFT Exchange         Energy = -30.03728854529887
 One-Electron (alpha) Energy = -391.87327052582549
 One-Electron (beta)  Energy = -391.87327052582555
 Total Coulomb        Energy = 330.74240229297538
    7    -317.5893492040      1.75e-05  
 Alpha HF Exchange    Energy =  -3.77910677066331
 Beta HF Exchange     Energy =  -3.77910677066330
 DFT Correlation      Energy =  -1.86185092640205
 DFT Exchange         Energy = -30.03695871959750
 One-Electron (alpha) Energy = -391.87327831775599
 One-Electron (beta)  Energy = -391.87327831775576
 Total Coulomb        Energy = 330.74198816916834
    8    -317.5893505791      5.95e-06  
 Alpha HF Exchange    Energy =  -3.77913069460769
 Beta HF Exchange     Energy =  -3.77913069460769
 DFT Correlation      Energy =  -1.86185348081912
 DFT Exchange         Energy = -30.03712996284350
 One-Electron (alpha) Energy = -391.87386877361860
 One-Electron (beta)  Energy = -391.87386877361860
 Total Coulomb        Energy = 330.74339059799291
    9    -317.5893507075      1.04e-06  
 Alpha HF Exchange    Energy =  -3.77912913104835
 Beta HF Exchange     Energy =  -3.77912913104834
 DFT Correlation      Energy =  -1.86185355683815
 DFT Exchange         Energy = -30.03711889396804
 One-Electron (alpha) Energy = -391.87384748781454
 One-Electron (beta)  Energy = -391.87384748781443
 Total Coulomb        Energy = 330.74333390290815
   10    -317.5893507110      3.55e-07  Convergence criterion met
 ---------------------------------------
 SCF time:   CPU 23.32s  wall 2.00s 
<S^2> =         -0.000000000
 Alpha HF Exchange    Energy =  -3.77912913104835
 Beta HF Exchange     Energy =  -3.77912913104834
 DFT Correlation      Energy =  -1.86185355683815
 DFT Exchange         Energy = -30.03711889396804
 One-Electron (alpha) Energy = -391.87384748781454
 One-Electron (beta)  Energy = -391.87384748781443
 Total Coulomb        Energy = 330.74333390290815
 Nuclear repulsion Energy = 174.87224107461620
 SCF   energy in the final basis set =     -317.5893507110
 Total energy in the final basis set =     -317.5893507110
 
 --------------------------------------------------------------
 
                    Orbital Energies (a.u.)
 --------------------------------------------------------------
 
 Alpha MOs
 -- Occupied --
-24.709 -24.657 -10.289 -10.201 -10.195  -1.221  -1.160  -0.804
 -0.718  -0.588  -0.513  -0.502  -0.492  -0.473  -0.423  -0.414
 -0.399  -0.371  -0.370  -0.369  -0.268
 -- Virtual --
  0.007   0.080   0.107   0.121   0.146   0.170   0.180   0.203
  0.256   0.346   0.492   0.534   0.551   0.581   0.611   0.615
  0.648   0.680   0.752   0.803   0.821   0.857   0.863   0.898
  0.922   1.012   1.081   1.153   1.163   1.206   1.219   1.263
  1.289   1.315   1.391   1.397   1.483   1.573   1.585   1.627
  1.662   1.742   1.782   1.814   1.838   1.849   1.882   1.884
  1.930   2.004   2.023   2.056   2.071   2.088   2.112   2.127
  2.228   2.314   2.336   2.416   2.450   2.528   2.553   2.617
  2.640   2.676   2.726   2.764   2.835   2.838   2.868   3.001
  3.098   3.187   3.356   3.410   3.453   3.592   3.712   3.847
  4.206   4.402   4.463   4.898
 
 Beta MOs
 -- Occupied --
-24.709 -24.657 -10.289 -10.201 -10.195  -1.221  -1.160  -0.804
 -0.718  -0.588  -0.513  -0.502  -0.492  -0.473  -0.423  -0.414
 -0.399  -0.371  -0.370  -0.369  -0.268
 -- Virtual --
  0.007   0.080   0.107   0.121   0.146   0.170   0.180   0.203
  0.256   0.346   0.492   0.534   0.551   0.581   0.611   0.615
  0.648   0.680   0.752   0.803   0.821   0.857   0.863   0.898
  0.922   1.012   1.081   1.153   1.163   1.206   1.219   1.263
  1.289   1.315   1.391   1.397   1.483   1.573   1.585   1.627
  1.662   1.742   1.782   1.814   1.838   1.849   1.882   1.884
  1.930   2.004   2.023   2.056   2.071   2.088   2.112   2.127
  2.228   2.314   2.336   2.416   2.450   2.528   2.553   2.617
  2.640   2.676   2.726   2.764   2.835   2.838   2.868   3.001
  3.098   3.187   3.356   3.410   3.453   3.592   3.712   3.847
  4.206   4.402   4.463   4.898
 --------------------------------------------------------------
 
          Ground-State Mulliken Net Atomic Charges

     Atom                 Charge (a.u.)    Spin (a.u.)
  --------------------------------------------------------
      1 F                    -0.283169      -0.000000
      2 F                    -0.366485       0.000000
      3 C                     0.373832       0.000000
      4 C                    -0.345083      -0.000000
      5 C                    -0.386631      -0.000000
      6 H                     0.346213      -0.000000
      7 H                     0.118640       0.000000
      8 H                     0.123411      -0.000000
      9 H                     0.135470       0.000000
     10 H                     0.124480       0.000000
     11 H                     0.159322      -0.000000
  --------------------------------------------------------
  Sum of atomic charges =    -0.000000
  Sum of spin   charges =     0.000000

 -----------------------------------------------------------------
                    Cartesian Multipole Moments
 -----------------------------------------------------------------
    Charge (ESU x 10^10)
                -0.0000
    Dipole Moment (Debye)
         X      -0.1739      Y       1.6018      Z       1.3687
       Tot       2.1141
    Quadrupole Moments (Debye-Ang)
        XX     -26.5230     XY      -0.7732     YY     -29.0903
        XZ       2.0875     YZ      -0.2048     ZZ     -35.1757
    Octopole Moments (Debye-Ang^2)
       XXX      32.3680    XXY      -3.6915    XYY      13.0004
       YYY     -10.8516    XXZ      -0.8013    XYZ      -0.7670
       YYZ      -2.8632    XZZ      10.5054    YZZ      -4.4431
       ZZZ       6.4991
    Hexadecapole Moments (Debye-Ang^3)
      XXXX    -208.4397   XXXY       6.8793   XXYY     -57.8665
      XYYY       8.5733   YYYY    -117.1872   XXXZ      10.8024
      XXYZ      -1.2801   XYYZ       5.9746   YYYZ      -4.4134
      XXZZ     -79.8056   XYZZ       3.7904   YYZZ     -68.4527
      XZZZ      24.3491   YZZZ      -9.7854   ZZZZ    -300.3591
 -----------------------------------------------------------------
 Calculating analytic gradient of the SCF energy
 Gradient of SCF Energy
            1           2           3           4           5           6
    1  -0.0000485   0.0000146  -0.0000860  -0.0000430   0.0001325   0.0001414
    2   0.0000449  -0.0004705  -0.0000680   0.0007148  -0.0000087  -0.0002351
    3   0.0000671  -0.0020024   0.0000740   0.0020726  -0.0000635  -0.0001410
            7           8           9          10          11
    1  -0.0000240   0.0000476  -0.0000234  -0.0000462  -0.0000651
    2   0.0000124  -0.0000131   0.0000096   0.0000140  -0.0000003
    3   0.0000303  -0.0000640  -0.0000222   0.0000332   0.0000159
 Max gradient component =       2.073E-03
 RMS gradient           =       5.280E-04
 Gradient time:  CPU 8.20 s  wall 0.70 s
 Geometry Optimization Parameters
   NAtoms,    NIC,     NZ,  NCons,   NDum,   NFix, NCnnct, MaxDiis
       11     110       0       1       0       0       0       0

 Cartesian Hessian Update
 Hessian Updated using BFGS Update


** CONSTRAINED OPTIMIZATION IN DELOCALIZED INTERNAL COORDINATES **
   Searching for a Minimum

   Optimization Cycle:  23

                       Coordinates (Angstroms)
     ATOM                X               Y               Z
      1  F        -0.8077582816   -1.1529971572    0.9566599366
      2  F         0.5712658094   -0.2092701853   -2.1867142125
      3  C        -0.5757169039    0.1424595202    0.6401847254
      4  C         0.5391351142    0.7287608453    1.0811693013
      5  C        -1.6614181433    0.7151768467   -0.2083593005
      6  H         0.8185004196   -0.0264925971   -1.3064817365
      7  H         0.7304697319    1.7715739795    0.8609547534
      8  H         1.2482946575    0.1853672679    1.6941424205
      9  H        -2.6346121155    0.5519407736    0.2649433951
     10  H        -1.5131620242    1.7856274699   -0.3620138644
     11  H        -1.6613002641    0.2182602365   -1.1827844182
   Point Group: c1    Number of degrees of freedom:    27


   Energy is   -317.589350711

              Constraints and their Current Values
                                        Value     Constraint
   Distance(Angs):        2   4             3.400000     3.400000
 Hessian Updated using BFGS Update

 26 Hessian modes will be used to form the next step
  Hessian Eigenvalues:
     0.000303    0.003039    0.008380    0.014020    0.045189    0.055154
     0.056639    0.062908    0.069759    0.075220    0.080618    0.102932
     0.106598    0.108398    0.115157    0.117482    0.129328    0.279375
     0.299737    0.327070    0.343858    0.346508    0.356039    0.356657
     0.500159    0.546988

 Minimum Search - Taking Simple RFO Step
 Searching for Lamda that Minimizes Along All modes
 Value Taken    Lamda =  -0.00000158
 Step Taken.  Stepsize is  0.029518

                             Maximum     Tolerance    Cnvgd?
         Gradient           0.000092      0.000300     YES
         Displacement       0.025369      0.001200      NO
         Energy change     -0.000001      0.000001     YES


                       Distance Matrix (Angstroms)
             F (  1)   F (  2)   C (  3)   C (  4)   C (  5)   H (  6)
   F (  2)  3.559934
   C (  3)  1.353591  3.070935
   C (  4)  2.317464  3.400000  1.334583
   C (  5)  2.361372  3.123038  1.492240  2.550589
   H (  6)  3.005918  0.932385  2.400395  2.519788  2.811751
   H (  7)  3.305816  3.638320  2.099733  1.082849  2.824984  2.817547
   H (  8)  2.561729  3.959186  2.107056  1.083476  3.516623  3.038643
   H (  9)  2.592813  4.107033  2.132494  3.281792  1.094426  3.837701
   H ( 10)  3.297273  3.413794  2.140842  2.722438  1.091538  3.100395
   H ( 11)  2.680691  2.484956  2.123076  3.198127  1.093815  2.494918
             H (  7)   H (  8)   H (  9)   H ( 10)
   H (  8)  1.865046
   H (  9)  3.628569  4.153788
   H ( 10)  2.555334  3.796611  1.781210
   H ( 11)  3.508592  4.091886  1.776118  1.775457
 
 Final energy is   -317.589350711007     


 ******************************
 **  OPTIMIZATION CONVERGED  **
 ******************************

                       Coordinates (Angstroms)
     ATOM                X               Y               Z
      1  F        -0.8077582816   -1.1529971572    0.9566599366
      2  F         0.5712658094   -0.2092701853   -2.1867142125
      3  C        -0.5757169039    0.1424595202    0.6401847254
      4  C         0.5391351142    0.7287608453    1.0811693013
      5  C        -1.6614181433    0.7151768467   -0.2083593005
      6  H         0.8185004196   -0.0264925971   -1.3064817365
      7  H         0.7304697319    1.7715739795    0.8609547534
      8  H         1.2482946575    0.1853672679    1.6941424205
      9  H        -2.6346121155    0.5519407736    0.2649433951
     10  H        -1.5131620242    1.7856274699   -0.3620138644
     11  H        -1.6613002641    0.2182602365   -1.1827844182

Z-matrix Print:
$molecule
0 1
F 
C  1 1.353591
C  2 1.334583 1 119.103789
H  3 1.082849 2 120.230322 1 -178.380110 0
H  3 1.083476 2 120.888575 1 -0.697017 0
C  2 1.492240 1 112.057681 3 179.272863 0
H  6 1.091538 2 110.953435 1 173.804538 0
H  6 1.093815 2 109.398412 1 -66.311979 0
H  6 1.094426 2 110.109162 1 52.864160 0
H  2 2.400395 1 102.815783 3 84.718957 0
F  10 0.932385 2 128.711483 1 78.548057 0
$end

PES scan, value:    3.4000 energy: -317.5893507110
------- Summary of potential scan: ------ 
    3.4000      -317.5893507110
----------------------------------------- 
Archival summary:
1\1\hpc0244\JobtypUnspecified\ProcedureUnspecified\6-31G**\236\knomura\WedMar1318:40:252019WedMar1318:40:252019\0\\#,JobtypUnspecified,ProcedureUnspecified,6-31G**,\\0,1\F\C,1,1.35359\C,2,1.33458,1,119.104\H,3,1.08285,2,120.23,1,-178.38,0\H,3,1.08348,2,120.889,1,-0.697017,0\C,2,1.49224,1,112.058,3,179.273,0\H,6,1.09154,2,110.953,1,173.805,0\H,6,1.09381,2,109.398,1,-66.312,0\H,6,1.09443,2,110.109,1,52.8642,0\H,2,2.4004,1,102.816,3,84.719,0\F,10,0.932385,2,128.711,1,78.5481,0\\\@

 Total job time:  70.69s(wall), 821.59s(cpu) 
 Wed Mar 13 18:40:25 2019

        *************************************************************
        *                                                           *
        *  Thank you very much for using Q-Chem.  Have a nice day.  *
        *                                                           *
        *************************************************************


