
Running Job 1 of 1 halogens/Flourine/03/F_2_4.xyz.data/inputs/bond_singlet_1.5.in
qchem halogens/Flourine/03/F_2_4.xyz.data/inputs/bond_singlet_1.5.in_3829.0 /staging/scratch/2868761/qchem3829/ 1
/usr/usc/qchem/5.1.1/exe/qcprog.exe_s halogens/Flourine/03/F_2_4.xyz.data/inputs/bond_singlet_1.5.in_3829.0 /staging/scratch/2868761/qchem3829/
Check license passed

                  Welcome to Q-Chem
     A Quantum Leap Into The Future Of Chemistry


 Q-Chem 5.1, Q-Chem, Inc., Pleasanton, CA (2018)

 Yihan Shao,  Zhengting Gan,  E. Epifanovsky,  A. T. B. Gilbert,  M. Wormit,  
 J. Kussmann,  A. W. Lange,  A. Behn,  Jia Deng,  Xintian Feng,  D. Ghosh,  
 M. Goldey,  P. R. Horn,  L. D. Jacobson,  I. Kaliman,  T. Kus,  A. Landau,  
 Jie Liu,  E. I. Proynov,  R. M. Richard,  R. P. Steele,  E. J. Sundstrom,  
 H. L. Woodcock III,  P. M. Zimmerman,  D. Zuev,  B. Albrecht,  E. Alguire,  
 S. A. Baeppler,  D. Barton,  Z. Benda,  Y. A. Bernard,  E. J. Berquist,  
 K. B. Bravaya,  H. Burton,  D. Casanova,  Chun-Min Chang,  Yunqing Chen,  
 A. Chien,  K. D. Closser,  M. P. Coons,  S. Coriani,  S. Dasgupta,  
 A. L. Dempwolff,  M. Diedenhofen,  Hainam Do,  R. G. Edgar,  Po-Tung Fang,  
 S. Faraji,  S. Fatehi,  Qingguo Feng,  K. D. Fenk,  J. Fosso-Tande,  
 Qinghui Ge,  A. Ghysels,  G. Gidofalvi,  J. Gomes,  J. Gonthier,  A. Gunina,  
 D. Hait,  M. W. D. Hanson-Heine,  P. H. P. Harbach,  A. W. Hauser,  
 J. E. Herr,  E. G. Hohenstein,  Z. C. Holden,  Kerwin Hui,  B. C. Huynh,  
 T.-C. Jagau,  Hyunjun Ji,  B. Kaduk,  K. Khistyaev,  Jaehoon Kim,  
 P. Klunzinger,  K. Koh,  D. Kosenkov,  L. Koulias,  T. Kowalczyk,  
 C. M. Krauter,  A. Kunitsa,  Ka Un Lao,  A. Laurent,  K. V. Lawler,  
 Joonho Lee,  D. Lefrancois,  S. Lehtola,  D. S. Levine,  Yi-Pei Li,  
 You-Sheng Lin,  Fenglai Liu,  E. Livshits,  A. Luenser,  P. Manohar,  
 E. Mansoor,  S. F. Manzer,  Shan-Ping Mao,  Yuezhi Mao,  N. Mardirossian,  
 A. V. Marenich,  T. Markovich,  L. A. Martinez-Martinez,  S. A. Maurer,  
 N. J. Mayhall,  S. C. McKenzie,  J.-M. Mewes,  A. F. Morrison,  
 J. W. Mullinax,  K. Nanda,  T. S. Nguyen-Beck,  R. Olivares-Amaya,  
 J. A. Parkhill,  T. M. Perrine,  F. Plasser,  P. Pokhilko,  S. Prager,  
 A. Prociuk,  E. Ramos,  D. R. Rehn,  F. Rob,  M. Schneider,  N. Sergueev,  
 S. M. Sharada,  S. Sharma,  D. W. Small,  T. Stauch,  T. Stein,  
 Yu-Chuan Su,  A. J. W. Thom,  A. Tkatchenko,  T. Tsuchimochi,  N. M. Tubman,  
 L. Vogt,  M. L. Vidal,  O. Vydrov,  M. A. Watson,  J. Wenzel,  
 M. de Wergifosse,  T. A. Wesolowski,  A. White,  J. Witte,  A. Yamada,  
 Jun Yang,  K. Yao,  S. Yeganeh,  S. R. Yost,  Zhi-Qiang You,  A. Zech,  
 Igor Ying Zhang,  Xing Zhang,  Yan Zhao,  Ying Zhu,  B. R. Brooks,  
 G. K. L. Chan,  C. J. Cramer,  M. S. Gordon,  W. J. Hehre,  A. Klamt,  
 M. W. Schmidt,  C. D. Sherrill,  D. G. Truhlar,  A. Aspuru-Guzik,  R. Baer,  
 A. T. Bell,  N. A. Besley,  Jeng-Da Chai,  A. E. DePrince, III,  
 R. A. DiStasio Jr.,  A. Dreuw,  B. D. Dunietz,  T. R. Furlani,  
 Chao-Ping Hsu,  Yousung Jung,  Jing Kong,  D. S. Lambrecht,  WanZhen Liang,  
 C. Ochsenfeld,  V. A. Rassolov,  L. V. Slipchenko,  J. E. Subotnik,  
 T. Van Voorhis,  J. M. Herbert,  A. I. Krylov,  P. M. W. Gill,  M. Head-Gordon

 Contributors to earlier versions of Q-Chem not listed above: 
 R. D. Adamson,  B. Austin,  J. Baker,  G. J. O. Beran,  K. Brandhorst,  
 S. T. Brown,  E. F. C. Byrd,  A. K. Chakraborty,  C.-L. Cheng,  
 Siu Hung Chien,  D. M. Chipman,  D. L. Crittenden,  H. Dachsel,  
 R. J. Doerksen,  A. D. Dutoi,  L. Fusti-Molnar,  W. A. Goddard III,  
 A. Golubeva-Zadorozhnaya,  S. R. Gwaltney,  G. Hawkins,  A. Heyden,  
 S. Hirata,  G. Kedziora,  F. J. Keil,  C. Kelley,  Jihan Kim,  R. A. King,  
 R. Z. Khaliullin,  P. P. Korambath,  W. Kurlancheek,  A. M. Lee,  M. S. Lee,  
 S. V. Levchenko,  Ching Yeh Lin,  D. Liotard,  R. C. Lochan,  I. Lotan,  
 P. E. Maslen,  N. Nair,  D. P. O'Neill,  D. Neuhauser,  E. Neuscamman,  
 C. M. Oana,  R. Olson,  B. Peters,  R. Peverati,  P. A. Pieniazek,  
 Y. M. Rhee,  J. Ritchie,  M. A. Rohrdanz,  E. Rosta,  N. J. Russ,  
 H. F. Schaefer III,  N. E. Schultz,  N. Shenvi,  A. C. Simmonett,  A. Sodt,  
 D. Stuck,  K. S. Thanthiriwatte,  V. Vanovschi,  Tao Wang,  A. Warshel,  
 C. F. Williams,  Q. Wu,  X. Xu,  W. Zhang

 Please cite Q-Chem as follows:
 Y. Shao et al., Mol. Phys. 113, 184-215 (2015)
 DOI: 10.1080/00268976.2014.952696

 Q-Chem 5.1.1 for Intel X86 EM64T Linux

 Parts of Q-Chem use Armadillo 8.300.2 (Tropical Shenanigans).
 http://arma.sourceforge.net/

 Q-Chem begins on Wed Mar 13 18:23:18 2019  

Host: 
0

     Scratch files written to /staging/scratch/2868761/qchem3829//
 Aug318 |scratch|qcdevops|jenkins|workspace|build_RNUM 6013   
Processing $rem in /usr/usc/qchem/5.1.1/config/preferences.
 MEM_TOTAL  2000 
Input Ideriv = 2
Curr. Ideriv = -1
Max.  Ideriv = 2

Checking the input file for inconsistencies... 	...done.

--------------------------------------------------------------
User input:
--------------------------------------------------------------

$comment
potential surface scanner
$end

$rem
JOBTYPE  PES_SCAN
UNRESTRICTED TRUE
SYM_IGNORE  TRUE
GEOM_OPT_MAX_CYCLES 400
SCF_MAX_CYCLES 400
METHOD   B3LYP
BASIS   6-31G**
PDB_PRINT 2
SCF_CONVERGENCE 6
THRESH 14
SCF_PRINT 1
$end
$molecule
0 1
F -0.499461 -1.336763 0.165113
F 1.941827 0.033007 -0.180382
C -0.439568 -0.028431 -0.322434
C 0.772283 0.645481 0.285496
C -1.741741 0.677811 0.018680
H -0.300498 -0.091876 -1.409435
H 0.800626 1.705783 0.006981
H 0.742906 0.555898 1.377614
H -1.861220 0.770991 1.102761
H -1.776645 1.677899 -0.424398
H -2.584808 0.100599 -0.368295
$end
$scan
stre 2 4 1.500000 1.501000 0.100000
$end
--------------------------------------------------------------
 ----------------------------------------------------------------
             Standard Nuclear Orientation (Angstroms)
    I     Atom           X                Y                Z
 ----------------------------------------------------------------
    1      F      -0.4994610000    -1.3367630000     0.1651130000
    2      F       1.9418270000     0.0330070000    -0.1803820000
    3      C      -0.4395680000    -0.0284310000    -0.3224340000
    4      C       0.7722830000     0.6454810000     0.2854960000
    5      C      -1.7417410000     0.6778110000     0.0186800000
    6      H      -0.3004980000    -0.0918760000    -1.4094350000
    7      H       0.8006260000     1.7057830000     0.0069810000
    8      H       0.7429060000     0.5558980000     1.3776140000
    9      H      -1.8612200000     0.7709910000     1.1027610000
   10      H      -1.7766450000     1.6778990000    -0.4243980000
   11      H      -2.5848080000     0.1005990000    -0.3682950000
 ----------------------------------------------------------------
 Nuclear Repulsion Energy =   189.4536016696 hartrees
 There are       21 alpha and       21 beta electrons
 Requested basis set is 6-31G(d,p)
 There are 38 shells and 105 basis functions

 Total QAlloc Memory Limit   2000 MB
 Mega-Array Size       188 MB
 MEM_STATIC part       192 MB
A total of 1 constraints
  
            1
    1   1.0100000
    2   2.0100000
    3   4.0100000
    4   1.5000000
    5   1.5010000
    6   0.1000000
    7   0.0000000
    8   0.0000000
    9   0.0000000
   10   0.0000000

                       Distance Matrix (Angstroms)
             F (  1)   F (  2)   C (  3)   C (  4)   C (  5)   H (  6)
   F (  2)  2.820554
   C (  3)  1.397506  2.386419
   C (  4)  2.358202  1.400000  1.514041
   C (  5)  2.371331  3.744873  1.520129  2.528350
   H (  6)  2.017060  2.560115  1.097696  2.137135  2.170049
   H (  7)  3.312449  2.033623  2.157335  1.096638  2.742352  2.539741
   H (  8)  2.568229  2.034251  2.151708  1.096180  2.834614  3.045644
   H (  9)  2.678843  4.080961  2.165953  2.760256  1.094618  3.080831
   H ( 10)  3.326696  4.073358  2.170192  2.840224  1.094400  2.506274
   H ( 11)  2.588282  4.531038  2.149606  3.463293  1.092559  2.517755
             H (  7)   H (  8)   H (  9)   H ( 10)
   H (  8)  1.790028
   H (  9)  3.026548  2.627410
   H ( 10)  2.613272  3.294582  1.778159
   H ( 11)  3.765450  3.785390  1.771161  1.773175
 
 A cutoff of  1.0D-14 yielded    718 shell pairs
 There are      5617 function pairs
 
 -------------------------------------------------------
 OpenMP Integral Computing Module                       
 Release: version 1.0, May 2013, Q-Chem Inc. Pittsburgh 
 -------------------------------------------------------
 Integral Job Info:
 Integral job number is                      11
 Integral operator is                         1
 short-range coefficients                     0
 long-range coefficients              100000000
 Omega coefficients                           0
 if combine SR and LR in K                    0
 Integral screening is                        0
 Integral computing path is                   2
 max size of driver memory is            800000
 size of driver memory is                593474
 size of scratch memory is              2361544
 max col of scratch BK array               1296
 max len of scratch array in speh3          155
 max len of scratch index in speh4           18
 max int batch size is                      520
 min int batch size is                       52
 fixed nKL is                                52
 max L of basis functions is                  2
 order of int derivative is                   0
 number of shells is                         38
 number of basis is                         105
 number of cartesian basis is               105
 number of contracted shell pairs           718
 number of primitive shell pairs           2660
 maxK2 (contraction) of shell pair           36
 max number of K2 of shell pair               1
 max number of CS2 of shell pair             62
 max number of PS2 of shell pair            246
 mem total for path MDJ                  519084
 -------------------------------------------------------
 Smallest overlap matrix eigenvalue = 3.52E-03

 Scale SEOQF with 1.000000e-01/1.000000e-01/1.000000e+00

 Standard Electronic Orientation quadrupole field applied
 Nucleus-field energy     =    -0.0000000029 hartrees
 Guess from superposition of atomic densities
 Warning:  Energy on first SCF cycle will be non-variational
 SAD guess density has 42.000000 electrons

 -----------------------------------------------------------------------
  General SCF calculation program by
  Eric Jon Sundstrom, Paul Horn, Yuezhi Mao, Dmitri Zuev, Alec White,
  David Stuck, Shaama M.S., Shane Yost, Joonho Lee, David Small,
  Daniel Levine, Susi Lehtola, Hugh Burton, Evgeny Epifanovsky
 -----------------------------------------------------------------------
 Exchange:     0.2000 Hartree-Fock + 0.0800 Slater + 0.7200 B88
 Correlation:  0.1900 VWN1RPA + 0.8100 LYP
 Using SG-1 standard quadrature grid
 using 12 threads for integral computing
 -------------------------------------------------------
 OpenMP Integral computing Module                
 Release: version 1.0, May 2013, Q-Chem Inc. Pittsburgh 
 -------------------------------------------------------
 -------------------------------------------------------
 OpenMP BLAS3 based DFT computing Module                
 Release: version 1.0, May 2013, Q-Chem Inc. Pittsburgh 
 -------------------------------------------------------
 A unrestricted SCF calculation will be
 performed using DIIS
 SCF converges when DIIS error is below 1.0e-06
 Alpha HF Exchange    Energy =  -3.78169418704171
 Beta HF Exchange     Energy =  -3.78169418704171
 DFT Correlation      Energy =  -1.85595329660782
 DFT Exchange         Energy = -29.65439195543737
 One-Electron (alpha) Energy = -404.82181648673327
 One-Electron (beta)  Energy = -404.82181648673327
 Total Coulomb        Energy = 341.12072439066111
 ---------------------------------------
  Cycle       Energy         DIIS error
 ---------------------------------------
    1    -318.1430405422      3.13e-02  
 Alpha HF Exchange    Energy =  -3.81786200339503
 Beta HF Exchange     Energy =  -3.81786200339503
 DFT Correlation      Energy =  -1.88050869674764
 DFT Exchange         Energy = -30.33891070765910
 One-Electron (alpha) Energy = -408.00506456970754
 One-Electron (beta)  Energy = -408.00506456970766
 Total Coulomb        Energy = 348.86720561841628
    2    -317.5444652655      3.70e-03  
 Alpha HF Exchange    Energy =  -3.74431184803019
 Beta HF Exchange     Energy =  -3.74431184803020
 DFT Correlation      Energy =  -1.85881511177633
 DFT Exchange         Energy = -29.75629451381072
 One-Electron (alpha) Energy = -404.90177035142756
 One-Electron (beta)  Energy = -404.90177035142801
 Total Coulomb        Energy = 341.91828261455828
    3    -317.5353897432      4.17e-03  
 Alpha HF Exchange    Energy =  -3.78358149214053
 Beta HF Exchange     Energy =  -3.78358149214053
 DFT Correlation      Energy =  -1.86947678472983
 DFT Exchange         Energy = -30.06221102864849
 One-Electron (alpha) Energy = -406.48246794403036
 One-Electron (beta)  Energy = -406.48246794403065
 Total Coulomb        Energy = 345.40232098317546
    4    -317.6078640358      5.42e-04  
 Alpha HF Exchange    Energy =  -3.78181712747299
 Beta HF Exchange     Energy =  -3.78181712747299
 DFT Correlation      Energy =  -1.86994187444776
 DFT Exchange         Energy = -30.05188394854373
 One-Electron (alpha) Energy = -406.53244801583213
 One-Electron (beta)  Energy = -406.53244801583196
 Total Coulomb        Energy = 345.48787332759338
    5    -317.6088811153      2.19e-04  
 Alpha HF Exchange    Energy =  -3.78219275440949
 Beta HF Exchange     Energy =  -3.78219275440950
 DFT Correlation      Energy =  -1.86971416019779
 DFT Exchange         Energy = -30.05362802140205
 One-Electron (alpha) Energy = -406.50450561537002
 One-Electron (beta)  Energy = -406.50450561537036
 Total Coulomb        Energy = 345.43403984207788
    6    -317.6090974124      2.72e-05  
 Alpha HF Exchange    Energy =  -3.78207641818210
 Beta HF Exchange     Energy =  -3.78207641818210
 DFT Correlation      Energy =  -1.86969271800234
 DFT Exchange         Energy = -30.05269140293403
 One-Electron (alpha) Energy = -406.49898981774965
 One-Electron (beta)  Energy = -406.49898981774965
 Total Coulomb        Energy = 345.42181458116750
    7    -317.6091003449      1.18e-05  
 Alpha HF Exchange    Energy =  -3.78212862163062
 Beta HF Exchange     Energy =  -3.78212862163062
 DFT Correlation      Energy =  -1.86971073715076
 DFT Exchange         Energy = -30.05312485958997
 One-Electron (alpha) Energy = -406.50274111752623
 One-Electron (beta)  Energy = -406.50274111752640
 Total Coulomb        Energy = 345.42987236598628
    8    -317.6091010424      8.84e-07  Convergence criterion met
 ---------------------------------------
 SCF time:   CPU 19.27s  wall 2.00s 
<S^2> =          0.000000000
 Alpha HF Exchange    Energy =  -3.78212862163062
 Beta HF Exchange     Energy =  -3.78212862163062
 DFT Correlation      Energy =  -1.86971073715076
 DFT Exchange         Energy = -30.05312485958997
 One-Electron (alpha) Energy = -406.50274111752623
 One-Electron (beta)  Energy = -406.50274111752640
 Total Coulomb        Energy = 345.42987236598628
 Nuclear repulsion Energy = 189.45360166670247
 SCF   energy in the final basis set =     -317.6091010424
 Total energy in the final basis set =     -317.6091010424
 
 --------------------------------------------------------------
 
                    Orbital Energies (a.u.)
 --------------------------------------------------------------
 
 Alpha MOs
 -- Occupied --
-24.672 -24.671 -10.270 -10.265 -10.195  -1.183  -1.170  -0.796
 -0.701  -0.610  -0.520  -0.496  -0.488  -0.456  -0.439  -0.408
 -0.400  -0.375  -0.339  -0.333  -0.316
 -- Virtual --
  0.085   0.093   0.112   0.146   0.161   0.171   0.174   0.188
  0.232   0.252   0.502   0.525   0.530   0.557   0.585   0.614
  0.645   0.660   0.705   0.793   0.844   0.860   0.866   0.888
  0.908   0.941   1.079   1.148   1.191   1.199   1.292   1.370
  1.382   1.388   1.408   1.423   1.524   1.622   1.635   1.736
  1.742   1.809   1.816   1.837   1.888   1.925   1.964   1.992
  2.004   2.025   2.038   2.058   2.078   2.093   2.099   2.195
  2.217   2.288   2.312   2.373   2.433   2.479   2.615   2.674
  2.681   2.714   2.771   2.823   2.881   2.886   2.902   3.044
  3.106   3.180   3.238   3.304   3.436   3.463   3.486   4.156
  4.262   4.487   4.577   4.643
 
 Beta MOs
 -- Occupied --
-24.672 -24.671 -10.270 -10.265 -10.195  -1.183  -1.170  -0.796
 -0.701  -0.610  -0.520  -0.496  -0.488  -0.456  -0.439  -0.408
 -0.400  -0.375  -0.339  -0.333  -0.316
 -- Virtual --
  0.085   0.093   0.112   0.146   0.161   0.171   0.174   0.188
  0.232   0.252   0.502   0.525   0.530   0.557   0.585   0.614
  0.645   0.660   0.705   0.793   0.844   0.860   0.866   0.888
  0.908   0.941   1.079   1.148   1.191   1.199   1.292   1.370
  1.382   1.388   1.408   1.423   1.524   1.622   1.635   1.736
  1.742   1.809   1.816   1.837   1.888   1.925   1.964   1.992
  2.004   2.025   2.038   2.058   2.078   2.093   2.099   2.195
  2.217   2.288   2.312   2.373   2.433   2.479   2.615   2.674
  2.681   2.714   2.771   2.823   2.881   2.886   2.902   3.044
  3.106   3.180   3.238   3.304   3.436   3.463   3.486   4.156
  4.262   4.487   4.577   4.643
 --------------------------------------------------------------
 
          Ground-State Mulliken Net Atomic Charges

     Atom                 Charge (a.u.)    Spin (a.u.)
  --------------------------------------------------------
      1 F                    -0.323434       0.000000
      2 F                    -0.320398      -0.000000
      3 C                     0.214287       0.000000
      4 C                     0.127617      -0.000000
      5 C                    -0.354422      -0.000000
      6 H                     0.099331      -0.000000
      7 H                     0.090543      -0.000000
      8 H                     0.104374      -0.000000
      9 H                     0.120043       0.000000
     10 H                     0.110611       0.000000
     11 H                     0.131450       0.000000
  --------------------------------------------------------
  Sum of atomic charges =     0.000000
  Sum of spin   charges =    -0.000000

 -----------------------------------------------------------------
                    Cartesian Multipole Moments
 -----------------------------------------------------------------
    Charge (ESU x 10^10)
                 0.0000
    Dipole Moment (Debye)
         X      -1.5787      Y       2.2291      Z      -0.0002
       Tot       2.7316
    Quadrupole Moments (Debye-Ang)
        XX     -31.5272     XY      -0.2543     YY     -29.9449
        XZ       1.0550     YZ       0.4960     ZZ     -27.6905
    Octopole Moments (Debye-Ang^2)
       XXX       2.5954    XXY      -3.6858    XYY       5.6331
       YYY      -7.6657    XXZ       0.3896    XYZ      -0.0595
       YYZ      -0.8233    XZZ       3.9917    YZZ      -3.7492
       ZZZ       0.3806
    Hexadecapole Moments (Debye-Ang^3)
      XXXX    -329.6914   XXXY       7.7795   XXYY     -75.1693
      XYYY       5.5153   YYYY    -130.4013   XXXZ       1.6424
      XXYZ      -0.0092   XYYZ       0.2149   YYYZ      -3.8361
      XXZZ     -61.9818   XYZZ       2.0105   YYZZ     -31.4212
      XZZZ      -1.5777   YZZZ      -1.1966   ZZZZ     -52.5303
 -----------------------------------------------------------------
 Calculating analytic gradient of the SCF energy
 Gradient of SCF Energy
            1           2           3           4           5           6
    1   0.0000239   0.0067194   0.0000313  -0.0067364  -0.0000486  -0.0000260
    2  -0.0000278  -0.0035502  -0.0000226   0.0035798  -0.0000223   0.0000815
    3  -0.0000467  -0.0026363  -0.0000292   0.0027920   0.0000392  -0.0000162
            7           8           9          10          11
    1   0.0000434  -0.0000230   0.0000117  -0.0000107   0.0000149
    2  -0.0000168   0.0000033   0.0000040  -0.0000078  -0.0000210
    3  -0.0001031   0.0000073   0.0000005  -0.0000170   0.0000096
 Max gradient component =       6.736E-03
 RMS gradient           =       1.990E-03
 Gradient time:  CPU 8.41 s  wall 0.76 s
 Geometry Optimization Parameters
   NAtoms,    NIC,     NZ,  NCons,   NDum,   NFix, NCnnct, MaxDiis
       11      68       0       1       0       0       0       0


** CONSTRAINED OPTIMIZATION IN DELOCALIZED INTERNAL COORDINATES **
   Searching for a Minimum

   Optimization Cycle:   1

                       Coordinates (Angstroms)
     ATOM                X               Y               Z
      1  F        -0.4994610000   -1.3367630000    0.1651130000
      2  F         1.9418270000    0.0330070000   -0.1803820000
      3  C        -0.4395680000   -0.0284310000   -0.3224340000
      4  C         0.7722830000    0.6454810000    0.2854960000
      5  C        -1.7417410000    0.6778110000    0.0186800000
      6  H        -0.3004980000   -0.0918760000   -1.4094350000
      7  H         0.8006260000    1.7057830000    0.0069810000
      8  H         0.7429060000    0.5558980000    1.3776140000
      9  H        -1.8612200000    0.7709910000    1.1027610000
     10  H        -1.7766450000    1.6778990000   -0.4243980000
     11  H        -2.5848080000    0.1005990000   -0.3682950000
   Point Group: c1    Number of degrees of freedom:    27


   Energy is   -317.609101042

              Constraints and their Current Values
                                        Value     Constraint
   Distance(Angs):        2   4             1.400000     1.500000

 Attempting to Generate Delocalized Internal Coordinates

   Using Lagrange Multiplier Algorithm


 28 Hessian modes will be used to form the next step
  Hessian Eigenvalues:
    -0.797583    0.045000    0.045000    0.074097    0.082662    0.082894
     0.084204    0.084421    0.086147    0.112877    0.160000    0.160000
     0.160000    0.160000    0.160000    0.179366    0.224269    0.232063
     0.303542    0.309479    0.339382    0.340567    0.341082    0.342843
     0.343090    0.345186    0.460364    1.253788

 Minimum Search - Taking P-RFO Step
 Searching for Lamda that Maximizes Along the Constraint modes Only
 Value Taken    Lamda =   0.02825502
 Searching for Lamda that Minimizes Along All other modes
 Value Taken    Lamda =  -0.00984612
 Step Taken.  Stepsize is  0.184363

                             Maximum     Tolerance    Cnvgd?
         Gradient            0.188973       0.000300      NO
         Displacement        0.184345       0.001200      NO
         Energy change     *********       0.000001      NO


 New Cartesian Coordinates Obtained by Inverse Iteration

 Displacement from previous Coordinates is:  0.172643
 ----------------------------------------------------------------
             Standard Nuclear Orientation (Angstroms)
    I     Atom           X                Y                Z
 ----------------------------------------------------------------
    1      F      -0.5030009364    -1.3330978388     0.1682561424
    2      F       2.0175609420     0.0008186828    -0.2049188690
    3      C      -0.4451225549    -0.0247217806    -0.3193822107
    4      C       0.7636708698     0.6522294293     0.2911485864
    5      C      -1.7496713234     0.6785536921     0.0186120957
    6      H      -0.3033423071    -0.0880560448    -1.4060297439
    7      H       0.7896014523     1.7127666966     0.0133471801
    8      H       0.7323250787     0.5623277047     1.3831792892
    9      H      -1.8719847088     0.7715159205     1.1023925584
   10      H      -1.7857518346     1.6785520581    -0.4245617429
   11      H      -2.5905836775     0.0995104801    -0.3703422858
 ----------------------------------------------------------------
 Nuclear Repulsion Energy =   186.9749759300 hartrees
 There are       21 alpha and       21 beta electrons

                       Distance Matrix (Angstroms)
             F (  1)   F (  2)   C (  3)   C (  4)   C (  5)   H (  6)
   F (  2)  2.876078
   C (  3)  1.397494  2.465474
   C (  4)  2.358195  1.497551  1.513999
   C (  5)  2.371355  3.834231  1.520093  2.528212
   H (  6)  2.017020  2.614796  1.097687  2.137043  2.170060
   H (  7)  3.312417  2.118087  2.157341  1.096625  2.741812  2.540102
   H (  8)  2.568016  2.118768  2.151680  1.096173  2.834759  3.045537
   H (  9)  2.678829  4.175117  2.165958  2.760258  1.094615  3.080858
   H ( 10)  3.326698  4.162718  2.170136  2.839918  1.094396  2.506336
   H ( 11)  2.588524  4.612169  2.149659  3.463249  1.092570  2.517797
             H (  7)   H (  8)   H (  9)   H ( 10)
   H (  8)  1.789757
   H (  9)  3.025891  2.627742
   H ( 10)  2.612543  3.294631  1.778128
   H ( 11)  3.765032  3.785599  1.771136  1.773152
 
 Applying Cartesian multipole field
    Component          Value
    ---------          -----
     (2,0,0)        1.00000E-11
     (0,2,0)        2.00000E-11
     (0,0,2)       -3.00000E-10
 Nucleus-field energy     =    -0.0000000030 hartrees
 Requested basis set is 6-31G(d,p)
 There are 38 shells and 105 basis functions
 A cutoff of  1.0D-14 yielded    716 shell pairs
 There are      5609 function pairs
 Smallest overlap matrix eigenvalue = 3.62E-03
 Guess from superposition of atomic densities
 Warning:  Energy on first SCF cycle will be non-variational
 SAD guess density has 42.000000 electrons

 -----------------------------------------------------------------------
  General SCF calculation program by
  Eric Jon Sundstrom, Paul Horn, Yuezhi Mao, Dmitri Zuev, Alec White,
  David Stuck, Shaama M.S., Shane Yost, Joonho Lee, David Small,
  Daniel Levine, Susi Lehtola, Hugh Burton, Evgeny Epifanovsky
 -----------------------------------------------------------------------
 Exchange:     0.2000 Hartree-Fock + 0.0800 Slater + 0.7200 B88
 Correlation:  0.1900 VWN1RPA + 0.8100 LYP
 Using SG-1 standard quadrature grid
 using 12 threads for integral computing
 -------------------------------------------------------
 OpenMP Integral computing Module                
 Release: version 1.0, May 2013, Q-Chem Inc. Pittsburgh 
 -------------------------------------------------------
 -------------------------------------------------------
 OpenMP BLAS3 based DFT computing Module                
 Release: version 1.0, May 2013, Q-Chem Inc. Pittsburgh 
 -------------------------------------------------------
 A unrestricted SCF calculation will be
 performed using DIIS
 SCF converges when DIIS error is below 1.0e-06
 Alpha HF Exchange    Energy =  -3.77103194082945
 Beta HF Exchange     Energy =  -3.77103194082945
 DFT Correlation      Energy =  -1.85309843856747
 DFT Exchange         Energy = -29.63141682763094
 One-Electron (alpha) Energy = -402.38918363952541
 One-Electron (beta)  Energy = -402.38918363952541
 Total Coulomb        Energy = 338.79618119911470
 ---------------------------------------
  Cycle       Energy         DIIS error
 ---------------------------------------
    1    -318.0337893007      3.02e-02  
 Alpha HF Exchange    Energy =  -3.81414555330834
 Beta HF Exchange     Energy =  -3.81414555330834
 DFT Correlation      Energy =  -1.87768567394450
 DFT Exchange         Energy = -30.31423584234877
 One-Electron (alpha) Energy = -405.56705800166407
 One-Electron (beta)  Energy = -405.56705800166407
 Total Coulomb        Energy = 346.44281870837483
    2    -317.5365339908      3.77e-03  
 Alpha HF Exchange    Energy =  -3.73717434456263
 Beta HF Exchange     Energy =  -3.73717434456263
 DFT Correlation      Energy =  -1.85594382518687
 DFT Exchange         Energy = -29.70970751468243
 One-Electron (alpha) Energy = -402.47357506346924
 One-Electron (beta)  Energy = -402.47357506346935
 Total Coulomb        Energy = 339.49270736819773
    3    -317.5194668607      4.50e-03  
 Alpha HF Exchange    Energy =  -3.77905334622648
 Beta HF Exchange     Energy =  -3.77905334622648
 DFT Correlation      Energy =  -1.86648700228473
 DFT Exchange         Energy = -30.03227804042922
 One-Electron (alpha) Energy = -404.03500189037533
 One-Electron (beta)  Energy = -404.03500189037538
 Total Coulomb        Energy = 342.95128429392656
    4    -317.6006152949      6.95e-04  
 Alpha HF Exchange    Energy =  -3.77726007914845
 Beta HF Exchange     Energy =  -3.77726007914845
 DFT Correlation      Energy =  -1.86717025736841
 DFT Exchange         Energy = -30.02273626096045
 One-Electron (alpha) Energy = -404.11199818822462
 One-Electron (beta)  Energy = -404.11199818822439
 Total Coulomb        Energy = 343.09095686969965
    5    -317.6024902563      2.29e-04  
 Alpha HF Exchange    Energy =  -3.77760899990851
 Beta HF Exchange     Energy =  -3.77760899990852
 DFT Correlation      Energy =  -1.86695368783382
 DFT Exchange         Energy = -30.02428503310809
 One-Electron (alpha) Energy = -404.08611854940455
 One-Electron (beta)  Energy = -404.08611854940472
 Total Coulomb        Energy = 343.04098909688065
    6    -317.6027287956      3.38e-05  
 Alpha HF Exchange    Energy =  -3.77751066770135
 Beta HF Exchange     Energy =  -3.77751066770135
 DFT Correlation      Energy =  -1.86691945420279
 DFT Exchange         Energy = -30.02341405994760
 One-Electron (alpha) Energy = -404.07897529421405
 One-Electron (beta)  Energy = -404.07897529421405
 Total Coulomb        Energy = 343.02559634865128
    7    -317.6027331622      1.56e-05  
 Alpha HF Exchange    Energy =  -3.77754797369841
 Beta HF Exchange     Energy =  -3.77754797369841
 DFT Correlation      Energy =  -1.86693854979420
 DFT Exchange         Energy = -30.02374673986307
 One-Electron (alpha) Energy = -404.08252476309229
 One-Electron (beta)  Energy = -404.08252476309218
 Total Coulomb        Energy = 343.03312068378619
    8    -317.6027341524      2.84e-06  
 Alpha HF Exchange    Energy =  -3.77755491300182
 Beta HF Exchange     Energy =  -3.77755491300183
 DFT Correlation      Energy =  -1.86693973810142
 DFT Exchange         Energy = -30.02380052627823
 One-Electron (alpha) Energy = -404.08283235267209
 One-Electron (beta)  Energy = -404.08283235267220
 Total Coulomb        Energy = 343.03380468947341
    9    -317.6027341792      8.12e-07  Convergence criterion met
 ---------------------------------------
 SCF time:   CPU 21.64s  wall 2.00s 
<S^2> =         -0.000000000
 Alpha HF Exchange    Energy =  -3.77755491300182
 Beta HF Exchange     Energy =  -3.77755491300183
 DFT Correlation      Energy =  -1.86693973810142
 DFT Exchange         Energy = -30.02380052627823
 One-Electron (alpha) Energy = -404.08283235267209
 One-Electron (beta)  Energy = -404.08283235267220
 Total Coulomb        Energy = 343.03380468947341
 Nuclear repulsion Energy = 186.97497592708228
 SCF   energy in the final basis set =     -317.6027341792
 Total energy in the final basis set =     -317.6027341792
 
 --------------------------------------------------------------
 
                    Orbital Energies (a.u.)
 --------------------------------------------------------------
 
 Alpha MOs
 -- Occupied --
-24.672 -24.662 -10.275 -10.271 -10.199  -1.180  -1.138  -0.800
 -0.705  -0.611  -0.519  -0.485  -0.480  -0.445  -0.435  -0.407
 -0.401  -0.368  -0.339  -0.336  -0.321
 -- Virtual --
  0.058   0.088   0.108   0.143   0.147   0.162   0.171   0.184
  0.227   0.247   0.487   0.521   0.527   0.556   0.583   0.619
  0.642   0.656   0.699   0.791   0.842   0.857   0.863   0.885
  0.906   0.937   1.078   1.153   1.187   1.196   1.290   1.362
  1.379   1.389   1.405   1.422   1.527   1.625   1.633   1.714
  1.748   1.799   1.818   1.845   1.888   1.894   1.934   1.962
  1.979   2.015   2.024   2.052   2.062   2.079   2.090   2.172
  2.202   2.281   2.299   2.363   2.409   2.465   2.588   2.644
  2.671   2.702   2.761   2.791   2.851   2.874   2.886   2.990
  3.097   3.179   3.240   3.301   3.432   3.459   3.481   4.090
  4.214   4.480   4.517   4.631
 
 Beta MOs
 -- Occupied --
-24.672 -24.662 -10.275 -10.271 -10.199  -1.180  -1.138  -0.800
 -0.705  -0.611  -0.519  -0.485  -0.480  -0.445  -0.435  -0.407
 -0.401  -0.368  -0.339  -0.336  -0.321
 -- Virtual --
  0.058   0.088   0.108   0.143   0.147   0.162   0.171   0.184
  0.227   0.247   0.487   0.521   0.527   0.556   0.583   0.619
  0.642   0.656   0.699   0.791   0.842   0.857   0.863   0.885
  0.906   0.937   1.078   1.153   1.187   1.196   1.290   1.362
  1.379   1.389   1.405   1.422   1.527   1.625   1.633   1.714
  1.748   1.799   1.818   1.845   1.888   1.894   1.934   1.962
  1.979   2.015   2.024   2.052   2.062   2.079   2.090   2.172
  2.202   2.281   2.299   2.363   2.409   2.465   2.588   2.644
  2.671   2.702   2.761   2.791   2.851   2.874   2.886   2.990
  3.097   3.179   3.240   3.301   3.432   3.459   3.481   4.090
  4.214   4.480   4.517   4.631
 --------------------------------------------------------------
 
          Ground-State Mulliken Net Atomic Charges

     Atom                 Charge (a.u.)    Spin (a.u.)
  --------------------------------------------------------
      1 F                    -0.321225       0.000000
      2 F                    -0.340978      -0.000000
      3 C                     0.219583       0.000000
      4 C                     0.102251      -0.000000
      5 C                    -0.355793      -0.000000
      6 H                     0.104538      -0.000000
      7 H                     0.104616      -0.000000
      8 H                     0.118550      -0.000000
      9 H                     0.121220       0.000000
     10 H                     0.112218      -0.000000
     11 H                     0.135020       0.000000
  --------------------------------------------------------
  Sum of atomic charges =    -0.000000
  Sum of spin   charges =    -0.000000

 -----------------------------------------------------------------
                    Cartesian Multipole Moments
 -----------------------------------------------------------------
    Charge (ESU x 10^10)
                -0.0000
    Dipole Moment (Debye)
         X      -1.9595      Y       2.3744      Z       0.0962
       Tot       3.0800
    Quadrupole Moments (Debye-Ang)
        XX     -32.2127     XY      -0.1992     YY     -29.7317
        XZ       1.2016     YZ       0.5655     ZZ     -27.5873
    Octopole Moments (Debye-Ang^2)
       XXX      -0.5657    XXY      -3.5337    XYY       5.3575
       YYY      -7.0345    XXZ       0.5828    XYZ      -0.0110
       YYZ      -0.7228    XZZ       3.6330    YZZ      -3.5830
       ZZZ       0.7558
    Hexadecapole Moments (Debye-Ang^3)
      XXXX    -342.9797   XXXY       8.5156   XXYY     -76.8250
      XYYY       6.7562   YYYY    -129.2410   XXXZ       2.9728
      XXYZ       0.0240   XYYZ       0.5943   YYYZ      -3.9151
      XXZZ     -63.7965   XYZZ       2.3814   YYZZ     -31.3440
      XZZZ      -0.4420   YZZZ      -1.1386   ZZZZ     -52.1777
 -----------------------------------------------------------------
 Calculating analytic gradient of the SCF energy
 Gradient of SCF Energy
            1           2           3           4           5           6
    1   0.0006744   0.0471706  -0.0060704  -0.0325737  -0.0005564   0.0003160
    2  -0.0007562  -0.0245695   0.0036840   0.0175345  -0.0012142   0.0000171
    3   0.0000462  -0.0183272   0.0018289   0.0136587  -0.0007816  -0.0001804
            7           8           9          10          11
    1  -0.0043406  -0.0044697   0.0001421   0.0000837  -0.0003761
    2   0.0027728   0.0023141   0.0000055  -0.0000050   0.0002170
    3   0.0014830   0.0021585  -0.0000082  -0.0000101   0.0001322
 Max gradient component =       4.717E-02
 RMS gradient           =       1.211E-02
 Gradient time:  CPU 8.33 s  wall 0.74 s
 Geometry Optimization Parameters
   NAtoms,    NIC,     NZ,  NCons,   NDum,   NFix, NCnnct, MaxDiis
       11      68       0       1       0       0       0       0

 Cartesian Hessian Update
 Hessian Updated using BFGS Update


** CONSTRAINED OPTIMIZATION IN DELOCALIZED INTERNAL COORDINATES **
   Searching for a Minimum

   Optimization Cycle:   2

                       Coordinates (Angstroms)
     ATOM                X               Y               Z
      1  F        -0.5030009364   -1.3330978388    0.1682561424
      2  F         2.0175609420    0.0008186828   -0.2049188690
      3  C        -0.4451225549   -0.0247217806   -0.3193822107
      4  C         0.7636708698    0.6522294293    0.2911485864
      5  C        -1.7496713234    0.6785536921    0.0186120957
      6  H        -0.3033423071   -0.0880560448   -1.4060297439
      7  H         0.7896014523    1.7127666966    0.0133471801
      8  H         0.7323250787    0.5623277047    1.3831792892
      9  H        -1.8719847088    0.7715159205    1.1023925584
     10  H        -1.7857518346    1.6785520581   -0.4245617429
     11  H        -2.5905836775    0.0995104801   -0.3703422858
   Point Group: c1    Number of degrees of freedom:    27


   Energy is   -317.602734179

              Constraints and their Current Values
                                        Value     Constraint
   Distance(Angs):        2   4             1.497551     1.500000
 Hessian Updated using BFGS Update

   Using Lagrange Multiplier Algorithm


 25 Hessian modes will be used to form the next step
  Hessian Eigenvalues:
    -0.879114    0.045000    0.045008    0.074102    0.082679    0.082899
     0.084204    0.084435    0.090612    0.112934    0.160000    0.163438
     0.179442    0.224845    0.232966    0.303542    0.310635    0.339385
     0.340775    0.341891    0.342843    0.343090    0.345188    0.460412
     1.141168

 Minimum Search - Taking P-RFO Step
 Searching for Lamda that Maximizes Along the Constraint modes Only
 Value Taken    Lamda =   0.00040525
 Searching for Lamda that Minimizes Along All other modes
 Value Taken    Lamda =  -0.00149591
 Step Taken.  Stepsize is  0.080914

                             Maximum     Tolerance    Cnvgd?
         Gradient            0.033311       0.000300      NO
         Displacement        0.060998       0.001200      NO
         Energy change      0.006367       0.000001      NO


 New Cartesian Coordinates Obtained by Inverse Iteration

 Displacement from previous Coordinates is:  0.062658
 ----------------------------------------------------------------
             Standard Nuclear Orientation (Angstroms)
    I     Atom           X                Y                Z
 ----------------------------------------------------------------
    1      F      -0.5047849243    -1.3332526601     0.1693393050
    2      F       2.0010235723     0.0029679426    -0.2086519580
    3      C      -0.4451522626    -0.0260957008    -0.3192017147
    4      C       0.7499941253     0.6584911669     0.2964986837
    5      C      -1.7496210823     0.6778933598     0.0175843919
    6      H      -0.3014154249    -0.0890455048    -1.4052958280
    7      H       0.8035690964     1.7137101074     0.0150191021
    8      H       0.7490564637     0.5612653149     1.3853148746
    9      H      -1.8753301285     0.7704356807     1.1010465143
   10      H      -1.7865232261     1.6778258523    -0.4256648473
   11      H      -2.5871152089     0.0962034411    -0.3742875234
 ----------------------------------------------------------------
 Nuclear Repulsion Energy =   187.2747463431 hartrees
 There are       21 alpha and       21 beta electrons

                       Distance Matrix (Angstroms)
             F (  1)   F (  2)   C (  3)   C (  4)   C (  5)   H (  6)
   F (  2)  2.864863
   C (  3)  1.396742  2.448845
   C (  4)  2.357474  1.499988  1.508682
   C (  5)  2.370096  3.817596  1.520087  2.515203
   H (  6)  2.017148  2.596468  1.097371  2.135504  2.170273
   H (  7)  3.319576  2.100134  2.167472  1.093429  2.755305  2.547197
   H (  8)  2.576803  2.102343  2.162523  1.093149  2.850908  3.051869
   H (  9)  2.678055  4.162984  2.167251  2.748119  1.094649  3.081829
   H ( 10)  3.326181  4.147018  2.171165  2.827452  1.094393  2.507400
   H ( 11)  2.583597  4.592074  2.146159  3.449988  1.092393  2.514303
             H (  7)   H (  8)   H (  9)   H ( 10)
   H (  8)  1.791315
   H (  9)  3.040678  2.648012
   H ( 10)  2.627559  3.309912  1.778227
   H ( 11)  3.776854  3.800332  1.771394  1.773448
 
 Applying Cartesian multipole field
    Component          Value
    ---------          -----
     (2,0,0)        1.00000E-11
     (0,2,0)        2.00000E-11
     (0,0,2)       -3.00000E-10
 Nucleus-field energy     =    -0.0000000030 hartrees
 Requested basis set is 6-31G(d,p)
 There are 38 shells and 105 basis functions
 A cutoff of  1.0D-14 yielded    716 shell pairs
 There are      5609 function pairs
 Smallest overlap matrix eigenvalue = 3.58E-03
 Guess from superposition of atomic densities
 Warning:  Energy on first SCF cycle will be non-variational
 SAD guess density has 42.000000 electrons

 -----------------------------------------------------------------------
  General SCF calculation program by
  Eric Jon Sundstrom, Paul Horn, Yuezhi Mao, Dmitri Zuev, Alec White,
  David Stuck, Shaama M.S., Shane Yost, Joonho Lee, David Small,
  Daniel Levine, Susi Lehtola, Hugh Burton, Evgeny Epifanovsky
 -----------------------------------------------------------------------
 Exchange:     0.2000 Hartree-Fock + 0.0800 Slater + 0.7200 B88
 Correlation:  0.1900 VWN1RPA + 0.8100 LYP
 Using SG-1 standard quadrature grid
 using 12 threads for integral computing
 -------------------------------------------------------
 OpenMP Integral computing Module                
 Release: version 1.0, May 2013, Q-Chem Inc. Pittsburgh 
 -------------------------------------------------------
 -------------------------------------------------------
 OpenMP BLAS3 based DFT computing Module                
 Release: version 1.0, May 2013, Q-Chem Inc. Pittsburgh 
 -------------------------------------------------------
 A unrestricted SCF calculation will be
 performed using DIIS
 SCF converges when DIIS error is below 1.0e-06
 Alpha HF Exchange    Energy =  -3.77186939913009
 Beta HF Exchange     Energy =  -3.77186939913009
 DFT Correlation      Energy =  -1.85332083590213
 DFT Exchange         Energy = -29.63317041300597
 One-Electron (alpha) Energy = -402.68371027241824
 One-Electron (beta)  Energy = -402.68371027241824
 Total Coulomb        Energy = 339.08219759772766
 ---------------------------------------
  Cycle       Energy         DIIS error
 ---------------------------------------
    1    -318.0407066542      3.03e-02  
 Alpha HF Exchange    Energy =  -3.81502160029482
 Beta HF Exchange     Energy =  -3.81502160029482
 DFT Correlation      Energy =  -1.87804231881625
 DFT Exchange         Energy = -30.32048332191074
 One-Electron (alpha) Energy = -405.88384401515356
 One-Electron (beta)  Energy = -405.88384401515322
 Total Coulomb        Energy = 346.78521173982841
    2    -317.5362987917      3.78e-03  
 Alpha HF Exchange    Energy =  -3.73760283594797
 Beta HF Exchange     Energy =  -3.73760283594796
 DFT Correlation      Energy =  -1.85620905396442
 DFT Exchange         Energy = -29.71242324803374
 One-Electron (alpha) Energy = -402.77140361563437
 One-Electron (beta)  Energy = -402.77140361563426
 Total Coulomb        Energy = 339.79297291871870
    3    -317.5189259463      4.53e-03  
 Alpha HF Exchange    Energy =  -3.77966425173438
 Beta HF Exchange     Energy =  -3.77966425173439
 DFT Correlation      Energy =  -1.86677577031758
 DFT Exchange         Energy = -30.03641029816672
 One-Electron (alpha) Energy = -404.33917630302363
 One-Electron (beta)  Energy = -404.33917630302363
 Total Coulomb        Energy = 343.26529118678570
    4    -317.6008296511      6.98e-04  
 Alpha HF Exchange    Energy =  -3.77790673614009
 Beta HF Exchange     Energy =  -3.77790673614009
 DFT Correlation      Energy =  -1.86747529878869
 DFT Exchange         Energy = -30.02717016215396
 One-Electron (alpha) Energy = -404.41854034882493
 One-Electron (beta)  Energy = -404.41854034882476
 Total Coulomb        Energy = 343.41006407004988
    5    -317.6027292207      2.30e-04  
 Alpha HF Exchange    Energy =  -3.77825549948079
 Beta HF Exchange     Energy =  -3.77825549948079
 DFT Correlation      Energy =  -1.86725927785483
 DFT Exchange         Energy = -30.02872279621695
 One-Electron (alpha) Energy = -404.39282740825280
 One-Electron (beta)  Energy = -404.39282740825303
 Total Coulomb        Energy = 343.36043354310857
    6    -317.6029680063      3.39e-05  
 Alpha HF Exchange    Energy =  -3.77815848123796
 Beta HF Exchange     Energy =  -3.77815848123796
 DFT Correlation      Energy =  -1.86722536385785
 DFT Exchange         Energy = -30.02786125321549
 One-Electron (alpha) Energy = -404.38563272790458
 One-Electron (beta)  Energy = -404.38563272790458
 Total Coulomb        Energy = 343.34495025903010
    7    -317.6029724362      1.54e-05  
 Alpha HF Exchange    Energy =  -3.77819526573143
 Beta HF Exchange     Energy =  -3.77819526573143
 DFT Correlation      Energy =  -1.86724422992382
 DFT Exchange         Energy = -30.02819006876990
 One-Electron (alpha) Energy = -404.38919224164607
 One-Electron (beta)  Energy = -404.38919224164590
 Total Coulomb        Energy = 343.35248956004614
    8    -317.6029734133      2.83e-06  
 Alpha HF Exchange    Energy =  -3.77820216903255
 Beta HF Exchange     Energy =  -3.77820216903255
 DFT Correlation      Energy =  -1.86724534964030
 DFT Exchange         Energy = -30.02824323919827
 One-Electron (alpha) Energy = -404.38948274516724
 One-Electron (beta)  Energy = -404.38948274516724
 Total Coulomb        Energy = 343.35313863727526
    9    -317.6029734398      8.07e-07  Convergence criterion met
 ---------------------------------------
 SCF time:   CPU 21.29s  wall 1.00s 
<S^2> =         -0.000000000
 Alpha HF Exchange    Energy =  -3.77820216903255
 Beta HF Exchange     Energy =  -3.77820216903255
 DFT Correlation      Energy =  -1.86724534964030
 DFT Exchange         Energy = -30.02824323919827
 One-Electron (alpha) Energy = -404.38948274516724
 One-Electron (beta)  Energy = -404.38948274516724
 Total Coulomb        Energy = 343.35313863727526
 Nuclear repulsion Energy = 187.27474634012000
 SCF   energy in the final basis set =     -317.6029734398
 Total energy in the final basis set =     -317.6029734398
 
 --------------------------------------------------------------
 
                    Orbital Energies (a.u.)
 --------------------------------------------------------------
 
 Alpha MOs
 -- Occupied --
-24.673 -24.659 -10.275 -10.270 -10.199  -1.181  -1.135  -0.801
 -0.704  -0.611  -0.519  -0.486  -0.479  -0.446  -0.434  -0.406
 -0.401  -0.367  -0.337  -0.336  -0.321
 -- Virtual --
  0.058   0.088   0.108   0.143   0.148   0.163   0.170   0.185
  0.228   0.248   0.488   0.521   0.527   0.556   0.583   0.619
  0.643   0.656   0.705   0.790   0.843   0.857   0.862   0.886
  0.908   0.937   1.078   1.155   1.187   1.196   1.288   1.368
  1.379   1.389   1.407   1.422   1.530   1.617   1.632   1.720
  1.750   1.802   1.823   1.850   1.888   1.897   1.936   1.969
  1.979   2.018   2.025   2.052   2.062   2.081   2.090   2.176
  2.198   2.278   2.299   2.370   2.414   2.466   2.593   2.650
  2.670   2.707   2.763   2.792   2.850   2.873   2.885   2.993
  3.100   3.180   3.250   3.305   3.432   3.465   3.479   4.091
  4.216   4.480   4.523   4.634
 
 Beta MOs
 -- Occupied --
-24.673 -24.659 -10.275 -10.270 -10.199  -1.181  -1.135  -0.801
 -0.704  -0.611  -0.519  -0.486  -0.479  -0.446  -0.434  -0.406
 -0.401  -0.367  -0.337  -0.336  -0.321
 -- Virtual --
  0.058   0.088   0.108   0.143   0.148   0.163   0.170   0.185
  0.228   0.248   0.488   0.521   0.527   0.556   0.583   0.619
  0.643   0.656   0.705   0.790   0.843   0.857   0.862   0.886
  0.908   0.937   1.078   1.155   1.187   1.196   1.288   1.368
  1.379   1.389   1.407   1.422   1.530   1.617   1.632   1.720
  1.750   1.802   1.823   1.850   1.888   1.897   1.936   1.969
  1.979   2.018   2.025   2.052   2.062   2.081   2.090   2.176
  2.198   2.278   2.299   2.370   2.414   2.466   2.593   2.650
  2.670   2.707   2.763   2.792   2.850   2.873   2.885   2.993
  3.100   3.180   3.250   3.305   3.432   3.465   3.479   4.091
  4.216   4.480   4.523   4.634
 --------------------------------------------------------------
 
          Ground-State Mulliken Net Atomic Charges

     Atom                 Charge (a.u.)    Spin (a.u.)
  --------------------------------------------------------
      1 F                    -0.320812      -0.000000
      2 F                    -0.345882       0.000000
      3 C                     0.221201       0.000000
      4 C                     0.102107      -0.000000
      5 C                    -0.355998      -0.000000
      6 H                     0.105478      -0.000000
      7 H                     0.106487       0.000000
      8 H                     0.120098      -0.000000
      9 H                     0.121116      -0.000000
     10 H                     0.112024      -0.000000
     11 H                     0.134182       0.000000
  --------------------------------------------------------
  Sum of atomic charges =    -0.000000
  Sum of spin   charges =    -0.000000

 -----------------------------------------------------------------
                    Cartesian Multipole Moments
 -----------------------------------------------------------------
    Charge (ESU x 10^10)
                 0.0000
    Dipole Moment (Debye)
         X      -1.9539      Y       2.3846      Z       0.1151
       Tot       3.0850
    Quadrupole Moments (Debye-Ang)
        XX     -32.2508     XY      -0.1464     YY     -29.6707
        XZ       1.2526     YZ       0.5778     ZZ     -27.5314
    Octopole Moments (Debye-Ang^2)
       XXX       0.0218    XXY      -3.5083    XYY       5.5668
       YYY      -7.0279    XXZ       0.6634    XYZ      -0.0044
       YYZ      -0.7257    XZZ       3.8088    YZZ      -3.5928
       ZZZ       0.7644
    Hexadecapole Moments (Debye-Ang^3)
      XXXX    -341.1442   XXXY       8.5236   XXYY     -76.3621
      XYYY       6.8009   YYYY    -129.1940   XXXZ       3.0090
      XXYZ       0.0562   XYYZ       0.5947   YYYZ      -3.9558
      XXZZ     -63.3540   XYZZ       2.3751   YYZZ     -31.3552
      XZZZ      -0.3417   YZZZ      -1.1591   ZZZZ     -52.1196
 -----------------------------------------------------------------
 Calculating analytic gradient of the SCF energy
 Gradient of SCF Energy
            1           2           3           4           5           6
    1   0.0000921   0.0444972  -0.0022942  -0.0406346   0.0006885  -0.0001617
    2  -0.0008589  -0.0233265   0.0013843   0.0206838  -0.0004189  -0.0001708
    3  -0.0000037  -0.0177971   0.0000690   0.0160950  -0.0000131  -0.0003339
            7           8           9          10          11
    1  -0.0010818  -0.0012764  -0.0000204  -0.0000070   0.0001983
    2   0.0008909   0.0017216   0.0001105   0.0000475  -0.0000635
    3   0.0012872   0.0005818   0.0000867   0.0000360  -0.0000080
 Max gradient component =       4.450E-02
 RMS gradient           =       1.255E-02
 Gradient time:  CPU 8.30 s  wall 0.72 s
 Geometry Optimization Parameters
   NAtoms,    NIC,     NZ,  NCons,   NDum,   NFix, NCnnct, MaxDiis
       11      68       0       1       0       0       0       0

 Cartesian Hessian Update
 Hessian Updated using BFGS Update


** CONSTRAINED OPTIMIZATION IN DELOCALIZED INTERNAL COORDINATES **
   Searching for a Minimum

   Optimization Cycle:   3

                       Coordinates (Angstroms)
     ATOM                X               Y               Z
      1  F        -0.5047849243   -1.3332526601    0.1693393050
      2  F         2.0010235723    0.0029679426   -0.2086519580
      3  C        -0.4451522626   -0.0260957008   -0.3192017147
      4  C         0.7499941253    0.6584911669    0.2964986837
      5  C        -1.7496210823    0.6778933598    0.0175843919
      6  H        -0.3014154249   -0.0890455048   -1.4052958280
      7  H         0.8035690964    1.7137101074    0.0150191021
      8  H         0.7490564637    0.5612653149    1.3853148746
      9  H        -1.8753301285    0.7704356807    1.1010465143
     10  H        -1.7865232261    1.6778258523   -0.4256648473
     11  H        -2.5871152089    0.0962034411   -0.3742875234
   Point Group: c1    Number of degrees of freedom:    27


   Energy is   -317.602973440

              Constraints and their Current Values
                                        Value     Constraint
   Distance(Angs):        2   4             1.499988     1.500000
 Hessian Updated using BFGS Update

   Using Lagrange Multiplier Algorithm


 26 Hessian modes will be used to form the next step
  Hessian Eigenvalues:
    -0.877423    0.044195    0.045000    0.062112    0.074330    0.082745
     0.082977    0.084205    0.084444    0.113336    0.159468    0.160000
     0.172121    0.179494    0.222987    0.245511    0.301886    0.308377
     0.338788    0.340753    0.341657    0.343008    0.343139    0.345473
     0.460214    1.143919

 Minimum Search - Taking P-RFO Step
 Searching for Lamda that Maximizes Along the Constraint modes Only
 Value Taken    Lamda =   0.00000001
 Searching for Lamda that Minimizes Along All other modes
 Value Taken    Lamda =  -0.00014651
 Step Taken.  Stepsize is  0.048038

                             Maximum     Tolerance    Cnvgd?
         Gradient            0.002122       0.000300      NO
         Displacement        0.037832       0.001200      NO
         Energy change     -0.000239       0.000001      NO


 New Cartesian Coordinates Obtained by Inverse Iteration

 Displacement from previous Coordinates is:  0.047444
 ----------------------------------------------------------------
             Standard Nuclear Orientation (Angstroms)
    I     Atom           X                Y                Z
 ----------------------------------------------------------------
    1      F      -0.5024715073    -1.3294904386     0.1739739243
    2      F       1.9926126986     0.0028607126    -0.2138798230
    3      C      -0.4438316315    -0.0241568283    -0.3158178188
    4      C       0.7467133199     0.6614665509     0.2999029229
    5      C      -1.7531768531     0.6775216905     0.0161990966
    6      H      -0.2959194796    -0.0856447489    -1.4007289796
    7      H       0.8112414335     1.7131025200     0.0118789188
    8      H       0.7607705253     0.5533087786     1.3865485894
    9      H      -1.8823741223     0.7694753868     1.0990891000
   10      H      -1.7906066464     1.6771225312    -0.4275779307
   11      H      -2.5892567371     0.0948328452    -0.3778869999
 ----------------------------------------------------------------
 Nuclear Repulsion Energy =   187.4561063088 hartrees
 There are       21 alpha and       21 beta electrons

                       Distance Matrix (Angstroms)
             F (  1)   F (  2)   C (  3)   C (  4)   C (  5)   H (  6)
   F (  2)  2.855002
   C (  3)  1.395432  2.438726
   C (  4)  2.353769  1.500000  1.505519
   C (  5)  2.370075  3.813010  1.522161  2.515988
   H (  6)  2.017301  2.579501  1.096673  2.130119  2.171107
   H (  7)  3.318055  2.090821  2.168101  1.092273  2.765626  2.541015
   H (  8)  2.571196  2.093275  2.163928  1.092106  2.865871  3.048569
   H (  9)  2.676869  4.162584  2.168229  2.749994  1.094440  3.081746
   H ( 10)  3.325790  4.142652  2.172704  2.828211  1.094322  2.507680
   H ( 11)  2.586101  4.585726  2.149619  3.450966  1.092639  2.517573
             H (  7)   H (  8)   H (  9)   H ( 10)
   H (  8)  1.799274
   H (  9)  3.054181  2.667503
   H ( 10)  2.638945  3.326190  1.778470
   H ( 11)  3.786040  3.813937  1.770956  1.773119
 
 Applying Cartesian multipole field
    Component          Value
    ---------          -----
     (2,0,0)        1.00000E-11
     (0,2,0)        2.00000E-11
     (0,0,2)       -3.00000E-10
 Nucleus-field energy     =    -0.0000000031 hartrees
 Requested basis set is 6-31G(d,p)
 There are 38 shells and 105 basis functions
 A cutoff of  1.0D-14 yielded    716 shell pairs
 There are      5609 function pairs
 Smallest overlap matrix eigenvalue = 3.57E-03
 Guess from superposition of atomic densities
 Warning:  Energy on first SCF cycle will be non-variational
 SAD guess density has 42.000000 electrons

 -----------------------------------------------------------------------
  General SCF calculation program by
  Eric Jon Sundstrom, Paul Horn, Yuezhi Mao, Dmitri Zuev, Alec White,
  David Stuck, Shaama M.S., Shane Yost, Joonho Lee, David Small,
  Daniel Levine, Susi Lehtola, Hugh Burton, Evgeny Epifanovsky
 -----------------------------------------------------------------------
 Exchange:     0.2000 Hartree-Fock + 0.0800 Slater + 0.7200 B88
 Correlation:  0.1900 VWN1RPA + 0.8100 LYP
 Using SG-1 standard quadrature grid
 using 12 threads for integral computing
 -------------------------------------------------------
 OpenMP Integral computing Module                
 Release: version 1.0, May 2013, Q-Chem Inc. Pittsburgh 
 -------------------------------------------------------
 -------------------------------------------------------
 OpenMP BLAS3 based DFT computing Module                
 Release: version 1.0, May 2013, Q-Chem Inc. Pittsburgh 
 -------------------------------------------------------
 A unrestricted SCF calculation will be
 performed using DIIS
 SCF converges when DIIS error is below 1.0e-06
 Alpha HF Exchange    Energy =  -3.77231810990265
 Beta HF Exchange     Energy =  -3.77231810990265
 DFT Correlation      Energy =  -1.85344747853111
 DFT Exchange         Energy = -29.63415913734833
 One-Electron (alpha) Energy = -402.86223862713609
 One-Electron (beta)  Energy = -402.86223862713609
 Total Coulomb        Energy = 339.25582771686197
 ---------------------------------------
  Cycle       Energy         DIIS error
 ---------------------------------------
    1    -318.0447860674      3.03e-02  
 Alpha HF Exchange    Energy =  -3.81542217238773
 Beta HF Exchange     Energy =  -3.81542217238772
 DFT Correlation      Energy =  -1.87822450726258
 DFT Exchange         Energy = -30.32331424152385
 One-Electron (alpha) Energy = -406.07096009965062
 One-Electron (beta)  Energy = -406.07096009965051
 Total Coulomb        Energy = 346.98188776773208
    2    -317.5363092194      3.79e-03  
 Alpha HF Exchange    Energy =  -3.73791709349124
 Beta HF Exchange     Energy =  -3.73791709349124
 DFT Correlation      Energy =  -1.85637338256288
 DFT Exchange         Energy = -29.71445475699662
 One-Electron (alpha) Energy = -402.95400761978954
 One-Electron (beta)  Energy = -402.95400761978954
 Total Coulomb        Energy = 339.97961526125141
    3    -317.5189559991      4.53e-03  
 Alpha HF Exchange    Energy =  -3.77997463752554
 Beta HF Exchange     Energy =  -3.77997463752555
 DFT Correlation      Energy =  -1.86693668010148
 DFT Exchange         Energy = -30.03847362844009
 One-Electron (alpha) Energy = -404.52203388170949
 One-Electron (beta)  Energy = -404.52203388171000
 Total Coulomb        Energy = 343.45240860893205
    4    -317.6009124324      6.97e-04  
 Alpha HF Exchange    Energy =  -3.77824113575852
 Beta HF Exchange     Energy =  -3.77824113575852
 DFT Correlation      Energy =  -1.86764207149290
 DFT Exchange         Energy = -30.02941998142742
 One-Electron (alpha) Energy = -404.60227885608492
 One-Electron (beta)  Energy = -404.60227885608498
 Total Coulomb        Energy = 343.59918665987476
    5    -317.6028090710      2.29e-04  
 Alpha HF Exchange    Energy =  -3.77858878518967
 Beta HF Exchange     Energy =  -3.77858878518967
 DFT Correlation      Energy =  -1.86742581513563
 DFT Exchange         Energy = -30.03096585299629
 One-Electron (alpha) Energy = -404.57665770541905
 One-Electron (beta)  Energy = -404.57665770541877
 Total Coulomb        Energy = 343.54973100571192
    6    -317.6030473379      3.40e-05  
 Alpha HF Exchange    Energy =  -3.77849077991878
 Beta HF Exchange     Energy =  -3.77849077991879
 DFT Correlation      Energy =  -1.86739187161634
 DFT Exchange         Energy = -30.03009700613111
 One-Electron (alpha) Energy = -404.56937276958428
 One-Electron (beta)  Energy = -404.56937276958439
 Total Coulomb        Energy = 343.53405781761660
    7    -317.6030518534      1.54e-05  
 Alpha HF Exchange    Energy =  -3.77852782381845
 Beta HF Exchange     Energy =  -3.77852782381845
 DFT Correlation      Energy =  -1.86741074329960
 DFT Exchange         Energy = -30.03042789548297
 One-Electron (alpha) Energy = -404.57296183602119
 One-Electron (beta)  Energy = -404.57296183602125
 Total Coulomb        Energy = 343.54165882875139
    8    -317.6030528240      2.81e-06  
 Alpha HF Exchange    Energy =  -3.77853464488911
 Beta HF Exchange     Energy =  -3.77853464488911
 DFT Correlation      Energy =  -1.86741180478997
 DFT Exchange         Energy = -30.03048021785324
 One-Electron (alpha) Energy = -404.57324002506579
 One-Electron (beta)  Energy = -404.57324002506579
 Total Coulomb        Energy = 343.54228220666596
    9    -317.6030528502      8.06e-07  Convergence criterion met
 ---------------------------------------
 SCF time:   CPU 21.38s  wall 1.00s 
<S^2> =          0.000000000
 Alpha HF Exchange    Energy =  -3.77853464488911
 Beta HF Exchange     Energy =  -3.77853464488911
 DFT Correlation      Energy =  -1.86741180478997
 DFT Exchange         Energy = -30.03048021785324
 One-Electron (alpha) Energy = -404.57324002506579
 One-Electron (beta)  Energy = -404.57324002506579
 Total Coulomb        Energy = 343.54228220666596
 Nuclear repulsion Energy = 187.45610630572398
 SCF   energy in the final basis set =     -317.6030528502
 Total energy in the final basis set =     -317.6030528502
 
 --------------------------------------------------------------
 
                    Orbital Energies (a.u.)
 --------------------------------------------------------------
 
 Alpha MOs
 -- Occupied --
-24.673 -24.658 -10.274 -10.269 -10.198  -1.181  -1.134  -0.801
 -0.704  -0.612  -0.520  -0.486  -0.479  -0.446  -0.434  -0.406
 -0.401  -0.366  -0.337  -0.336  -0.321
 -- Virtual --
  0.059   0.088   0.108   0.143   0.149   0.163   0.170   0.186
  0.227   0.249   0.488   0.520   0.528   0.556   0.583   0.620
  0.644   0.657   0.708   0.789   0.843   0.858   0.862   0.887
  0.909   0.937   1.077   1.156   1.186   1.196   1.285   1.371
  1.379   1.390   1.408   1.423   1.532   1.616   1.631   1.721
  1.751   1.802   1.826   1.851   1.888   1.899   1.937   1.973
  1.980   2.020   2.025   2.052   2.062   2.079   2.091   2.177
  2.197   2.278   2.301   2.373   2.418   2.467   2.596   2.648
  2.670   2.709   2.765   2.794   2.849   2.874   2.885   2.997
  3.101   3.180   3.254   3.308   3.431   3.467   3.479   4.091
  4.217   4.481   4.528   4.636
 
 Beta MOs
 -- Occupied --
-24.673 -24.658 -10.274 -10.269 -10.198  -1.181  -1.134  -0.801
 -0.704  -0.612  -0.520  -0.486  -0.479  -0.446  -0.434  -0.406
 -0.401  -0.366  -0.337  -0.336  -0.321
 -- Virtual --
  0.059   0.088   0.108   0.143   0.149   0.163   0.170   0.186
  0.227   0.249   0.488   0.520   0.528   0.556   0.583   0.620
  0.644   0.657   0.708   0.789   0.843   0.858   0.862   0.887
  0.909   0.937   1.077   1.156   1.186   1.196   1.285   1.371
  1.379   1.390   1.408   1.423   1.532   1.616   1.631   1.721
  1.751   1.802   1.826   1.851   1.888   1.899   1.937   1.973
  1.980   2.020   2.025   2.052   2.062   2.079   2.091   2.177
  2.197   2.278   2.301   2.373   2.418   2.467   2.596   2.648
  2.670   2.709   2.765   2.794   2.849   2.874   2.885   2.997
  3.101   3.180   3.254   3.308   3.431   3.467   3.479   4.091
  4.217   4.481   4.528   4.636
 --------------------------------------------------------------
 
          Ground-State Mulliken Net Atomic Charges

     Atom                 Charge (a.u.)    Spin (a.u.)
  --------------------------------------------------------
      1 F                    -0.320405      -0.000000
      2 F                    -0.347916      -0.000000
      3 C                     0.221708       0.000000
      4 C                     0.102669       0.000000
      5 C                    -0.356207       0.000000
      6 H                     0.105605      -0.000000
      7 H                     0.107107       0.000000
      8 H                     0.120762      -0.000000
      9 H                     0.121011      -0.000000
     10 H                     0.111748       0.000000
     11 H                     0.133918       0.000000
  --------------------------------------------------------
  Sum of atomic charges =     0.000000
  Sum of spin   charges =    -0.000000

 -----------------------------------------------------------------
                    Cartesian Multipole Moments
 -----------------------------------------------------------------
    Charge (ESU x 10^10)
                 0.0000
    Dipole Moment (Debye)
         X      -1.9449      Y       2.3819      Z       0.1258
       Tot       3.0777
    Quadrupole Moments (Debye-Ang)
        XX     -32.2366     XY      -0.1192     YY     -29.6475
        XZ       1.2789     YZ       0.5630     ZZ     -27.5200
    Octopole Moments (Debye-Ang^2)
       XXX       0.2330    XXY      -3.5195    XYY       5.6412
       YYY      -7.1417    XXZ       0.6949    XYZ      -0.0136
       YYZ      -0.7807    XZZ       3.8910    YZZ      -3.6298
       ZZZ       0.7421
    Hexadecapole Moments (Debye-Ang^3)
      XXXX    -340.6312   XXXY       8.7000   XXYY     -76.2007
      XYYY       7.0076   YYYY    -128.8455   XXXZ       3.1662
      XXYZ       0.0935   XYYZ       0.6095   YYYZ      -3.8778
      XXZZ     -63.2457   XYZZ       2.4137   YYZZ     -31.3225
      XZZZ      -0.2143   YZZZ      -1.0722   ZZZZ     -52.1263
 -----------------------------------------------------------------
 Calculating analytic gradient of the SCF energy
 Gradient of SCF Energy
            1           2           3           4           5           6
    1   0.0000433   0.0428302   0.0005596  -0.0432899   0.0001135  -0.0001300
    2  -0.0001216  -0.0225775   0.0003890   0.0218581  -0.0000205   0.0000380
    3  -0.0000897  -0.0174932  -0.0001840   0.0172113   0.0002586   0.0000988
            7           8           9          10          11
    1   0.0001123  -0.0000797  -0.0000294  -0.0000539  -0.0000760
    2  -0.0000209   0.0004781   0.0000173  -0.0000390  -0.0000009
    3   0.0002067   0.0000138  -0.0000271  -0.0000188   0.0000236
 Max gradient component =       4.329E-02
 RMS gradient           =       1.267E-02
 Gradient time:  CPU 8.28 s  wall 0.71 s
 Geometry Optimization Parameters
   NAtoms,    NIC,     NZ,  NCons,   NDum,   NFix, NCnnct, MaxDiis
       11      68       0       1       0       0       0       0

 Cartesian Hessian Update
 Hessian Updated using BFGS Update


** CONSTRAINED OPTIMIZATION IN DELOCALIZED INTERNAL COORDINATES **
   Searching for a Minimum

   Optimization Cycle:   4

                       Coordinates (Angstroms)
     ATOM                X               Y               Z
      1  F        -0.5024715073   -1.3294904386    0.1739739243
      2  F         1.9926126986    0.0028607126   -0.2138798230
      3  C        -0.4438316315   -0.0241568283   -0.3158178188
      4  C         0.7467133199    0.6614665509    0.2999029229
      5  C        -1.7531768531    0.6775216905    0.0161990966
      6  H        -0.2959194796   -0.0856447489   -1.4007289796
      7  H         0.8112414335    1.7131025200    0.0118789188
      8  H         0.7607705253    0.5533087786    1.3865485894
      9  H        -1.8823741223    0.7694753868    1.0990891000
     10  H        -1.7906066464    1.6771225312   -0.4275779307
     11  H        -2.5892567371    0.0948328452   -0.3778869999
   Point Group: c1    Number of degrees of freedom:    27


   Energy is   -317.603052850

              Constraints and their Current Values
                                        Value     Constraint
   Distance(Angs):        2   4             1.500000     1.500000
 Hessian Updated using BFGS Update

 25 Hessian modes will be used to form the next step
  Hessian Eigenvalues:
     0.038840    0.045002    0.059441    0.074853    0.082845    0.083015
     0.084205    0.084459    0.113303    0.159905    0.160000    0.161081
     0.174294    0.179662    0.221495    0.244978    0.306841    0.316902
     0.340227    0.340831    0.342200    0.343035    0.343150    0.345562
     0.459678

 Minimum Search - Taking Simple RFO Step
 Searching for Lamda that Minimizes Along All modes
 Value Taken    Lamda =  -0.00000813
 Step Taken.  Stepsize is  0.012252

                             Maximum     Tolerance    Cnvgd?
         Gradient           0.000438      0.000300      NO
         Displacement       0.005755      0.001200      NO
         Energy change     -0.000079      0.000001      NO


 New Cartesian Coordinates Obtained by Inverse Iteration

 Displacement from previous Coordinates is:  0.014666
 ----------------------------------------------------------------
             Standard Nuclear Orientation (Angstroms)
    I     Atom           X                Y                Z
 ----------------------------------------------------------------
    1      F      -0.5027683477    -1.3287816547     0.1761398464
    2      F       1.9911629925     0.0033936107    -0.2171638945
    3      C      -0.4440923953    -0.0238677782    -0.3142394088
    4      C       0.7472445809     0.6622950808     0.3010208796
    5      C      -1.7540539940     0.6775786568     0.0156062070
    6      H      -0.2950596757    -0.0852032695    -1.3991747242
    7      H       0.8115552697     1.7137379215     0.0122181183
    8      H       0.7642109122     0.5502454951     1.3871904900
    9      H      -1.8845951827     0.7697017765     1.0983449509
   10      H      -1.7908799145     1.6770633535    -0.4285695321
   11      H      -2.5890232454     0.0942358074    -0.3796719326
 ----------------------------------------------------------------
 Nuclear Repulsion Energy =   187.4569571913 hartrees
 There are       21 alpha and       21 beta electrons

                       Distance Matrix (Angstroms)
             F (  1)   F (  2)   C (  3)   C (  4)   C (  5)   H (  6)
   F (  2)  2.854658
   C (  3)  1.395247  2.437342
   C (  4)  2.354254  1.500000  1.506203
   C (  5)  2.370014  3.812526  1.522112  2.517576
   H (  6)  2.017733  2.575231  1.096840  2.129746  2.170739
   H (  7)  3.318319  2.090303  2.168525  1.092280  2.766946  2.540239
   H (  8)  2.569557  2.092465  2.164363  1.092066  2.870386  3.047898
   H (  9)  2.676479  4.164048  2.167993  2.752061  1.094464  3.081410
   H ( 10)  3.325659  4.141221  2.172573  2.829158  1.094357  2.507017
   H ( 11)  2.585801  4.583968  2.149176  3.452060  1.092569  2.516715
             H (  7)   H (  8)   H (  9)   H ( 10)
   H (  8)  1.801806
   H (  9)  3.056158  2.673531
   H ( 10)  2.639755  3.330945  1.778639
   H ( 11)  3.786859  3.817581  1.771160  1.773349
 
 Applying Cartesian multipole field
    Component          Value
    ---------          -----
     (2,0,0)        1.00000E-11
     (0,2,0)        2.00000E-11
     (0,0,2)       -3.00000E-10
 Nucleus-field energy     =    -0.0000000031 hartrees
 Requested basis set is 6-31G(d,p)
 There are 38 shells and 105 basis functions
 A cutoff of  1.0D-14 yielded    716 shell pairs
 There are      5609 function pairs
 Smallest overlap matrix eigenvalue = 3.58E-03
 Guess from superposition of atomic densities
 Warning:  Energy on first SCF cycle will be non-variational
 SAD guess density has 42.000000 electrons

 -----------------------------------------------------------------------
  General SCF calculation program by
  Eric Jon Sundstrom, Paul Horn, Yuezhi Mao, Dmitri Zuev, Alec White,
  David Stuck, Shaama M.S., Shane Yost, Joonho Lee, David Small,
  Daniel Levine, Susi Lehtola, Hugh Burton, Evgeny Epifanovsky
 -----------------------------------------------------------------------
 Exchange:     0.2000 Hartree-Fock + 0.0800 Slater + 0.7200 B88
 Correlation:  0.1900 VWN1RPA + 0.8100 LYP
 Using SG-1 standard quadrature grid
 using 12 threads for integral computing
 -------------------------------------------------------
 OpenMP Integral computing Module                
 Release: version 1.0, May 2013, Q-Chem Inc. Pittsburgh 
 -------------------------------------------------------
 -------------------------------------------------------
 OpenMP BLAS3 based DFT computing Module                
 Release: version 1.0, May 2013, Q-Chem Inc. Pittsburgh 
 -------------------------------------------------------
 A unrestricted SCF calculation will be
 performed using DIIS
 SCF converges when DIIS error is below 1.0e-06
 Alpha HF Exchange    Energy =  -3.77225820037093
 Beta HF Exchange     Energy =  -3.77225820037093
 DFT Correlation      Energy =  -1.85343685668497
 DFT Exchange         Energy = -29.63404857098476
 One-Electron (alpha) Energy = -402.86331934248545
 One-Electron (beta)  Energy = -402.86331934248545
 Total Coulomb        Energy = 339.25738628820727
 ---------------------------------------
  Cycle       Energy         DIIS error
 ---------------------------------------
    1    -318.0442970370      3.03e-02  
 Alpha HF Exchange    Energy =  -3.81541617631666
 Beta HF Exchange     Energy =  -3.81541617631665
 DFT Correlation      Energy =  -1.87821720808190
 DFT Exchange         Energy = -30.32325847503355
 One-Electron (alpha) Energy = -406.07246580889000
 One-Electron (beta)  Energy = -406.07246580888989
 Total Coulomb        Energy = 346.98399172656343
    2    -317.5362907387      3.79e-03  
 Alpha HF Exchange    Energy =  -3.73790020105155
 Beta HF Exchange     Energy =  -3.73790020105155
 DFT Correlation      Energy =  -1.85636620100586
 DFT Exchange         Energy = -29.71432354203922
 One-Electron (alpha) Energy = -402.95564914306601
 One-Electron (beta)  Energy = -402.95564914306584
 Total Coulomb        Energy = 339.98192995460039
    3    -317.5189012885      4.53e-03  
 Alpha HF Exchange    Energy =  -3.77996118006945
 Beta HF Exchange     Energy =  -3.77996118006945
 DFT Correlation      Energy =  -1.86692775839709
 DFT Exchange         Energy = -30.03835874987794
 One-Electron (alpha) Energy = -404.52342427428584
 One-Electron (beta)  Energy = -404.52342427428596
 Total Coulomb        Energy = 343.45418447731822
    4    -317.6009157515      6.97e-04  
 Alpha HF Exchange    Energy =  -3.77823062470991
 Beta HF Exchange     Energy =  -3.77823062470991
 DFT Correlation      Energy =  -1.86763414636563
 DFT Exchange         Energy = -30.02932974476902
 One-Electron (alpha) Energy = -404.60370598995854
 One-Electron (beta)  Energy = -404.60370598995860
 Total Coulomb        Energy = 343.60106473104400
    5    -317.6028152012      2.29e-04  
 Alpha HF Exchange    Energy =  -3.77857796431987
 Beta HF Exchange     Energy =  -3.77857796431988
 DFT Correlation      Energy =  -1.86741824761176
 DFT Exchange         Energy = -30.03087489265796
 One-Electron (alpha) Energy = -404.57818681230265
 One-Electron (beta)  Energy = -404.57818681230276
 Total Coulomb        Energy = 343.55181246546869
    6    -317.6030530398      3.41e-05  
 Alpha HF Exchange    Energy =  -3.77847978220979
 Beta HF Exchange     Energy =  -3.77847978220979
 DFT Correlation      Energy =  -1.86738419993115
 DFT Exchange         Energy = -30.03000441456916
 One-Electron (alpha) Energy = -404.57087780986626
 One-Electron (beta)  Energy = -404.57087780986603
 Total Coulomb        Energy = 343.53608904510440
    7    -317.6030575653      1.53e-05  
 Alpha HF Exchange    Energy =  -3.77851681956392
 Beta HF Exchange     Energy =  -3.77851681956392
 DFT Correlation      Energy =  -1.86740307956463
 DFT Exchange         Energy = -30.03033533231601
 One-Electron (alpha) Energy = -404.57446861236934
 One-Electron (beta)  Energy = -404.57446861236929
 Total Coulomb        Energy = 343.54369355332079
    8    -317.6030585342      2.81e-06  
 Alpha HF Exchange    Energy =  -3.77852366016820
 Beta HF Exchange     Energy =  -3.77852366016819
 DFT Correlation      Energy =  -1.86740414107933
 DFT Exchange         Energy = -30.03038778059698
 One-Electron (alpha) Energy = -404.57474659528646
 One-Electron (beta)  Energy = -404.57474659528623
 Total Coulomb        Energy = 343.54431668401935
    9    -317.6030585604      8.06e-07  Convergence criterion met
 ---------------------------------------
 SCF time:   CPU 21.63s  wall 2.00s 
<S^2> =         -0.000000000
 Alpha HF Exchange    Energy =  -3.77852366016820
 Beta HF Exchange     Energy =  -3.77852366016819
 DFT Correlation      Energy =  -1.86740414107933
 DFT Exchange         Energy = -30.03038778059698
 One-Electron (alpha) Energy = -404.57474659528646
 One-Electron (beta)  Energy = -404.57474659528623
 Total Coulomb        Energy = 343.54431668401935
 Nuclear repulsion Energy = 187.45695718821594
 SCF   energy in the final basis set =     -317.6030585604
 Total energy in the final basis set =     -317.6030585604
 
 --------------------------------------------------------------
 
                    Orbital Energies (a.u.)
 --------------------------------------------------------------
 
 Alpha MOs
 -- Occupied --
-24.673 -24.657 -10.274 -10.269 -10.198  -1.181  -1.134  -0.800
 -0.704  -0.611  -0.520  -0.486  -0.479  -0.446  -0.434  -0.406
 -0.401  -0.366  -0.337  -0.336  -0.321
 -- Virtual --
  0.059   0.088   0.108   0.143   0.149   0.163   0.170   0.186
  0.227   0.248   0.488   0.520   0.528   0.556   0.583   0.620
  0.644   0.657   0.708   0.788   0.843   0.858   0.862   0.887
  0.909   0.937   1.077   1.156   1.186   1.196   1.284   1.371
  1.379   1.390   1.407   1.423   1.532   1.615   1.631   1.721
  1.751   1.802   1.827   1.851   1.888   1.899   1.937   1.973
  1.980   2.020   2.025   2.052   2.062   2.079   2.091   2.177
  2.197   2.277   2.302   2.373   2.419   2.468   2.596   2.647
  2.669   2.708   2.765   2.795   2.848   2.874   2.885   2.998
  3.101   3.181   3.254   3.308   3.431   3.466   3.479   4.090
  4.217   4.481   4.529   4.636
 
 Beta MOs
 -- Occupied --
-24.673 -24.657 -10.274 -10.269 -10.198  -1.181  -1.134  -0.800
 -0.704  -0.611  -0.520  -0.486  -0.479  -0.446  -0.434  -0.406
 -0.401  -0.366  -0.337  -0.336  -0.321
 -- Virtual --
  0.059   0.088   0.108   0.143   0.149   0.163   0.170   0.186
  0.227   0.248   0.488   0.520   0.528   0.556   0.583   0.620
  0.644   0.657   0.708   0.788   0.843   0.858   0.862   0.887
  0.909   0.937   1.077   1.156   1.186   1.196   1.284   1.371
  1.379   1.390   1.407   1.423   1.532   1.615   1.631   1.721
  1.751   1.802   1.827   1.851   1.888   1.899   1.937   1.973
  1.980   2.020   2.025   2.052   2.062   2.079   2.091   2.177
  2.197   2.277   2.302   2.373   2.419   2.468   2.596   2.647
  2.669   2.708   2.765   2.795   2.848   2.874   2.885   2.998
  3.101   3.181   3.254   3.308   3.431   3.466   3.479   4.090
  4.217   4.481   4.529   4.636
 --------------------------------------------------------------
 
          Ground-State Mulliken Net Atomic Charges

     Atom                 Charge (a.u.)    Spin (a.u.)
  --------------------------------------------------------
      1 F                    -0.320328       0.000000
      2 F                    -0.348096       0.000000
      3 C                     0.221684      -0.000000
      4 C                     0.102643       0.000000
      5 C                    -0.356114       0.000000
      6 H                     0.105574       0.000000
      7 H                     0.107188       0.000000
      8 H                     0.120910       0.000000
      9 H                     0.120956       0.000000
     10 H                     0.111682      -0.000000
     11 H                     0.133900      -0.000000
  --------------------------------------------------------
  Sum of atomic charges =    -0.000000
  Sum of spin   charges =     0.000000

 -----------------------------------------------------------------
[...]
      9  H        -1.8911117130    0.7757415229    1.0934303485
     10  H        -1.7848591316    1.6776783823   -0.4356261708
     11  H        -2.5892886054    0.0979165560   -0.3864887440
   Point Group: c1    Number of degrees of freedom:    27


   Energy is   -317.603071383

              Constraints and their Current Values
                                        Value     Constraint
   Distance(Angs):        2   4             1.500000     1.500000
 Hessian Updated using BFGS Update

 26 Hessian modes will be used to form the next step
  Hessian Eigenvalues:
     0.003661    0.044816    0.055554    0.074402    0.082210    0.082936
     0.084225    0.084443    0.112562    0.159066    0.159970    0.160023
     0.162445    0.172248    0.179379    0.215866    0.240293    0.301879
     0.308209    0.339657    0.340883    0.342158    0.343094    0.343238
     0.345666    0.456239

 Minimum Search - Taking Simple RFO Step
 Searching for Lamda that Minimizes Along All modes
 Value Taken    Lamda =   0.00000000
 Step Taken.  Stepsize is  0.003484

                             Maximum     Tolerance    Cnvgd?
         Gradient           0.000162      0.000300     YES
         Displacement       0.001379      0.001200      NO
         Energy change     -0.000002      0.000001      NO


 New Cartesian Coordinates Obtained by Inverse Iteration

 Displacement from previous Coordinates is:  0.004143
 ----------------------------------------------------------------
             Standard Nuclear Orientation (Angstroms)
    I     Atom           X                Y                Z
 ----------------------------------------------------------------
    1      F      -0.5075790822    -1.3283059825     0.1906274306
    2      F       1.9913844414     0.0207307350    -0.2396181340
    3      C      -0.4449840605    -0.0269450015    -0.3088281716
    4      C       0.7480236737     0.6609244353     0.3027891388
    5      C      -1.7542258781     0.6796406662     0.0116685914
    6      H      -0.2919929642    -0.0963924618    -1.3927818242
    7      H       0.7995135168     1.7172326261     0.0297634341
    8      H       0.7778892215     0.5315416197     1.3867437657
    9      H      -1.8904238778     0.7760438730     1.0933777891
   10      H      -1.7846478679     1.6777753305    -0.4358735444
   11      H      -2.5892561226     0.0981531599    -0.3861674754
 ----------------------------------------------------------------
 Nuclear Repulsion Energy =   187.3661610093 hartrees
 There are       21 alpha and       21 beta electrons

                       Distance Matrix (Angstroms)
             F (  1)   F (  2)   C (  3)   C (  4)   C (  5)   H (  6)
   F (  2)  2.872252
   C (  3)  1.395319  2.437818
   C (  4)  2.355028  1.500000  1.506820
   C (  5)  2.370233  3.811418  1.521872  2.519197
   H (  6)  2.017740  2.560726  1.096898  2.128409  2.170906
   H (  7)  3.318083  2.090751  2.169234  1.092237  2.756539  2.550345
   H (  8)  2.557764  2.092499  2.163860  1.092057  2.885199  3.043799
   H (  9)  2.674978  4.173226  2.168010  2.756753  1.094504  3.081739
   H ( 10)  3.325648  4.128285  2.171845  2.827372  1.094300  2.508259
   H ( 11)  2.588601  4.583638  2.149310  3.453811  1.092555  2.515659
             H (  7)   H (  8)   H (  9)   H ( 10)
   H (  8)  1.802145
   H (  9)  3.041854  2.695504
   H ( 10)  2.626074  3.346996  1.778459
   H ( 11)  3.778647  3.829975  1.771146  1.773435
 
 Applying Cartesian multipole field
    Component          Value
    ---------          -----
     (2,0,0)        1.00000E-11
     (0,2,0)        2.00000E-11
     (0,0,2)       -3.00000E-10
 Nucleus-field energy     =    -0.0000000032 hartrees
 Requested basis set is 6-31G(d,p)
 There are 38 shells and 105 basis functions
 A cutoff of  1.0D-14 yielded    716 shell pairs
 There are      5609 function pairs
 Smallest overlap matrix eigenvalue = 3.59E-03
 Guess from superposition of atomic densities
 Warning:  Energy on first SCF cycle will be non-variational
 SAD guess density has 42.000000 electrons

 -----------------------------------------------------------------------
  General SCF calculation program by
  Eric Jon Sundstrom, Paul Horn, Yuezhi Mao, Dmitri Zuev, Alec White,
  David Stuck, Shaama M.S., Shane Yost, Joonho Lee, David Small,
  Daniel Levine, Susi Lehtola, Hugh Burton, Evgeny Epifanovsky
 -----------------------------------------------------------------------
 Exchange:     0.2000 Hartree-Fock + 0.0800 Slater + 0.7200 B88
 Correlation:  0.1900 VWN1RPA + 0.8100 LYP
 Using SG-1 standard quadrature grid
 using 12 threads for integral computing
 -------------------------------------------------------
 OpenMP Integral computing Module                
 Release: version 1.0, May 2013, Q-Chem Inc. Pittsburgh 
 -------------------------------------------------------
 -------------------------------------------------------
 OpenMP BLAS3 based DFT computing Module                
 Release: version 1.0, May 2013, Q-Chem Inc. Pittsburgh 
 -------------------------------------------------------
 A unrestricted SCF calculation will be
 performed using DIIS
 SCF converges when DIIS error is below 1.0e-06
 Alpha HF Exchange    Energy =  -3.77221003072273
 Beta HF Exchange     Energy =  -3.77221003072273
 DFT Correlation      Energy =  -1.85342370861299
 DFT Exchange         Energy = -29.63396193891577
 One-Electron (alpha) Energy = -402.77271874737653
 One-Electron (beta)  Energy = -402.77271874737653
 Total Coulomb        Energy = 339.16724035145040
 ---------------------------------------
  Cycle       Energy         DIIS error
 ---------------------------------------
    1    -318.0438418462      3.03e-02  
 Alpha HF Exchange    Energy =  -3.81541298471071
 Beta HF Exchange     Energy =  -3.81541298471071
 DFT Correlation      Energy =  -1.87820474564771
 DFT Exchange         Energy = -30.32324775879088
 One-Electron (alpha) Energy = -405.97963587303474
 One-Electron (beta)  Energy = -405.97963587303485
 Total Coulomb        Energy = 346.88906612063596
    2    -317.5363230932      3.79e-03  
 Alpha HF Exchange    Energy =  -3.73792503971984
 Beta HF Exchange     Energy =  -3.73792503971984
 DFT Correlation      Energy =  -1.85635986815374
 DFT Exchange         Energy = -29.71448324083444
 One-Electron (alpha) Energy = -402.86628020863282
 One-Electron (beta)  Energy = -402.86628020863282
 Total Coulomb        Energy = 339.89413983695744
    3    -317.5189527626      4.53e-03  
 Alpha HF Exchange    Energy =  -3.77996387734431
 Beta HF Exchange     Energy =  -3.77996387734431
 DFT Correlation      Energy =  -1.86691893182764
 DFT Exchange         Energy = -30.03836845557627
 One-Electron (alpha) Energy = -404.43195343088621
 One-Electron (beta)  Energy = -404.43195343088638
 Total Coulomb        Energy = 343.36203026921692
    4    -317.6009307285      6.97e-04  
 Alpha HF Exchange    Energy =  -3.77823487810476
 Beta HF Exchange     Energy =  -3.77823487810475
 DFT Correlation      Energy =  -1.86762418377264
 DFT Exchange         Energy = -30.02934868629200
 One-Electron (alpha) Energy = -404.51230226383302
 One-Electron (beta)  Energy = -404.51230226383285
 Total Coulomb        Energy = 343.50905733209134
    5    -317.6028288157      2.29e-04  
 Alpha HF Exchange    Energy =  -3.77858105848032
 Beta HF Exchange     Energy =  -3.77858105848031
 DFT Correlation      Energy =  -1.86740846774873
 DFT Exchange         Energy = -30.03088752793643
 One-Electron (alpha) Energy = -404.48678816631997
 One-Electron (beta)  Energy = -404.48678816632003
 Total Coulomb        Energy = 343.45980727481526
    6    -317.6030661644      3.40e-05  
 Alpha HF Exchange    Energy =  -3.77848286623739
 Beta HF Exchange     Energy =  -3.77848286623740
 DFT Correlation      Energy =  -1.86737433946641
 DFT Exchange         Energy = -30.03001681641793
 One-Electron (alpha) Energy = -404.47946208195458
 One-Electron (beta)  Energy = -404.47946208195475
 Total Coulomb        Energy = 343.44404936833649
    7    -317.6030706778      1.53e-05  
 Alpha HF Exchange    Energy =  -3.77851999962222
 Beta HF Exchange     Energy =  -3.77851999962222
 DFT Correlation      Energy =  -1.86739323980369
 DFT Exchange         Energy = -30.03034845915019
 One-Electron (alpha) Energy = -404.48305402702783
 One-Electron (beta)  Energy = -404.48305402702783
 Total Coulomb        Energy = 343.45165710136587
    8    -317.6030716448      2.81e-06  
 Alpha HF Exchange    Energy =  -3.77852688758636
 Beta HF Exchange     Energy =  -3.77852688758637
 DFT Correlation      Energy =  -1.86739431277438
 DFT Exchange         Energy = -30.03040124659593
 One-Electron (alpha) Energy = -404.48333422803563
 One-Electron (beta)  Energy = -404.48333422803591
 Total Coulomb        Energy = 343.45228511370595
    9    -317.6030716708      8.03e-07  Convergence criterion met
 ---------------------------------------
 SCF time:   CPU 21.33s  wall 2.00s 
<S^2> =         -0.000000000
 Alpha HF Exchange    Energy =  -3.77852688758636
 Beta HF Exchange     Energy =  -3.77852688758637
 DFT Correlation      Energy =  -1.86739431277438
 DFT Exchange         Energy = -30.03040124659593
 One-Electron (alpha) Energy = -404.48333422803563
 One-Electron (beta)  Energy = -404.48333422803591
 Total Coulomb        Energy = 343.45228511370595
 Nuclear repulsion Energy = 187.36616100611855
 SCF   energy in the final basis set =     -317.6030716708
 Total energy in the final basis set =     -317.6030716708
 
 --------------------------------------------------------------
 
                    Orbital Energies (a.u.)
 --------------------------------------------------------------
 
 Alpha MOs
 -- Occupied --
-24.673 -24.658 -10.274 -10.269 -10.198  -1.181  -1.134  -0.800
 -0.704  -0.611  -0.520  -0.486  -0.479  -0.446  -0.434  -0.406
 -0.401  -0.367  -0.337  -0.336  -0.321
 -- Virtual --
  0.059   0.089   0.108   0.143   0.149   0.163   0.170   0.187
  0.227   0.248   0.488   0.521   0.528   0.556   0.582   0.620
  0.644   0.658   0.706   0.789   0.842   0.858   0.863   0.886
  0.909   0.937   1.077   1.156   1.184   1.195   1.285   1.369
  1.380   1.390   1.406   1.424   1.532   1.616   1.632   1.718
  1.751   1.803   1.828   1.851   1.888   1.899   1.937   1.974
  1.980   2.020   2.025   2.053   2.062   2.079   2.090   2.175
  2.198   2.276   2.303   2.373   2.421   2.468   2.595   2.646
  2.669   2.709   2.763   2.797   2.849   2.874   2.884   2.997
  3.100   3.181   3.255   3.307   3.431   3.466   3.479   4.080
  4.220   4.480   4.540   4.637
 
 Beta MOs
 -- Occupied --
-24.673 -24.658 -10.274 -10.269 -10.198  -1.181  -1.134  -0.800
 -0.704  -0.611  -0.520  -0.486  -0.479  -0.446  -0.434  -0.406
 -0.401  -0.367  -0.337  -0.336  -0.321
 -- Virtual --
  0.059   0.089   0.108   0.143   0.149   0.163   0.170   0.187
  0.227   0.248   0.488   0.521   0.528   0.556   0.582   0.620
  0.644   0.658   0.706   0.789   0.842   0.858   0.863   0.886
  0.909   0.937   1.077   1.156   1.184   1.195   1.285   1.369
  1.380   1.390   1.406   1.424   1.532   1.616   1.632   1.718
  1.751   1.803   1.828   1.851   1.888   1.899   1.937   1.974
  1.980   2.020   2.025   2.053   2.062   2.079   2.090   2.175
  2.198   2.276   2.303   2.373   2.421   2.468   2.595   2.646
  2.669   2.709   2.763   2.797   2.849   2.874   2.884   2.997
  3.100   3.181   3.255   3.307   3.431   3.466   3.479   4.080
  4.220   4.480   4.540   4.637
 --------------------------------------------------------------
 
          Ground-State Mulliken Net Atomic Charges

     Atom                 Charge (a.u.)    Spin (a.u.)
  --------------------------------------------------------
      1 F                    -0.320660      -0.000000
      2 F                    -0.348329       0.000000
      3 C                     0.221539       0.000000
      4 C                     0.102254       0.000000
      5 C                    -0.356182       0.000000
      6 H                     0.106152      -0.000000
      7 H                     0.107172      -0.000000
      8 H                     0.121530      -0.000000
      9 H                     0.121005      -0.000000
     10 H                     0.111743       0.000000
     11 H                     0.133778      -0.000000
  --------------------------------------------------------
  Sum of atomic charges =    -0.000000
  Sum of spin   charges =     0.000000

 -----------------------------------------------------------------
                    Cartesian Multipole Moments
 -----------------------------------------------------------------
    Charge (ESU x 10^10)
                 0.0000
    Dipole Moment (Debye)
         X      -1.9349      Y       2.3529      Z       0.1516
       Tot       3.0500
    Quadrupole Moments (Debye-Ang)
        XX     -32.2433     XY      -0.1772     YY     -29.6433
        XZ       1.3690     YZ       0.5935     ZZ     -27.5431
    Octopole Moments (Debye-Ang^2)
       XXX       0.3445    XXY      -3.6794    XYY       5.6639
       YYY      -7.3324    XXZ       0.8484    XYZ      -0.0178
       YYZ      -0.7933    XZZ       3.9178    YZZ      -3.7243
       ZZZ       0.8092
    Hexadecapole Moments (Debye-Ang^3)
      XXXX    -340.9702   XXXY       8.0898   XXYY     -76.3408
      XYYY       6.5522   YYYY    -128.8199   XXXZ       3.9979
      XXYZ       0.2786   XYYZ       0.8306   YYYZ      -3.4433
      XXZZ     -63.3177   XYZZ       2.2192   YYZZ     -31.3955
      XZZZ       0.4095   YZZZ      -0.7226   ZZZZ     -52.4823
 -----------------------------------------------------------------
 Calculating analytic gradient of the SCF energy
 Gradient of SCF Energy
            1           2           3           4           5           6
    1   0.0000158   0.0424737  -0.0000524  -0.0424410   0.0000150   0.0000170
    2   0.0000312  -0.0218651  -0.0000580   0.0218885  -0.0000158   0.0000145
    3  -0.0000138  -0.0185223   0.0000383   0.0185253  -0.0000180  -0.0000067
            7           8           9          10          11
    1  -0.0000112  -0.0000073  -0.0000120   0.0000023   0.0000002
    2   0.0000067   0.0000043  -0.0000080   0.0000003   0.0000013
    3   0.0000109   0.0000087  -0.0000054   0.0000022  -0.0000193
 Max gradient component =       4.247E-02
 RMS gradient           =       1.261E-02
 Gradient time:  CPU 8.29 s  wall 0.72 s
 Geometry Optimization Parameters
   NAtoms,    NIC,     NZ,  NCons,   NDum,   NFix, NCnnct, MaxDiis
       11      68       0       1       0       0       0       0

 Cartesian Hessian Update
 Hessian Updated using BFGS Update


** CONSTRAINED OPTIMIZATION IN DELOCALIZED INTERNAL COORDINATES **
   Searching for a Minimum

   Optimization Cycle:  10

                       Coordinates (Angstroms)
     ATOM                X               Y               Z
      1  F        -0.5075790822   -1.3283059825    0.1906274306
      2  F         1.9913844414    0.0207307350   -0.2396181340
      3  C        -0.4449840605   -0.0269450015   -0.3088281716
      4  C         0.7480236737    0.6609244353    0.3027891388
      5  C        -1.7542258781    0.6796406662    0.0116685914
      6  H        -0.2919929642   -0.0963924618   -1.3927818242
      7  H         0.7995135168    1.7172326261    0.0297634341
      8  H         0.7778892215    0.5315416197    1.3867437657
      9  H        -1.8904238778    0.7760438730    1.0933777891
     10  H        -1.7846478679    1.6777753305   -0.4358735444
     11  H        -2.5892561226    0.0981531599   -0.3861674754
   Point Group: c1    Number of degrees of freedom:    27


   Energy is   -317.603071671

              Constraints and their Current Values
                                        Value     Constraint
   Distance(Angs):        2   4             1.500000     1.500000
 Hessian Updated using BFGS Update

 26 Hessian modes will be used to form the next step
  Hessian Eigenvalues:
     0.003882    0.041392    0.053241    0.071227    0.081475    0.082926
     0.084173    0.084487    0.110314    0.157714    0.159968    0.160122
     0.162628    0.174127    0.179013    0.211907    0.239872    0.295102
     0.308687    0.339313    0.340889    0.342159    0.343104    0.343222
     0.345681    0.450634

 Minimum Search - Taking Simple RFO Step
 Searching for Lamda that Minimizes Along All modes
 Value Taken    Lamda =   0.00000000
 Step Taken.  Stepsize is  0.001369

                             Maximum     Tolerance    Cnvgd?
         Gradient           0.000030      0.000300     YES
         Displacement       0.000825      0.001200     YES
         Energy change     -0.000000      0.000001     YES


                       Distance Matrix (Angstroms)
             F (  1)   F (  2)   C (  3)   C (  4)   C (  5)   H (  6)
   F (  2)  2.872252
   C (  3)  1.395319  2.437818
   C (  4)  2.355028  1.500000  1.506820
   C (  5)  2.370233  3.811418  1.521872  2.519197
   H (  6)  2.017740  2.560726  1.096898  2.128409  2.170906
   H (  7)  3.318083  2.090751  2.169234  1.092237  2.756539  2.550345
   H (  8)  2.557764  2.092499  2.163860  1.092057  2.885199  3.043799
   H (  9)  2.674978  4.173226  2.168010  2.756753  1.094504  3.081739
   H ( 10)  3.325648  4.128285  2.171845  2.827372  1.094300  2.508259
   H ( 11)  2.588601  4.583638  2.149310  3.453811  1.092555  2.515659
             H (  7)   H (  8)   H (  9)   H ( 10)
   H (  8)  1.802145
   H (  9)  3.041854  2.695504
   H ( 10)  2.626074  3.346996  1.778459
   H ( 11)  3.778647  3.829975  1.771146  1.773435
 
 Final energy is   -317.603071670790     


 ******************************
 **  OPTIMIZATION CONVERGED  **
 ******************************

                       Coordinates (Angstroms)
     ATOM                X               Y               Z
      1  F        -0.5075790822   -1.3283059825    0.1906274306
      2  F         1.9913844414    0.0207307350   -0.2396181340
      3  C        -0.4449840605   -0.0269450015   -0.3088281716
      4  C         0.7480236737    0.6609244353    0.3027891388
      5  C        -1.7542258781    0.6796406662    0.0116685914
      6  H        -0.2919929642   -0.0963924618   -1.3927818242
      7  H         0.7995135168    1.7172326261    0.0297634341
      8  H         0.7778892215    0.5315416197    1.3867437657
      9  H        -1.8904238778    0.7760438730    1.0933777891
     10  H        -1.7846478679    1.6777753305   -0.4358735444
     11  H        -2.5892561226    0.0981531599   -0.3861674754

Z-matrix Print:
$molecule
0 1
F 
C  1 1.395319
H  2 1.096898 1 107.513744
C  2 1.506820 1 108.420584 3 -117.278439 0
H  4 1.092057 2 111.743693 1 -48.700479 0
H  4 1.092237 2 112.169567 1 -174.338485 0
F  4 1.500000 2 108.340812 1 68.444781 0
C  2 1.521872 1 108.605350 3 120.117364 0
H  8 1.092555 2 109.494520 1 -55.439862 0
H  8 1.094300 2 111.178507 1 -175.165336 0
H  8 1.094504 2 110.859535 1 63.814415 0
$end

PES scan, value:    1.5000 energy: -317.6030716708
------- Summary of potential scan: ------ 
    1.5000      -317.6030716708
----------------------------------------- 
Archival summary:
1\1\hpc0244\JobtypUnspecified\ProcedureUnspecified\6-31G**\236\knomura\WedMar1318:23:472019WedMar1318:23:472019\0\\#,JobtypUnspecified,ProcedureUnspecified,6-31G**,\\0,1\F\C,1,1.39532\H,2,1.0969,1,107.514\C,2,1.50682,1,108.421,3,-117.278,0\H,4,1.09206,2,111.744,1,-48.7005,0\H,4,1.09224,2,112.17,1,-174.338,0\F,4,1.5,2,108.341,1,68.4448,0\C,2,1.52187,1,108.605,3,120.117,0\H,8,1.09256,2,109.495,1,-55.4399,0\H,8,1.0943,2,111.179,1,-175.165,0\H,8,1.0945,2,110.86,1,63.8144,0\\\@

 Total job time:  29.19s(wall), 336.10s(cpu) 
 Wed Mar 13 18:23:47 2019

        *************************************************************
        *                                                           *
        *  Thank you very much for using Q-Chem.  Have a nice day.  *
        *                                                           *
        *************************************************************


