
Running Job 1 of 1 halogens/Flourine/03/F_2_4.xyz.data/inputs/bond_singlet_1.3.in
qchem halogens/Flourine/03/F_2_4.xyz.data/inputs/bond_singlet_1.3.in_3766.0 /staging/scratch/2868761/qchem3766/ 1
/usr/usc/qchem/5.1.1/exe/qcprog.exe_s halogens/Flourine/03/F_2_4.xyz.data/inputs/bond_singlet_1.3.in_3766.0 /staging/scratch/2868761/qchem3766/
Check license passed

                  Welcome to Q-Chem
     A Quantum Leap Into The Future Of Chemistry


 Q-Chem 5.1, Q-Chem, Inc., Pleasanton, CA (2018)

 Yihan Shao,  Zhengting Gan,  E. Epifanovsky,  A. T. B. Gilbert,  M. Wormit,  
 J. Kussmann,  A. W. Lange,  A. Behn,  Jia Deng,  Xintian Feng,  D. Ghosh,  
 M. Goldey,  P. R. Horn,  L. D. Jacobson,  I. Kaliman,  T. Kus,  A. Landau,  
 Jie Liu,  E. I. Proynov,  R. M. Richard,  R. P. Steele,  E. J. Sundstrom,  
 H. L. Woodcock III,  P. M. Zimmerman,  D. Zuev,  B. Albrecht,  E. Alguire,  
 S. A. Baeppler,  D. Barton,  Z. Benda,  Y. A. Bernard,  E. J. Berquist,  
 K. B. Bravaya,  H. Burton,  D. Casanova,  Chun-Min Chang,  Yunqing Chen,  
 A. Chien,  K. D. Closser,  M. P. Coons,  S. Coriani,  S. Dasgupta,  
 A. L. Dempwolff,  M. Diedenhofen,  Hainam Do,  R. G. Edgar,  Po-Tung Fang,  
 S. Faraji,  S. Fatehi,  Qingguo Feng,  K. D. Fenk,  J. Fosso-Tande,  
 Qinghui Ge,  A. Ghysels,  G. Gidofalvi,  J. Gomes,  J. Gonthier,  A. Gunina,  
 D. Hait,  M. W. D. Hanson-Heine,  P. H. P. Harbach,  A. W. Hauser,  
 J. E. Herr,  E. G. Hohenstein,  Z. C. Holden,  Kerwin Hui,  B. C. Huynh,  
 T.-C. Jagau,  Hyunjun Ji,  B. Kaduk,  K. Khistyaev,  Jaehoon Kim,  
 P. Klunzinger,  K. Koh,  D. Kosenkov,  L. Koulias,  T. Kowalczyk,  
 C. M. Krauter,  A. Kunitsa,  Ka Un Lao,  A. Laurent,  K. V. Lawler,  
 Joonho Lee,  D. Lefrancois,  S. Lehtola,  D. S. Levine,  Yi-Pei Li,  
 You-Sheng Lin,  Fenglai Liu,  E. Livshits,  A. Luenser,  P. Manohar,  
 E. Mansoor,  S. F. Manzer,  Shan-Ping Mao,  Yuezhi Mao,  N. Mardirossian,  
 A. V. Marenich,  T. Markovich,  L. A. Martinez-Martinez,  S. A. Maurer,  
 N. J. Mayhall,  S. C. McKenzie,  J.-M. Mewes,  A. F. Morrison,  
 J. W. Mullinax,  K. Nanda,  T. S. Nguyen-Beck,  R. Olivares-Amaya,  
 J. A. Parkhill,  T. M. Perrine,  F. Plasser,  P. Pokhilko,  S. Prager,  
 A. Prociuk,  E. Ramos,  D. R. Rehn,  F. Rob,  M. Schneider,  N. Sergueev,  
 S. M. Sharada,  S. Sharma,  D. W. Small,  T. Stauch,  T. Stein,  
 Yu-Chuan Su,  A. J. W. Thom,  A. Tkatchenko,  T. Tsuchimochi,  N. M. Tubman,  
 L. Vogt,  M. L. Vidal,  O. Vydrov,  M. A. Watson,  J. Wenzel,  
 M. de Wergifosse,  T. A. Wesolowski,  A. White,  J. Witte,  A. Yamada,  
 Jun Yang,  K. Yao,  S. Yeganeh,  S. R. Yost,  Zhi-Qiang You,  A. Zech,  
 Igor Ying Zhang,  Xing Zhang,  Yan Zhao,  Ying Zhu,  B. R. Brooks,  
 G. K. L. Chan,  C. J. Cramer,  M. S. Gordon,  W. J. Hehre,  A. Klamt,  
 M. W. Schmidt,  C. D. Sherrill,  D. G. Truhlar,  A. Aspuru-Guzik,  R. Baer,  
 A. T. Bell,  N. A. Besley,  Jeng-Da Chai,  A. E. DePrince, III,  
 R. A. DiStasio Jr.,  A. Dreuw,  B. D. Dunietz,  T. R. Furlani,  
 Chao-Ping Hsu,  Yousung Jung,  Jing Kong,  D. S. Lambrecht,  WanZhen Liang,  
 C. Ochsenfeld,  V. A. Rassolov,  L. V. Slipchenko,  J. E. Subotnik,  
 T. Van Voorhis,  J. M. Herbert,  A. I. Krylov,  P. M. W. Gill,  M. Head-Gordon

 Contributors to earlier versions of Q-Chem not listed above: 
 R. D. Adamson,  B. Austin,  J. Baker,  G. J. O. Beran,  K. Brandhorst,  
 S. T. Brown,  E. F. C. Byrd,  A. K. Chakraborty,  C.-L. Cheng,  
 Siu Hung Chien,  D. M. Chipman,  D. L. Crittenden,  H. Dachsel,  
 R. J. Doerksen,  A. D. Dutoi,  L. Fusti-Molnar,  W. A. Goddard III,  
 A. Golubeva-Zadorozhnaya,  S. R. Gwaltney,  G. Hawkins,  A. Heyden,  
 S. Hirata,  G. Kedziora,  F. J. Keil,  C. Kelley,  Jihan Kim,  R. A. King,  
 R. Z. Khaliullin,  P. P. Korambath,  W. Kurlancheek,  A. M. Lee,  M. S. Lee,  
 S. V. Levchenko,  Ching Yeh Lin,  D. Liotard,  R. C. Lochan,  I. Lotan,  
 P. E. Maslen,  N. Nair,  D. P. O'Neill,  D. Neuhauser,  E. Neuscamman,  
 C. M. Oana,  R. Olson,  B. Peters,  R. Peverati,  P. A. Pieniazek,  
 Y. M. Rhee,  J. Ritchie,  M. A. Rohrdanz,  E. Rosta,  N. J. Russ,  
 H. F. Schaefer III,  N. E. Schultz,  N. Shenvi,  A. C. Simmonett,  A. Sodt,  
 D. Stuck,  K. S. Thanthiriwatte,  V. Vanovschi,  Tao Wang,  A. Warshel,  
 C. F. Williams,  Q. Wu,  X. Xu,  W. Zhang

 Please cite Q-Chem as follows:
 Y. Shao et al., Mol. Phys. 113, 184-215 (2015)
 DOI: 10.1080/00268976.2014.952696

 Q-Chem 5.1.1 for Intel X86 EM64T Linux

 Parts of Q-Chem use Armadillo 8.300.2 (Tropical Shenanigans).
 http://arma.sourceforge.net/

 Q-Chem begins on Wed Mar 13 18:22:26 2019  

Host: 
0

     Scratch files written to /staging/scratch/2868761/qchem3766//
 Aug318 |scratch|qcdevops|jenkins|workspace|build_RNUM 6013   
Processing $rem in /usr/usc/qchem/5.1.1/config/preferences.
 MEM_TOTAL  2000 
Input Ideriv = 2
Curr. Ideriv = -1
Max.  Ideriv = 2

Checking the input file for inconsistencies... 	...done.

--------------------------------------------------------------
User input:
--------------------------------------------------------------

$comment
potential surface scanner
$end

$rem
JOBTYPE  PES_SCAN
UNRESTRICTED TRUE
SYM_IGNORE  TRUE
GEOM_OPT_MAX_CYCLES 400
SCF_MAX_CYCLES 400
METHOD   B3LYP
BASIS   6-31G**
PDB_PRINT 2
SCF_CONVERGENCE 6
THRESH 14
SCF_PRINT 1
$end
$molecule
0 1
F -0.486400 -1.298900 0.159500
F 1.889200 0.001700 -0.126500
C -0.435600 -0.028600 -0.332400
C 0.768200 0.660400 0.276200
C -1.735300 0.665500 0.023300
H -0.320900 -0.108600 -1.417700
H 0.851700 1.700600 -0.050500
H 0.742100 0.621000 1.368800
H -1.880200 0.688200 1.108400
H -1.756200 1.691300 -0.356400
H -2.582900 0.117800 -0.401000
$end
$scan
stre 2 4 1.300000 1.301000 0.100000
$end
--------------------------------------------------------------
 ----------------------------------------------------------------
             Standard Nuclear Orientation (Angstroms)
    I     Atom           X                Y                Z
 ----------------------------------------------------------------
    1      F      -0.4864000000    -1.2989000000     0.1595000000
    2      F       1.8892000000     0.0017000000    -0.1265000000
    3      C      -0.4356000000    -0.0286000000    -0.3324000000
    4      C       0.7682000000     0.6604000000     0.2762000000
    5      C      -1.7353000000     0.6655000000     0.0233000000
    6      H      -0.3209000000    -0.1086000000    -1.4177000000
    7      H       0.8517000000     1.7006000000    -0.0505000000
    8      H       0.7421000000     0.6210000000     1.3688000000
    9      H      -1.8802000000     0.6882000000     1.1084000000
   10      H      -1.7562000000     1.6913000000    -0.3564000000
   11      H      -2.5829000000     0.1178000000    -0.4010000000
 ----------------------------------------------------------------
 Nuclear Repulsion Energy =   192.1347219537 hartrees
 There are       21 alpha and       21 beta electrons
 Requested basis set is 6-31G(d,p)
 There are 38 shells and 105 basis functions

 Total QAlloc Memory Limit   2000 MB
 Mega-Array Size       188 MB
 MEM_STATIC part       192 MB
A total of 1 constraints
  
            1
    1   1.0100000
    2   2.0100000
    3   4.0100000
    4   1.3000000
    5   1.3010000
    6   0.1000000
    7   0.0000000
    8   0.0000000
    9   0.0000000
   10   0.0000000

                       Distance Matrix (Angstroms)
             F (  1)   F (  2)   C (  3)   C (  4)   C (  5)   H (  6)
   F (  2)  2.723386
   C (  3)  1.363161  2.334097
   C (  4)  2.329484  1.361137  1.514678
   C (  5)  2.331774  3.687827  1.515756  2.516247
   H (  6)  1.982868  2.562012  1.094272  2.155643  2.162461
   H (  7)  3.291141  1.992095  2.174107  1.093490  2.787373  2.552926
   H (  8)  2.580239  1.983757  2.168649  1.093622  2.819550  3.070320
   H (  9)  2.606081  4.025498  2.162539  2.776212  1.094967  3.073677
   H ( 10)  3.289353  4.024493  2.168552  2.799202  1.094018  2.534972
   H ( 11)  2.591623  4.482021  2.153378  3.461631  1.094729  2.490297
             H (  7)   H (  8)   H (  9)   H ( 10)
   H (  8)  1.786606
   H (  9)  3.135487  2.636054
   H ( 10)  2.625796  3.219217  1.779670
   H ( 11)  3.797971  3.800135  1.759952  1.778011
 
 A cutoff of  1.0D-14 yielded    720 shell pairs
 There are      5627 function pairs
 
 -------------------------------------------------------
 OpenMP Integral Computing Module                       
 Release: version 1.0, May 2013, Q-Chem Inc. Pittsburgh 
 -------------------------------------------------------
 Integral Job Info:
 Integral job number is                      11
 Integral operator is                         1
 short-range coefficients                     0
 long-range coefficients              100000000
 Omega coefficients                           0
 if combine SR and LR in K                    0
 Integral screening is                        0
 Integral computing path is                   2
 max size of driver memory is            800000
 size of driver memory is                593474
 size of scratch memory is              2361544
 max col of scratch BK array               1296
 max len of scratch array in speh3          155
 max len of scratch index in speh4           18
 max int batch size is                      520
 min int batch size is                       52
 fixed nKL is                                52
 max L of basis functions is                  2
 order of int derivative is                   0
 number of shells is                         38
 number of basis is                         105
 number of cartesian basis is               105
 number of contracted shell pairs           720
 number of primitive shell pairs           2672
 maxK2 (contraction) of shell pair           36
 max number of K2 of shell pair               1
 max number of CS2 of shell pair             62
 max number of PS2 of shell pair            246
 mem total for path MDJ                  519084
 -------------------------------------------------------
 Smallest overlap matrix eigenvalue = 3.28E-03

 Scale SEOQF with 1.000000e-01/1.000000e-01/1.000000e+00

 Standard Electronic Orientation quadrupole field applied
 Nucleus-field energy     =    -0.0000000029 hartrees
 Guess from superposition of atomic densities
 Warning:  Energy on first SCF cycle will be non-variational
 SAD guess density has 42.000000 electrons

 -----------------------------------------------------------------------
  General SCF calculation program by
  Eric Jon Sundstrom, Paul Horn, Yuezhi Mao, Dmitri Zuev, Alec White,
  David Stuck, Shaama M.S., Shane Yost, Joonho Lee, David Small,
  Daniel Levine, Susi Lehtola, Hugh Burton, Evgeny Epifanovsky
 -----------------------------------------------------------------------
 Exchange:     0.2000 Hartree-Fock + 0.0800 Slater + 0.7200 B88
 Correlation:  0.1900 VWN1RPA + 0.8100 LYP
 Using SG-1 standard quadrature grid
 using 12 threads for integral computing
 -------------------------------------------------------
 OpenMP Integral computing Module                
 Release: version 1.0, May 2013, Q-Chem Inc. Pittsburgh 
 -------------------------------------------------------
 -------------------------------------------------------
 OpenMP BLAS3 based DFT computing Module                
 Release: version 1.0, May 2013, Q-Chem Inc. Pittsburgh 
 -------------------------------------------------------
 A unrestricted SCF calculation will be
 performed using DIIS
 SCF converges when DIIS error is below 1.0e-06
 Alpha HF Exchange    Energy =  -3.79204471419278
 Beta HF Exchange     Energy =  -3.79204471419278
 DFT Correlation      Energy =  -1.85855766612101
 DFT Exchange         Energy = -29.67659817107451
 One-Electron (alpha) Energy = -407.45039050700956
 One-Electron (beta)  Energy = -407.45039050700956
 Total Coulomb        Energy = 343.63647256145191
 ---------------------------------------
  Cycle       Energy         DIIS error
 ---------------------------------------
    1    -318.2488317674      3.24e-02  
 Alpha HF Exchange    Energy =  -3.82233087723281
 Beta HF Exchange     Energy =  -3.82233087723281
 DFT Correlation      Energy =  -1.88331707906225
 DFT Exchange         Energy = -30.36980697835382
 One-Electron (alpha) Energy = -410.67174124900100
 One-Electron (beta)  Energy = -410.67174124900095
 Total Coulomb        Energy = 351.56441083182852
    2    -317.5421355273      3.69e-03  
 Alpha HF Exchange    Energy =  -3.75001015992327
 Beta HF Exchange     Energy =  -3.75001015992327
 DFT Correlation      Energy =  -1.86137912578709
 DFT Exchange         Energy = -29.79381884519564
 One-Electron (alpha) Energy = -407.49883684900419
 One-Electron (beta)  Energy = -407.49883684900442
 Total Coulomb        Energy = 344.48190615134223
    3    -317.5362638867      4.02e-03  
 Alpha HF Exchange    Energy =  -3.78805441808922
 Beta HF Exchange     Energy =  -3.78805441808922
 DFT Correlation      Energy =  -1.87225361837682
 DFT Exchange         Energy = -30.09241715338987
 One-Electron (alpha) Energy = -409.12599303817620
 One-Electron (beta)  Energy = -409.12599303817615
 Total Coulomb        Energy = 348.05185954410268
    4    -317.6061841894      4.54e-04  
 Alpha HF Exchange    Energy =  -3.78639761129064
 Beta HF Exchange     Energy =  -3.78639761129063
 DFT Correlation      Energy =  -1.87258215426006
 DFT Exchange         Energy = -30.08227124291858
 One-Electron (alpha) Energy = -409.15847828678795
 One-Electron (beta)  Energy = -409.15847828678778
 Total Coulomb        Energy = 348.10304878396630
    5    -317.6068344586      2.10e-04  
 Alpha HF Exchange    Energy =  -3.78678154737912
 Beta HF Exchange     Energy =  -3.78678154737912
 DFT Correlation      Energy =  -1.87236544179638
 DFT Exchange         Energy = -30.08414694569584
 One-Electron (alpha) Energy = -409.13131470552565
 One-Electron (beta)  Energy = -409.13131470552554
 Total Coulomb        Energy = 348.05095515639664
    6    -317.6070277861      2.63e-05  
 Alpha HF Exchange    Energy =  -3.78666834792539
 Beta HF Exchange     Energy =  -3.78666834792540
 DFT Correlation      Energy =  -1.87235138965975
 DFT Exchange         Energy = -30.08326480520493
 One-Electron (alpha) Energy = -409.12711931017174
 One-Electron (beta)  Energy = -409.12711931017191
 Total Coulomb        Energy = 348.04143912925008
    7    -317.6070304310      1.10e-05  
 Alpha HF Exchange    Energy =  -3.78671664435523
 Beta HF Exchange     Energy =  -3.78671664435522
 DFT Correlation      Energy =  -1.87236712873601
 DFT Exchange         Energy = -30.08366149407534
 One-Electron (alpha) Energy = -409.13049445057749
 One-Electron (beta)  Energy = -409.13049445057720
 Total Coulomb        Energy = 348.04869783067397
    8    -317.6070310312      9.75e-07  Convergence criterion met
 ---------------------------------------
 SCF time:   CPU 19.53s  wall 2.00s 
<S^2> =          0.000000000
 Alpha HF Exchange    Energy =  -3.78671664435523
 Beta HF Exchange     Energy =  -3.78671664435522
 DFT Correlation      Energy =  -1.87236712873601
 DFT Exchange         Energy = -30.08366149407534
 One-Electron (alpha) Energy = -409.13049445057749
 One-Electron (beta)  Energy = -409.13049445057720
 Total Coulomb        Energy = 348.04869783067397
 Nuclear repulsion Energy = 192.13472195078685
 SCF   energy in the final basis set =     -317.6070310312
 Total energy in the final basis set =     -317.6070310312
 
 --------------------------------------------------------------
 
                    Orbital Energies (a.u.)
 --------------------------------------------------------------
 
 Alpha MOs
 -- Occupied --
-24.674 -24.673 -10.265 -10.260 -10.191  -1.199  -1.184  -0.791
 -0.698  -0.613  -0.526  -0.502  -0.497  -0.463  -0.445  -0.408
 -0.397  -0.378  -0.337  -0.331  -0.312
 -- Virtual --
  0.091   0.103   0.114   0.150   0.166   0.179   0.181   0.199
  0.239   0.258   0.512   0.529   0.539   0.558   0.591   0.618
  0.641   0.662   0.715   0.796   0.847   0.861   0.869   0.893
  0.913   0.942   1.080   1.144   1.194   1.208   1.292   1.374
  1.387   1.389   1.414   1.416   1.526   1.609   1.638   1.740
  1.752   1.803   1.810   1.848   1.895   1.948   1.993   2.013
  2.023   2.029   2.058   2.071   2.086   2.105   2.122   2.212
  2.241   2.302   2.326   2.394   2.446   2.487   2.633   2.693
  2.696   2.734   2.796   2.841   2.893   2.912   2.919   3.068
  3.125   3.180   3.244   3.315   3.438   3.476   3.486   4.211
  4.316   4.496   4.600   4.652
 
 Beta MOs
 -- Occupied --
-24.674 -24.673 -10.265 -10.260 -10.191  -1.199  -1.184  -0.791
 -0.698  -0.613  -0.526  -0.502  -0.497  -0.463  -0.445  -0.408
 -0.397  -0.378  -0.337  -0.331  -0.312
 -- Virtual --
  0.091   0.103   0.114   0.150   0.166   0.179   0.181   0.199
  0.239   0.258   0.512   0.529   0.539   0.558   0.591   0.618
  0.641   0.662   0.715   0.796   0.847   0.861   0.869   0.893
  0.913   0.942   1.080   1.144   1.194   1.208   1.292   1.374
  1.387   1.389   1.414   1.416   1.526   1.609   1.638   1.740
  1.752   1.803   1.810   1.848   1.895   1.948   1.993   2.013
  2.023   2.029   2.058   2.071   2.086   2.105   2.122   2.212
  2.241   2.302   2.326   2.394   2.446   2.487   2.633   2.693
  2.696   2.734   2.796   2.841   2.893   2.912   2.919   3.068
  3.125   3.180   3.244   3.315   3.438   3.476   3.486   4.211
  4.316   4.496   4.600   4.652
 --------------------------------------------------------------
 
          Ground-State Mulliken Net Atomic Charges

     Atom                 Charge (a.u.)    Spin (a.u.)
  --------------------------------------------------------
      1 F                    -0.311107       0.000000
      2 F                    -0.310193       0.000000
      3 C                     0.217758      -0.000000
      4 C                     0.133750       0.000000
      5 C                    -0.354811       0.000000
      6 H                     0.092573      -0.000000
      7 H                     0.084019      -0.000000
      8 H                     0.096168      -0.000000
      9 H                     0.119163       0.000000
     10 H                     0.106905      -0.000000
     11 H                     0.125775       0.000000
  --------------------------------------------------------
  Sum of atomic charges =     0.000000
  Sum of spin   charges =     0.000000

 -----------------------------------------------------------------
                    Cartesian Multipole Moments
 -----------------------------------------------------------------
    Charge (ESU x 10^10)
                -0.0000
    Dipole Moment (Debye)
         X      -1.4030      Y       2.0805      Z      -0.0638
       Tot       2.5102
    Quadrupole Moments (Debye-Ang)
        XX     -31.2948     XY       0.0130     YY     -29.8409
        XZ       0.8793     YZ       0.4749     ZZ     -27.7222
    Octopole Moments (Debye-Ang^2)
       XXX       4.4486    XXY      -3.6994    XYY       5.8805
       YYY      -8.3796    XXZ       0.1553    XYZ      -0.0977
       YYZ      -0.9433    XZZ       4.2132    YZZ      -3.9593
       ZZZ      -0.0582
    Hexadecapole Moments (Debye-Ang^3)
      XXXX    -322.3678   XXXY       8.8791   XXYY     -73.5927
      XYYY       6.1078   YYYY    -127.5276   XXXZ      -0.2002
      XXYZ      -0.1554   XYYZ      -0.2931   YYYZ      -4.1810
      XXZZ     -60.6447   XYZZ       2.4281   YYZZ     -30.9785
      XZZZ      -2.8213   YZZZ      -1.5534   ZZZZ     -52.3679
 -----------------------------------------------------------------
 Calculating analytic gradient of the SCF energy
 Gradient of SCF Energy
            1           2           3           4           5           6
    1  -0.0007120  -0.0212058   0.0063730   0.0048296   0.0058588  -0.0029890
    2   0.0245443   0.0106685  -0.0195959  -0.0036954  -0.0019710  -0.0031373
    3  -0.0087922   0.0073340  -0.0005564   0.0001915   0.0007879   0.0026986
            7           8           9          10          11
    1   0.0040297   0.0057274  -0.0017139   0.0008544  -0.0010522
    2  -0.0035753  -0.0012543  -0.0007729  -0.0002788  -0.0009319
    3   0.0000155  -0.0026150  -0.0000706   0.0001621   0.0008447
 Max gradient component =       2.454E-02
 RMS gradient           =       7.591E-03
 Gradient time:  CPU 8.58 s  wall 0.77 s
 Geometry Optimization Parameters
   NAtoms,    NIC,     NZ,  NCons,   NDum,   NFix, NCnnct, MaxDiis
       11      68       0       1       0       0       0       0


** CONSTRAINED OPTIMIZATION IN DELOCALIZED INTERNAL COORDINATES **
   Searching for a Minimum

   Optimization Cycle:   1

                       Coordinates (Angstroms)
     ATOM                X               Y               Z
      1  F        -0.4864000000   -1.2989000000    0.1595000000
      2  F         1.8892000000    0.0017000000   -0.1265000000
      3  C        -0.4356000000   -0.0286000000   -0.3324000000
      4  C         0.7682000000    0.6604000000    0.2762000000
      5  C        -1.7353000000    0.6655000000    0.0233000000
      6  H        -0.3209000000   -0.1086000000   -1.4177000000
      7  H         0.8517000000    1.7006000000   -0.0505000000
      8  H         0.7421000000    0.6210000000    1.3688000000
      9  H        -1.8802000000    0.6882000000    1.1084000000
     10  H        -1.7562000000    1.6913000000   -0.3564000000
     11  H        -2.5829000000    0.1178000000   -0.4010000000
   Point Group: c1    Number of degrees of freedom:    27


   Energy is   -317.607031031

              Constraints and their Current Values
                                        Value     Constraint
   Distance(Angs):        2   4             1.361137     1.300000

 Attempting to Generate Delocalized Internal Coordinates

   Using Lagrange Multiplier Algorithm


 28 Hessian modes will be used to form the next step
  Hessian Eigenvalues:
    -0.770565    0.045000    0.045000    0.073792    0.082489    0.083926
     0.083980    0.084052    0.085207    0.112759    0.160000    0.160000
     0.160000    0.160000    0.160000    0.177486    0.223461    0.231280
     0.307790    0.308850    0.342449    0.342718    0.343235    0.343524
     0.343974    0.344124    0.523137    1.297749

 Minimum Search - Taking P-RFO Step
 Searching for Lamda that Maximizes Along the Constraint modes Only
 Value Taken    Lamda =   0.01448825
 Searching for Lamda that Minimizes Along All other modes
 Value Taken    Lamda =  -0.00487292
 Step Taken.  Stepsize is  0.169670

                             Maximum     Tolerance    Cnvgd?
         Gradient            0.115532       0.000300      NO
         Displacement        0.113857       0.001200      NO
         Energy change     *********       0.000001      NO


 New Cartesian Coordinates Obtained by Inverse Iteration

 Displacement from previous Coordinates is:  0.138417
 ----------------------------------------------------------------
             Standard Nuclear Orientation (Angstroms)
    I     Atom           X                Y                Z
 ----------------------------------------------------------------
    1      F      -0.4787302922    -1.3340236748     0.1683946496
    2      F       1.8698466101     0.0335053109    -0.1192436325
    3      C      -0.4333245537    -0.0362300042    -0.3252145282
    4      C       0.7883171859     0.6456829570     0.2652538254
    5      C      -1.7360377833     0.6722775277     0.0256454475
    6      H      -0.3067127659    -0.1006686970    -1.4144574811
    7      H       0.8341272883     1.6927884455    -0.0626081862
    8      H       0.7274395506     0.6086348642     1.3606624250
    9      H      -1.8743597796     0.6973676161     1.1113335186
   10      H      -1.7531153242     1.6988477254    -0.3536185713
   11      H      -2.5837501361     0.1322179293    -0.4044474667
 ----------------------------------------------------------------
 Nuclear Repulsion Energy =   192.3306938177 hartrees
 There are       21 alpha and       21 beta electrons

                       Distance Matrix (Angstroms)
             F (  1)   F (  2)   C (  3)   C (  4)   C (  5)   H (  6)
   F (  2)  2.732889
   C (  3)  1.389237  2.313414
   C (  4)  2.352452  1.300886  1.518574
   C (  5)  2.372013  3.664891  1.523859  2.535841
   H (  6)  2.013995  2.536334  1.098469  2.139524  2.171247
   H (  7)  3.307348  1.956820  2.159838  1.098190  2.766763  2.519028
   H (  8)  2.578812  1.956014  2.146021  1.097724  2.802685  3.045303
   H (  9)  2.638838  3.996763  2.162965  2.794346  1.094752  3.077986
   H ( 10)  3.330895  3.994265  2.180172  2.819759  1.094522  2.540811
   H ( 11)  2.628521  4.463811  2.158468  3.476059  1.093280  2.501850
             H (  7)   H (  8)   H (  9)   H ( 10)
   H (  8)  1.792337
   H (  9)  3.115269  2.615224
   H ( 10)  2.603564  3.206318  1.778693
   H ( 11)  3.772813  3.782402  1.766415  1.773941
 
 Applying Cartesian multipole field
    Component          Value
    ---------          -----
     (2,0,0)        1.00000E-11
     (0,2,0)        2.00000E-11
     (0,0,2)       -3.00000E-10
 Nucleus-field energy     =    -0.0000000028 hartrees
 Requested basis set is 6-31G(d,p)
 There are 38 shells and 105 basis functions
 A cutoff of  1.0D-14 yielded    720 shell pairs
 There are      5627 function pairs
 Smallest overlap matrix eigenvalue = 3.31E-03
 Guess from superposition of atomic densities
 Warning:  Energy on first SCF cycle will be non-variational
 SAD guess density has 42.000000 electrons

 -----------------------------------------------------------------------
  General SCF calculation program by
  Eric Jon Sundstrom, Paul Horn, Yuezhi Mao, Dmitri Zuev, Alec White,
  David Stuck, Shaama M.S., Shane Yost, Joonho Lee, David Small,
  Daniel Levine, Susi Lehtola, Hugh Burton, Evgeny Epifanovsky
 -----------------------------------------------------------------------
 Exchange:     0.2000 Hartree-Fock + 0.0800 Slater + 0.7200 B88
 Correlation:  0.1900 VWN1RPA + 0.8100 LYP
 Using SG-1 standard quadrature grid
 using 12 threads for integral computing
 -------------------------------------------------------
 OpenMP Integral computing Module                
 Release: version 1.0, May 2013, Q-Chem Inc. Pittsburgh 
 -------------------------------------------------------
 -------------------------------------------------------
 OpenMP BLAS3 based DFT computing Module                
 Release: version 1.0, May 2013, Q-Chem Inc. Pittsburgh 
 -------------------------------------------------------
 A unrestricted SCF calculation will be
 performed using DIIS
 SCF converges when DIIS error is below 1.0e-06
 Alpha HF Exchange    Energy =  -3.79504223356026
 Beta HF Exchange     Energy =  -3.79504223356026
 DFT Correlation      Energy =  -1.85910167510997
 DFT Exchange         Energy = -29.68352263300141
 One-Electron (alpha) Energy = -407.62561189002008
 One-Electron (beta)  Energy = -407.62561189002008
 Total Coulomb        Energy = 343.76752782478582
 ---------------------------------------
  Cycle       Energy         DIIS error
 ---------------------------------------
    1    -318.2857109156      3.28e-02  
 Alpha HF Exchange    Energy =  -3.82279829392517
 Beta HF Exchange     Energy =  -3.82279829392516
 DFT Correlation      Energy =  -1.88370453272985
 DFT Exchange         Energy = -30.37325294583766
 One-Electron (alpha) Energy = -410.81185015286525
 One-Electron (beta)  Energy = -410.81185015286491
 Total Coulomb        Energy = 351.65647770405133
    2    -317.5390828532      3.67e-03  
 Alpha HF Exchange    Energy =  -3.75126980655515
 Beta HF Exchange     Energy =  -3.75126980655515
 DFT Correlation      Energy =  -1.86180232443715
 DFT Exchange         Energy = -29.80272928094428
 One-Electron (alpha) Energy = -407.65473388226218
 One-Electron (beta)  Energy = -407.65473388226241
 Total Coulomb        Energy = 344.61215402794812
    3    -317.5336911402      3.98e-03  
 Alpha HF Exchange    Energy =  -3.78882209473325
 Beta HF Exchange     Energy =  -3.78882209473325
 DFT Correlation      Energy =  -1.87268548855285
 DFT Exchange         Energy = -30.09790630470434
 One-Electron (alpha) Energy = -409.27401132172810
 One-Electron (beta)  Energy = -409.27401132172810
 Total Coulomb        Energy = 348.16305244707661
    4    -317.6025123642      4.50e-04  
 Alpha HF Exchange    Energy =  -3.78720950420731
 Beta HF Exchange     Energy =  -3.78720950420731
 DFT Correlation      Energy =  -1.87299308803661
 DFT Exchange         Energy = -30.08801623580038
 One-Electron (alpha) Energy = -409.30601519289218
 One-Electron (beta)  Energy = -409.30601519289246
 Total Coulomb        Energy = 348.21362737579898
    5    -317.6031375273      2.11e-04  
 Alpha HF Exchange    Energy =  -3.78755478251301
 Beta HF Exchange     Energy =  -3.78755478251301
 DFT Correlation      Energy =  -1.87277506975365
 DFT Exchange         Energy = -30.08961634034623
 One-Electron (alpha) Energy = -409.27797557927460
 One-Electron (beta)  Energy = -409.27797557927477
 Total Coulomb        Energy = 348.15942811122306
    6    -317.6033302075      2.63e-05  
 Alpha HF Exchange    Energy =  -3.78745300077982
 Beta HF Exchange     Energy =  -3.78745300077982
 DFT Correlation      Energy =  -1.87275980813794
 DFT Exchange         Energy = -30.08881428919675
 One-Electron (alpha) Energy = -409.27362091088924
 One-Electron (beta)  Energy = -409.27362091088924
 Total Coulomb        Energy = 348.14969536949923
    7    -317.6033327363      1.17e-05  
 Alpha HF Exchange    Energy =  -3.78749570930510
 Beta HF Exchange     Energy =  -3.78749570930510
 DFT Correlation      Energy =  -1.87277602693459
 DFT Exchange         Energy = -30.08917157700852
 One-Electron (alpha) Energy = -409.27703452356087
 One-Electron (beta)  Energy = -409.27703452356093
 Total Coulomb        Energy = 348.15698086580653
    8    -317.6033333890      1.29e-06  
 Alpha HF Exchange    Energy =  -3.78749634760865
 Beta HF Exchange     Energy =  -3.78749634760865
 DFT Correlation      Energy =  -1.87277569048646
 DFT Exchange         Energy = -30.08917501006518
 One-Electron (alpha) Energy = -409.27696777047851
 One-Electron (beta)  Energy = -409.27696777047862
 Total Coulomb        Energy = 348.15685172707532
    9    -317.6033333947      5.99e-07  Convergence criterion met
 ---------------------------------------
 SCF time:   CPU 21.76s  wall 2.00s 
<S^2> =         -0.000000000
 Alpha HF Exchange    Energy =  -3.78749634760865
 Beta HF Exchange     Energy =  -3.78749634760865
 DFT Correlation      Energy =  -1.87277569048646
 DFT Exchange         Energy = -30.08917501006518
 One-Electron (alpha) Energy = -409.27696777047851
 One-Electron (beta)  Energy = -409.27696777047862
 Total Coulomb        Energy = 348.15685172707532
 Nuclear repulsion Energy = 192.33069381491057
 SCF   energy in the final basis set =     -317.6033333947
 Total energy in the final basis set =     -317.6033333947
 
 --------------------------------------------------------------
 
                    Orbital Energies (a.u.)
 --------------------------------------------------------------
 
 Alpha MOs
 -- Occupied --
-24.684 -24.670 -10.264 -10.259 -10.191  -1.224  -1.178  -0.789
 -0.697  -0.612  -0.528  -0.515  -0.500  -0.469  -0.442  -0.410
 -0.397  -0.380  -0.337  -0.330  -0.309
 -- Virtual --
  0.092   0.106   0.118   0.148   0.168   0.181   0.185   0.206
  0.235   0.261   0.520   0.529   0.545   0.556   0.590   0.614
  0.643   0.664   0.707   0.796   0.848   0.863   0.871   0.892
  0.909   0.944   1.079   1.136   1.197   1.209   1.296   1.374
  1.382   1.390   1.412   1.418   1.526   1.621   1.632   1.731
  1.751   1.788   1.813   1.842   1.895   1.936   2.000   2.017
  2.028   2.035   2.062   2.076   2.097   2.109   2.119   2.212
  2.245   2.303   2.330   2.387   2.451   2.498   2.634   2.681
  2.703   2.734   2.785   2.853   2.904   2.916   2.935   3.099
  3.119   3.177   3.246   3.305   3.440   3.468   3.492   4.193
  4.350   4.488   4.622   4.687
 
 Beta MOs
 -- Occupied --
-24.684 -24.670 -10.264 -10.259 -10.191  -1.224  -1.178  -0.789
 -0.697  -0.612  -0.528  -0.515  -0.500  -0.469  -0.442  -0.410
 -0.397  -0.380  -0.337  -0.330  -0.309
 -- Virtual --
  0.092   0.106   0.118   0.148   0.168   0.181   0.185   0.206
  0.235   0.261   0.520   0.529   0.545   0.556   0.590   0.614
  0.643   0.664   0.707   0.796   0.848   0.863   0.871   0.892
  0.909   0.944   1.079   1.136   1.197   1.209   1.296   1.374
  1.382   1.390   1.412   1.418   1.526   1.621   1.632   1.731
  1.751   1.788   1.813   1.842   1.895   1.936   2.000   2.017
  2.028   2.035   2.062   2.076   2.097   2.109   2.119   2.212
  2.245   2.303   2.330   2.387   2.451   2.498   2.634   2.681
  2.703   2.734   2.785   2.853   2.904   2.916   2.935   3.099
  3.119   3.177   3.246   3.305   3.440   3.468   3.492   4.193
  4.350   4.488   4.622   4.687
 --------------------------------------------------------------
 
          Ground-State Mulliken Net Atomic Charges

     Atom                 Charge (a.u.)    Spin (a.u.)
  --------------------------------------------------------
      1 F                    -0.321553       0.000000
      2 F                    -0.273779       0.000000
      3 C                     0.206527       0.000000
      4 C                     0.140363      -0.000000
      5 C                    -0.353553       0.000000
      6 H                     0.091570      -0.000000
      7 H                     0.071429       0.000000
      8 H                     0.083410       0.000000
      9 H                     0.120157      -0.000000
     10 H                     0.108800       0.000000
     11 H                     0.126629      -0.000000
  --------------------------------------------------------
  Sum of atomic charges =    -0.000000
  Sum of spin   charges =     0.000000

 -----------------------------------------------------------------
                    Cartesian Multipole Moments
 -----------------------------------------------------------------
    Charge (ESU x 10^10)
                -0.0000
    Dipole Moment (Debye)
         X      -1.1923      Y       2.0559      Z      -0.1575
       Tot       2.3818
    Quadrupole Moments (Debye-Ang)
        XX     -30.7740     XY      -0.2187     YY     -30.1620
        XZ       0.7717     YZ       0.3987     ZZ     -27.8790
    Octopole Moments (Debye-Ang^2)
       XXX       5.4595    XXY      -3.5947    XYY       5.7413
       YYY      -8.1801    XXZ      -0.0923    XYZ      -0.1464
       YYZ      -1.0810    XZZ       4.1969    YZZ      -3.9131
       ZZZ      -0.4493
    Hexadecapole Moments (Debye-Ang^3)
      XXXX    -317.5341   XXXY       7.8922   XXYY     -73.6440
      XYYY       4.8501   YYYY    -131.2500   XXXZ      -0.0246
      XXYZ      -0.1213   XYYZ      -0.3006   YYYZ      -3.7412
      XXZZ     -60.2250   XYZZ       2.0754   YYZZ     -31.5431
      XZZZ      -3.0891   YZZZ      -1.2895   ZZZZ     -52.7464
 -----------------------------------------------------------------
 Calculating analytic gradient of the SCF energy
 Gradient of SCF Energy
            1           2           3           4           5           6
    1   0.0002352  -0.0645348   0.0060643   0.0517911   0.0001587  -0.0002932
    2   0.0048061   0.0360951  -0.0096961  -0.0275819   0.0025059   0.0005923
    3  -0.0015777   0.0228698   0.0010575  -0.0186543  -0.0001639   0.0001453
            7           8           9          10          11
    1   0.0043809   0.0035192  -0.0004553  -0.0006081  -0.0002580
    2  -0.0032612  -0.0030437  -0.0006175   0.0003875  -0.0001864
    3  -0.0016533  -0.0025574  -0.0000262   0.0003300   0.0002302
 Max gradient component =       6.453E-02
 RMS gradient           =       1.741E-02
 Gradient time:  CPU 8.54 s  wall 0.75 s
 Geometry Optimization Parameters
   NAtoms,    NIC,     NZ,  NCons,   NDum,   NFix, NCnnct, MaxDiis
       11      68       0       1       0       0       0       0

 Cartesian Hessian Update
 Hessian Updated using BFGS Update


** CONSTRAINED OPTIMIZATION IN DELOCALIZED INTERNAL COORDINATES **
   Searching for a Minimum

   Optimization Cycle:   2

                       Coordinates (Angstroms)
     ATOM                X               Y               Z
      1  F        -0.4787302922   -1.3340236748    0.1683946496
      2  F         1.8698466101    0.0335053109   -0.1192436325
      3  C        -0.4333245537   -0.0362300042   -0.3252145282
      4  C         0.7883171859    0.6456829570    0.2652538254
      5  C        -1.7360377833    0.6722775277    0.0256454475
      6  H        -0.3067127659   -0.1006686970   -1.4144574811
      7  H         0.8341272883    1.6927884455   -0.0626081862
      8  H         0.7274395506    0.6086348642    1.3606624250
      9  H        -1.8743597796    0.6973676161    1.1113335186
     10  H        -1.7531153242    1.6988477254   -0.3536185713
     11  H        -2.5837501361    0.1322179293   -0.4044474667
   Point Group: c1    Number of degrees of freedom:    27


   Energy is   -317.603333395

              Constraints and their Current Values
                                        Value     Constraint
   Distance(Angs):        2   4             1.300886     1.300000
 Hessian Updated using BFGS Update

   Using Lagrange Multiplier Algorithm


 25 Hessian modes will be used to form the next step
  Hessian Eigenvalues:
    -0.780213    0.044973    0.045000    0.073846    0.078943    0.082493
     0.083981    0.084341    0.085130    0.113157    0.155655    0.161686
     0.177561    0.221720    0.230737    0.307523    0.311712    0.341422
     0.342450    0.342759    0.343510    0.343890    0.344088    0.512224
     1.286708

 Minimum Search - Taking P-RFO Step
 Searching for Lamda that Maximizes Along the Constraint modes Only
 Value Taken    Lamda =   0.00001191
 Searching for Lamda that Minimizes Along All other modes
 Value Taken    Lamda =  -0.00101934
 Step Taken.  Stepsize is  0.101473

                             Maximum     Tolerance    Cnvgd?
         Gradient            0.006373       0.000300      NO
         Displacement        0.064157       0.001200      NO
         Energy change      0.003698       0.000001      NO


 New Cartesian Coordinates Obtained by Inverse Iteration

 Displacement from previous Coordinates is:  0.089713
 ----------------------------------------------------------------
             Standard Nuclear Orientation (Angstroms)
    I     Atom           X                Y                Z
 ----------------------------------------------------------------
    1      F      -0.4837917911    -1.3420967700     0.1668880122
    2      F       1.8903744775     0.0384043426    -0.1196145259
    3      C      -0.4347748560    -0.0358048774    -0.3255672130
    4      C       0.8007975269     0.6364791575     0.2613577202
    5      C      -1.7330907668     0.6729572740     0.0278976151
    6      H      -0.3100449222    -0.1003978117    -1.4157306016
    7      H       0.8053257740     1.6912480810    -0.0596760394
    8      H       0.7098858055     0.6115109698     1.3596900898
    9      H      -1.8665520822     0.7035177540     1.1140081012
   10      H      -1.7415889239     1.6976825498    -0.3555133612
   11      H      -2.5828402417     0.1368993305    -0.4020397976
 ----------------------------------------------------------------
 Nuclear Repulsion Energy =   191.7537797711 hartrees
 There are       21 alpha and       21 beta electrons

                       Distance Matrix (Angstroms)
             F (  1)   F (  2)   C (  3)   C (  4)   C (  5)   H (  6)
   F (  2)  2.761256
   C (  3)  1.396894  2.335432
   C (  4)  2.360902  1.300004  1.524167
   C (  5)  2.374976  3.681565  1.520824  2.544882
   H (  6)  2.019080  2.557543  1.099175  2.142331  2.169608
   H (  7)  3.303685  1.978084  2.142722  1.102552  2.736447  2.508571
   H (  8)  2.581516  1.977460  2.137606  1.102371  2.783088  3.041387
   H (  9)  2.644542  4.009825  2.160778  2.801118  1.094706  3.077105
   H ( 10)  3.330948  4.000001  2.171092  2.823192  1.094138  2.531101
   H ( 11)  2.630040  4.483204  2.156353  3.484061  1.092830  2.499896
             H (  7)   H (  8)   H (  9)   H ( 10)
   H (  8)  1.785929
   H (  9)  3.080921  2.589760
   H ( 10)  2.564047  3.182989  1.778615
   H ( 11)  3.743378  3.764438  1.769894  1.773672
 
 Applying Cartesian multipole field
    Component          Value
    ---------          -----
     (2,0,0)        1.00000E-11
     (0,2,0)        2.00000E-11
     (0,0,2)       -3.00000E-10
 Nucleus-field energy     =    -0.0000000027 hartrees
 Requested basis set is 6-31G(d,p)
 There are 38 shells and 105 basis functions
 A cutoff of  1.0D-14 yielded    720 shell pairs
 There are      5627 function pairs
 Smallest overlap matrix eigenvalue = 3.37E-03
 Guess from superposition of atomic densities
 Warning:  Energy on first SCF cycle will be non-variational
 SAD guess density has 42.000000 electrons

 -----------------------------------------------------------------------
  General SCF calculation program by
  Eric Jon Sundstrom, Paul Horn, Yuezhi Mao, Dmitri Zuev, Alec White,
  David Stuck, Shaama M.S., Shane Yost, Joonho Lee, David Small,
  Daniel Levine, Susi Lehtola, Hugh Burton, Evgeny Epifanovsky
 -----------------------------------------------------------------------
 Exchange:     0.2000 Hartree-Fock + 0.0800 Slater + 0.7200 B88
 Correlation:  0.1900 VWN1RPA + 0.8100 LYP
 Using SG-1 standard quadrature grid
 using 12 threads for integral computing
 -------------------------------------------------------
 OpenMP Integral computing Module                
 Release: version 1.0, May 2013, Q-Chem Inc. Pittsburgh 
 -------------------------------------------------------
 -------------------------------------------------------
 OpenMP BLAS3 based DFT computing Module                
 Release: version 1.0, May 2013, Q-Chem Inc. Pittsburgh 
 -------------------------------------------------------
 A unrestricted SCF calculation will be
 performed using DIIS
 SCF converges when DIIS error is below 1.0e-06
 Alpha HF Exchange    Energy =  -3.79339212249522
 Beta HF Exchange     Energy =  -3.79339212249522
 DFT Correlation      Energy =  -1.85867778326845
 DFT Exchange         Energy = -29.67998683850983
 One-Electron (alpha) Energy = -407.05821312070310
 One-Electron (beta)  Energy = -407.05821312070310
 Total Coulomb        Energy = 343.21760430930703
 ---------------------------------------
  Cycle       Energy         DIIS error
 ---------------------------------------
    1    -318.2704910305      3.26e-02  
 Alpha HF Exchange    Energy =  -3.82158542860277
 Beta HF Exchange     Energy =  -3.82158542860277
 DFT Correlation      Energy =  -1.88312884182694
 DFT Exchange         Energy = -30.36483907152766
 One-Electron (alpha) Energy = -410.22173469762618
 One-Electron (beta)  Energy = -410.22173469762612
 Total Coulomb        Energy = 351.04109863534973
    2    -317.5397297621      3.66e-03  
 Alpha HF Exchange    Energy =  -3.75016773519941
 Beta HF Exchange     Energy =  -3.75016773519942
 DFT Correlation      Energy =  -1.86130712889206
 DFT Exchange         Energy = -29.79564720860376
 One-Electron (alpha) Energy = -407.08174494640934
 One-Electron (beta)  Energy = -407.08174494640934
 Total Coulomb        Energy = 344.03305429587908
    3    -317.5339456365      3.98e-03  
 Alpha HF Exchange    Energy =  -3.78781346842077
 Beta HF Exchange     Energy =  -3.78781346842077
 DFT Correlation      Energy =  -1.87215852550937
 DFT Exchange         Energy = -30.09120747844186
 One-Electron (alpha) Energy = -408.69462920151983
 One-Electron (beta)  Energy = -408.69462920151983
 Total Coulomb        Energy = 347.57164506163338
    4    -317.6028265138      4.66e-04  
 Alpha HF Exchange    Energy =  -3.78615228731500
 Beta HF Exchange     Energy =  -3.78615228731500
 DFT Correlation      Energy =  -1.87247551898824
 DFT Exchange         Energy = -30.08103587249999
 One-Electron (alpha) Energy = -408.72709382233603
 One-Electron (beta)  Energy = -408.72709382233597
 Total Coulomb        Energy = 347.62271839484697
    5    -317.6035054476      2.14e-04  
 Alpha HF Exchange    Energy =  -3.78649164035153
 Beta HF Exchange     Energy =  -3.78649164035153
 DFT Correlation      Energy =  -1.87225445397167
 DFT Exchange         Energy = -30.08257769820581
 One-Electron (alpha) Energy = -408.69879526294244
 One-Electron (beta)  Energy = -408.69879526294272
 Total Coulomb        Energy = 347.56792215137204
    6    -317.6037040390      2.60e-05  
 Alpha HF Exchange    Energy =  -3.78639453698023
 Beta HF Exchange     Energy =  -3.78639453698023
 DFT Correlation      Energy =  -1.87223873655527
 DFT Exchange         Energy = -30.08180534701753
 One-Electron (alpha) Energy = -408.69445242308484
 One-Electron (beta)  Energy = -408.69445242308478
 Total Coulomb        Energy = 347.55825171030983
    7    -317.6037065250      1.18e-05  
 Alpha HF Exchange    Energy =  -3.78643616019532
 Beta HF Exchange     Energy =  -3.78643616019531
 DFT Correlation      Energy =  -1.87225513387124
 DFT Exchange         Energy = -30.08215582660377
 One-Electron (alpha) Energy = -408.69785068645132
 One-Electron (beta)  Energy = -408.69785068645115
 Total Coulomb        Energy = 347.56549769665054
    8    -317.6037071888      1.32e-06  
 Alpha HF Exchange    Energy =  -3.78643708985037
 Beta HF Exchange     Energy =  -3.78643708985037
 DFT Correlation      Energy =  -1.87225484599088
 DFT Exchange         Energy = -30.08216150293051
 One-Electron (alpha) Energy = -408.69779706456256
 One-Electron (beta)  Energy = -408.69779706456262
 Total Coulomb        Energy = 347.56539769450950
    9    -317.6037071949      6.06e-07  Convergence criterion met
 ---------------------------------------
 SCF time:   CPU 21.71s  wall 2.00s 
<S^2> =          0.000000000
 Alpha HF Exchange    Energy =  -3.78643708985037
 Beta HF Exchange     Energy =  -3.78643708985037
 DFT Correlation      Energy =  -1.87225484599088
 DFT Exchange         Energy = -30.08216150293051
 One-Electron (alpha) Energy = -408.69779706456256
 One-Electron (beta)  Energy = -408.69779706456262
 Total Coulomb        Energy = 347.56539769450950
 Nuclear repulsion Energy = 191.75377976836040
 SCF   energy in the final basis set =     -317.6037071949
 Total energy in the final basis set =     -317.6037071949
 
 --------------------------------------------------------------
 
                    Orbital Energies (a.u.)
 --------------------------------------------------------------
 
 Alpha MOs
 -- Occupied --
-24.688 -24.669 -10.265 -10.261 -10.192  -1.227  -1.175  -0.790
 -0.697  -0.611  -0.527  -0.518  -0.498  -0.469  -0.441  -0.411
 -0.397  -0.381  -0.338  -0.330  -0.308
 -- Virtual --
  0.090   0.105   0.119   0.148   0.167   0.181   0.184   0.204
  0.235   0.259   0.520   0.528   0.544   0.556   0.589   0.613
  0.642   0.663   0.700   0.796   0.846   0.862   0.872   0.890
  0.906   0.945   1.079   1.134   1.196   1.207   1.304   1.367
  1.381   1.390   1.410   1.420   1.522   1.630   1.635   1.726
  1.748   1.782   1.813   1.838   1.893   1.933   1.990   2.003
  2.024   2.030   2.061   2.066   2.093   2.111   2.120   2.212
  2.239   2.304   2.327   2.376   2.445   2.501   2.629   2.679
  2.708   2.720   2.778   2.850   2.900   2.916   2.935   3.095
  3.114   3.176   3.242   3.301   3.441   3.461   3.495   4.185
  4.341   4.483   4.630   4.682
 
 Beta MOs
 -- Occupied --
-24.688 -24.669 -10.265 -10.261 -10.192  -1.227  -1.175  -0.790
 -0.697  -0.611  -0.527  -0.518  -0.498  -0.469  -0.441  -0.411
 -0.397  -0.381  -0.338  -0.330  -0.308
 -- Virtual --
  0.090   0.105   0.119   0.148   0.167   0.181   0.184   0.204
  0.235   0.259   0.520   0.528   0.544   0.556   0.589   0.613
  0.642   0.663   0.700   0.796   0.846   0.862   0.872   0.890
  0.906   0.945   1.079   1.134   1.196   1.207   1.304   1.367
  1.381   1.390   1.410   1.420   1.522   1.630   1.635   1.726
  1.748   1.782   1.813   1.838   1.893   1.933   1.990   2.003
  2.024   2.030   2.061   2.066   2.093   2.111   2.120   2.212
  2.239   2.304   2.327   2.376   2.445   2.501   2.629   2.679
  2.708   2.720   2.778   2.850   2.900   2.916   2.935   3.095
  3.114   3.176   3.242   3.301   3.441   3.461   3.495   4.185
  4.341   4.483   4.630   4.682
 --------------------------------------------------------------
 
          Ground-State Mulliken Net Atomic Charges

     Atom                 Charge (a.u.)    Spin (a.u.)
  --------------------------------------------------------
      1 F                    -0.324849       0.000000
      2 F                    -0.268139       0.000000
      3 C                     0.203928      -0.000000
      4 C                     0.139465      -0.000000
      5 C                    -0.352467       0.000000
      6 H                     0.091784       0.000000
      7 H                     0.069638       0.000000
      8 H                     0.082610       0.000000
      9 H                     0.120731       0.000000
     10 H                     0.109155      -0.000000
     11 H                     0.128144       0.000000
  --------------------------------------------------------
  Sum of atomic charges =     0.000000
  Sum of spin   charges =     0.000000

 -----------------------------------------------------------------
                    Cartesian Multipole Moments
 -----------------------------------------------------------------
    Charge (ESU x 10^10)
                -0.0000
    Dipole Moment (Debye)
         X      -1.1965      Y       2.0711      Z      -0.1731
       Tot       2.3981
    Quadrupole Moments (Debye-Ang)
        XX     -30.7318     XY      -0.3174     YY     -30.2732
        XZ       0.7518     YZ       0.4087     ZZ     -27.9144
    Octopole Moments (Debye-Ang^2)
       XXX       4.9220    XXY      -3.6326    XYY       5.5707
       YYY      -8.0423    XXZ      -0.1532    XYZ      -0.1478
       YYZ      -1.0486    XZZ       4.0071    YZZ      -3.8536
       ZZZ      -0.4458
    Hexadecapole Moments (Debye-Ang^3)
      XXXX    -318.9099   XXXY       7.5051   XXYY     -74.2483
      XYYY       4.4249   YYYY    -132.0415   XXXZ       0.1472
      XXYZ      -0.1132   XYYZ      -0.2541   YYYZ      -3.6893
      XXZZ     -60.5581   XYZZ       1.9441   YYZZ     -31.6312
      XZZZ      -3.0603   YZZZ      -1.2592   ZZZZ     -52.8547
 -----------------------------------------------------------------
 Calculating analytic gradient of the SCF energy
 Gradient of SCF Energy
            1           2           3           4           5           6
    1   0.0004842  -0.0603857   0.0001447   0.0616707  -0.0010804   0.0002317
    2   0.0010896   0.0328852  -0.0024014  -0.0316475   0.0010821   0.0009343
    3  -0.0000140   0.0211546   0.0014709  -0.0210945  -0.0006406  -0.0001309
            7           8           9          10          11
    1  -0.0002225  -0.0006182  -0.0000401   0.0000496  -0.0002341
    2  -0.0004357  -0.0010533  -0.0004742  -0.0000324   0.0000533
    3  -0.0011112   0.0000710   0.0000342   0.0002258   0.0000347
 Max gradient component =       6.167E-02
 RMS gradient           =       1.779E-02
 Gradient time:  CPU 8.46 s  wall 0.73 s
 Geometry Optimization Parameters
   NAtoms,    NIC,     NZ,  NCons,   NDum,   NFix, NCnnct, MaxDiis
       11      68       0       1       0       0       0       0

 Cartesian Hessian Update
 Hessian Updated using BFGS Update


** CONSTRAINED OPTIMIZATION IN DELOCALIZED INTERNAL COORDINATES **
   Searching for a Minimum

   Optimization Cycle:   3

                       Coordinates (Angstroms)
     ATOM                X               Y               Z
      1  F        -0.4837917911   -1.3420967700    0.1668880122
      2  F         1.8903744775    0.0384043426   -0.1196145259
      3  C        -0.4347748560   -0.0358048774   -0.3255672130
      4  C         0.8007975269    0.6364791575    0.2613577202
      5  C        -1.7330907668    0.6729572740    0.0278976151
      6  H        -0.3100449222   -0.1003978117   -1.4157306016
      7  H         0.8053257740    1.6912480810   -0.0596760394
      8  H         0.7098858055    0.6115109698    1.3596900898
      9  H        -1.8665520822    0.7035177540    1.1140081012
     10  H        -1.7415889239    1.6976825498   -0.3555133612
     11  H        -2.5828402417    0.1368993305   -0.4020397976
   Point Group: c1    Number of degrees of freedom:    27


   Energy is   -317.603707195

              Constraints and their Current Values
                                        Value     Constraint
   Distance(Angs):        2   4             1.300004     1.300000
 Hessian Updated using BFGS Update

   Using Lagrange Multiplier Algorithm


 26 Hessian modes will be used to form the next step
  Hessian Eigenvalues:
    -0.777915    0.044007    0.045001    0.068107    0.076344    0.082527
     0.084060    0.084245    0.085136    0.113456    0.159485    0.160667
     0.176030    0.179536    0.221754    0.238769    0.303627    0.310367
     0.341671    0.342455    0.343080    0.343438    0.343742    0.344676
     0.505157    1.292009

 Minimum Search - Taking P-RFO Step
 Searching for Lamda that Maximizes Along the Constraint modes Only
 Value Taken    Lamda =   0.00000020
 Searching for Lamda that Minimizes Along All other modes
 Value Taken    Lamda =  -0.00007159
 Step Taken.  Stepsize is  0.026428

                             Maximum     Tolerance    Cnvgd?
         Gradient            0.001633       0.000300      NO
         Displacement        0.011069       0.001200      NO
         Energy change     -0.000374       0.000001      NO


 New Cartesian Coordinates Obtained by Inverse Iteration

 Displacement from previous Coordinates is:  0.031672
 ----------------------------------------------------------------
             Standard Nuclear Orientation (Angstroms)
    I     Atom           X                Y                Z
 ----------------------------------------------------------------
    1      F      -0.4884162860    -1.3450017841     0.1629164437
    2      F       1.8907508499     0.0418237080    -0.1195166409
    3      C      -0.4359869687    -0.0365874659    -0.3282897915
    4      C       0.7988987401     0.6355270547     0.2617645647
    5      C      -1.7305240733     0.6723380560     0.0281921337
    6      H      -0.3140619472    -0.1050184497    -1.4184442015
    7      H       0.8032228218     1.6930646382    -0.0515578183
    8      H       0.7110184195     0.6151133292     1.3605037006
    9      H      -1.8619474391     0.7075029430     1.1143671565
   10      H      -1.7387310536     1.6960097793    -0.3584455330
   11      H      -2.5805230633     0.1356281913    -0.3997900140
 ----------------------------------------------------------------
 Nuclear Repulsion Energy =   191.7071567170 hartrees
 There are       21 alpha and       21 beta electrons

                       Distance Matrix (Angstroms)
             F (  1)   F (  2)   C (  3)   C (  4)   C (  5)   H (  6)
   F (  2)  2.768301
   C (  3)  1.398564  2.337401
   C (  4)  2.364201  1.300000  1.524744
   C (  5)  2.372897  3.678722  1.518381  2.540451
   H (  6)  2.017092  2.563196  1.099084  2.147135  2.168733
   H (  7)  3.308199  1.978366  2.145674  1.102985  2.732785  2.519882
   H (  8)  2.591314  1.977597  2.142979  1.102437  2.781988  3.048267
   H (  9)  2.646625  4.006038  2.160623  2.795034  1.094662  3.077543
   H ( 10)  3.329092  3.995817  2.167936  2.819370  1.094285  2.529226
   H ( 11)  2.624084  4.481031  2.152628  3.479662  1.092577  2.496480
             H (  7)   H (  8)   H (  9)   H ( 10)
   H (  8)  1.778876
   H (  9)  3.071457  2.586363
   H ( 10)  2.560414  3.181886  1.778062
   H ( 11)  3.741204  3.763348  1.770893  1.773447
 
 Applying Cartesian multipole field
    Component          Value
    ---------          -----
     (2,0,0)        1.00000E-11
     (0,2,0)        2.00000E-11
     (0,0,2)       -3.00000E-10
 Nucleus-field energy     =    -0.0000000027 hartrees
 Requested basis set is 6-31G(d,p)
 There are 38 shells and 105 basis functions
 A cutoff of  1.0D-14 yielded    720 shell pairs
 There are      5627 function pairs
 Smallest overlap matrix eigenvalue = 3.37E-03
 Guess from superposition of atomic densities
 Warning:  Energy on first SCF cycle will be non-variational
 SAD guess density has 42.000000 electrons

 -----------------------------------------------------------------------
  General SCF calculation program by
  Eric Jon Sundstrom, Paul Horn, Yuezhi Mao, Dmitri Zuev, Alec White,
  David Stuck, Shaama M.S., Shane Yost, Joonho Lee, David Small,
  Daniel Levine, Susi Lehtola, Hugh Burton, Evgeny Epifanovsky
 -----------------------------------------------------------------------
 Exchange:     0.2000 Hartree-Fock + 0.0800 Slater + 0.7200 B88
 Correlation:  0.1900 VWN1RPA + 0.8100 LYP
 Using SG-1 standard quadrature grid
 using 12 threads for integral computing
 -------------------------------------------------------
 OpenMP Integral computing Module                
 Release: version 1.0, May 2013, Q-Chem Inc. Pittsburgh 
 -------------------------------------------------------
 -------------------------------------------------------
 OpenMP BLAS3 based DFT computing Module                
 Release: version 1.0, May 2013, Q-Chem Inc. Pittsburgh 
 -------------------------------------------------------
 A unrestricted SCF calculation will be
 performed using DIIS
 SCF converges when DIIS error is below 1.0e-06
 Alpha HF Exchange    Energy =  -3.79337171845887
 Beta HF Exchange     Energy =  -3.79337171845887
 DFT Correlation      Energy =  -1.85866536197335
 DFT Exchange         Energy = -29.67990767347744
 One-Electron (alpha) Energy = -407.01192434678740
 One-Electron (beta)  Energy = -407.01192434678740
 Total Coulomb        Energy = 343.17189244460116
 ---------------------------------------
  Cycle       Energy         DIIS error
 ---------------------------------------
    1    -318.2701160071      3.26e-02  
 Alpha HF Exchange    Energy =  -3.82163701885956
 Beta HF Exchange     Energy =  -3.82163701885956
 DFT Correlation      Energy =  -1.88313210649519
 DFT Exchange         Energy = -30.36523273136256
 One-Electron (alpha) Energy = -410.17876308904277
 One-Electron (beta)  Energy = -410.17876308904272
 Total Coulomb        Energy = 351.00239660123685
    2    -317.5396117382      3.67e-03  
 Alpha HF Exchange    Energy =  -3.75006489590097
 Beta HF Exchange     Energy =  -3.75006489590098
 DFT Correlation      Energy =  -1.86127693276399
 DFT Exchange         Energy = -29.79493700761591
 One-Electron (alpha) Energy = -407.03215582072534
 One-Electron (beta)  Energy = -407.03215582072556
 Total Coulomb        Energy = 343.97983356810033
    3    -317.5336650913      4.00e-03  
 Alpha HF Exchange    Energy =  -3.78781697002174
 Beta HF Exchange     Energy =  -3.78781697002174
 DFT Correlation      Energy =  -1.87214770006374
 DFT Exchange         Energy = -30.09126203127288
 One-Electron (alpha) Energy = -408.64927773809336
 One-Electron (beta)  Energy = -408.64927773809325
 Total Coulomb        Energy = 347.52758153281445
    4    -317.6028609005      4.68e-04  
 Alpha HF Exchange    Energy =  -3.78614970511983
 Beta HF Exchange     Energy =  -3.78614970511983
 DFT Correlation      Energy =  -1.87246734222988
 DFT Exchange         Energy = -30.08105576901888
 One-Electron (alpha) Energy = -408.68188176080082
 One-Electron (beta)  Energy = -408.68188176080082
 Total Coulomb        Energy = 347.57888318334608
    5    -317.6035461455      2.14e-04  
 Alpha HF Exchange    Energy =  -3.78648961376917
 Beta HF Exchange     Energy =  -3.78648961376917
 DFT Correlation      Energy =  -1.87224619000506
 DFT Exchange         Energy = -30.08260219544282
 One-Electron (alpha) Energy = -408.65354297979962
 One-Electron (beta)  Energy = -408.65354297979940
 Total Coulomb        Energy = 347.52401051402290
    6    -317.6037463443      2.59e-05  
 Alpha HF Exchange    Energy =  -3.78639477420234
 Beta HF Exchange     Energy =  -3.78639477420234
 DFT Correlation      Energy =  -1.87223061222468
 DFT Exchange         Energy = -30.08184584575609
 One-Electron (alpha) Energy = -408.64927859526711
 One-Electron (beta)  Energy = -408.64927859526722
 Total Coulomb        Energy = 347.51451769129022
    7    -317.6037487914      1.17e-05  
 Alpha HF Exchange    Energy =  -3.78643555985698
 Beta HF Exchange     Energy =  -3.78643555985698
 DFT Correlation      Energy =  -1.87224688794088
 DFT Exchange         Energy = -30.08219002866789
 One-Electron (alpha) Energy = -408.65263851544205
 One-Electron (beta)  Energy = -408.65263851544216
 Total Coulomb        Energy = 347.52167890266247
    8    -317.6037494503      1.33e-06  
 Alpha HF Exchange    Energy =  -3.78643658499814
 Beta HF Exchange     Energy =  -3.78643658499814
 DFT Correlation      Energy =  -1.87224661754974
 DFT Exchange         Energy = -30.08219644425857
 One-Electron (alpha) Energy = -408.65258919219906
 One-Electron (beta)  Energy = -408.65258919219906
 Total Coulomb        Energy = 347.52158844542436
    9    -317.6037494565      6.07e-07  Convergence criterion met
 ---------------------------------------
 SCF time:   CPU 20.67s  wall 2.00s 
<S^2> =          0.000000000
 Alpha HF Exchange    Energy =  -3.78643658499814
 Beta HF Exchange     Energy =  -3.78643658499814
 DFT Correlation      Energy =  -1.87224661754974
 DFT Exchange         Energy = -30.08219644425857
 One-Electron (alpha) Energy = -408.65258919219906
 One-Electron (beta)  Energy = -408.65258919219906
 Total Coulomb        Energy = 347.52158844542436
 Nuclear repulsion Energy = 191.70715671422872
 SCF   energy in the final basis set =     -317.6037494565
 Total energy in the final basis set =     -317.6037494565
 
 --------------------------------------------------------------
 
                    Orbital Energies (a.u.)
 --------------------------------------------------------------
 
 Alpha MOs
 -- Occupied --
-24.688 -24.668 -10.265 -10.261 -10.192  -1.227  -1.174  -0.790
 -0.697  -0.611  -0.527  -0.518  -0.498  -0.469  -0.441  -0.411
 -0.397  -0.381  -0.337  -0.330  -0.309
 -- Virtual --
  0.090   0.104   0.119   0.148   0.167   0.181   0.184   0.204
  0.236   0.259   0.521   0.527   0.544   0.557   0.589   0.613
  0.641   0.663   0.700   0.797   0.847   0.862   0.871   0.890
  0.907   0.945   1.079   1.134   1.197   1.206   1.306   1.367
  1.381   1.390   1.410   1.420   1.522   1.628   1.636   1.726
  1.749   1.781   1.813   1.839   1.893   1.933   1.990   2.004
  2.023   2.030   2.061   2.066   2.093   2.115   2.121   2.212
  2.239   2.301   2.325   2.375   2.444   2.499   2.628   2.681
  2.708   2.722   2.776   2.849   2.899   2.913   2.936   3.095
  3.114   3.176   3.242   3.301   3.442   3.462   3.494   4.183
  4.342   4.481   4.631   4.682
 
 Beta MOs
 -- Occupied --
-24.688 -24.668 -10.265 -10.261 -10.192  -1.227  -1.174  -0.790
 -0.697  -0.611  -0.527  -0.518  -0.498  -0.469  -0.441  -0.411
 -0.397  -0.381  -0.337  -0.330  -0.309
 -- Virtual --
  0.090   0.104   0.119   0.148   0.167   0.181   0.184   0.204
  0.236   0.259   0.521   0.527   0.544   0.557   0.589   0.613
  0.641   0.663   0.700   0.797   0.847   0.862   0.871   0.890
  0.907   0.945   1.079   1.134   1.197   1.206   1.306   1.367
  1.381   1.390   1.410   1.420   1.522   1.628   1.636   1.726
  1.749   1.781   1.813   1.839   1.893   1.933   1.990   2.004
  2.023   2.030   2.061   2.066   2.093   2.115   2.121   2.212
  2.239   2.301   2.325   2.375   2.444   2.499   2.628   2.681
  2.708   2.722   2.776   2.849   2.899   2.913   2.936   3.095
  3.114   3.176   3.242   3.301   3.442   3.462   3.494   4.183
  4.342   4.481   4.631   4.682
 --------------------------------------------------------------
 
          Ground-State Mulliken Net Atomic Charges

     Atom                 Charge (a.u.)    Spin (a.u.)
  --------------------------------------------------------
      1 F                    -0.325745      -0.000000
      2 F                    -0.268138      -0.000000
      3 C                     0.204148      -0.000000
      4 C                     0.139071       0.000000
      5 C                    -0.352119      -0.000000
      6 H                     0.092344      -0.000000
      7 H                     0.069616       0.000000
      8 H                     0.082781      -0.000000
      9 H                     0.120816      -0.000000
     10 H                     0.109098       0.000000
     11 H                     0.128129      -0.000000
  --------------------------------------------------------
  Sum of atomic charges =     0.000000
  Sum of spin   charges =    -0.000000

 -----------------------------------------------------------------
                    Cartesian Multipole Moments
 -----------------------------------------------------------------
    Charge (ESU x 10^10)
                -0.0000
    Dipole Moment (Debye)
         X      -1.1938      Y       2.0772      Z      -0.1713
       Tot       2.4019
    Quadrupole Moments (Debye-Ang)
        XX     -30.7415     XY      -0.3289     YY     -30.2855
        XZ       0.7638     YZ       0.4313     ZZ     -27.8971
    Octopole Moments (Debye-Ang^2)
       XXX       4.9981    XXY      -3.6295    XYY       5.6107
       YYY      -7.9896    XXZ      -0.1212    XYZ      -0.1386
       YYZ      -0.9893    XZZ       4.0143    YZZ      -3.8369
       ZZZ      -0.3979
    Hexadecapole Moments (Debye-Ang^3)
      XXXX    -318.6279   XXXY       7.2560   XXYY     -74.2479
      XYYY       4.1875   YYYY    -132.3374   XXXZ       0.0702
      XXYZ      -0.1233   XYYZ      -0.2645   YYYZ      -3.7760
      XXZZ     -60.4893   XYZZ       1.8638   YYZZ     -31.6546
      XZZZ      -3.1072   YZZZ      -1.3463   ZZZZ     -52.8586
 -----------------------------------------------------------------
 Calculating analytic gradient of the SCF energy
 Gradient of SCF Energy
            1           2           3           4           5           6
    1   0.0001184  -0.0603700  -0.0006176   0.0610166  -0.0001216  -0.0001252
    2   0.0003858   0.0327443  -0.0011323  -0.0322159   0.0002695   0.0002843
    3  -0.0000344   0.0211793   0.0003796  -0.0210366  -0.0002547  -0.0002345
            7           8           9          10          11
    1  -0.0000017  -0.0000803  -0.0000888   0.0001866   0.0000835
    2  -0.0000705  -0.0000067  -0.0002635  -0.0000099   0.0000149
    3  -0.0002681   0.0001193   0.0000523   0.0002000  -0.0001022
 Max gradient component =       6.102E-02
 RMS gradient           =       1.773E-02
 Gradient time:  CPU 8.43 s  wall 0.72 s
 Geometry Optimization Parameters
   NAtoms,    NIC,     NZ,  NCons,   NDum,   NFix, NCnnct, MaxDiis
       11      68       0       1       0       0       0       0

 Cartesian Hessian Update
 Hessian Updated using BFGS Update


** CONSTRAINED OPTIMIZATION IN DELOCALIZED INTERNAL COORDINATES **
   Searching for a Minimum

   Optimization Cycle:   4

                       Coordinates (Angstroms)
     ATOM                X               Y               Z
      1  F        -0.4884162860   -1.3450017841    0.1629164437
      2  F         1.8907508499    0.0418237080   -0.1195166409
      3  C        -0.4359869687   -0.0365874659   -0.3282897915
      4  C         0.7988987401    0.6355270547    0.2617645647
      5  C        -1.7305240733    0.6723380560    0.0281921337
      6  H        -0.3140619472   -0.1050184497   -1.4184442015
      7  H         0.8032228218    1.6930646382   -0.0515578183
      8  H         0.7110184195    0.6151133292    1.3605037006
      9  H        -1.8619474391    0.7075029430    1.1143671565
     10  H        -1.7387310536    1.6960097793   -0.3584455330
     11  H        -2.5805230633    0.1356281913   -0.3997900140
   Point Group: c1    Number of degrees of freedom:    27


   Energy is   -317.603749457

              Constraints and their Current Values
                                        Value     Constraint
   Distance(Angs):        2   4             1.300000     1.300000
 Hessian Updated using BFGS Update

 25 Hessian modes will be used to form the next step
  Hessian Eigenvalues:
     0.033646    0.045008    0.065552    0.076537    0.082513    0.083870
     0.084239    0.085214    0.114190    0.159145    0.159922    0.161996
     0.174542    0.181488    0.221917    0.239586    0.303505    0.333462
     0.341678    0.342552    0.342779    0.343667    0.344095    0.347856
     0.498754

 Minimum Search - Taking Simple RFO Step
 Searching for Lamda that Minimizes Along All modes
 Value Taken    Lamda =  -0.00001432
 Step Taken.  Stepsize is  0.018751

                             Maximum     Tolerance    Cnvgd?
         Gradient           0.000421      0.000300      NO
         Displacement       0.009621      0.001200      NO
         Energy change     -0.000042      0.000001      NO


 New Cartesian Coordinates Obtained by Inverse Iteration

 Displacement from previous Coordinates is:  0.019580
 ----------------------------------------------------------------
             Standard Nuclear Orientation (Angstroms)
    I     Atom           X                Y                Z
 ----------------------------------------------------------------
    1      F      -0.4886787812    -1.3453170543     0.1614983843
    2      F       1.8906637384     0.0431701198    -0.1207450500
    3      C      -0.4355534989    -0.0359190386    -0.3295229106
    4      C       0.7980537108     0.6345808880     0.2619254114
    5      C      -1.7297178057     0.6725472111     0.0280409520
    6      H      -0.3137693700    -0.1068035240    -1.4191465794
    7      H       0.8021787595     1.6937464021    -0.0463234136
    8      H       0.7103511601     0.6129404851     1.3605050511
    9      H      -1.8589872529     0.7121324537     1.1142075785
   10      H      -1.7404096247     1.6950351618    -0.3621275490
   11      H      -2.5804310354     0.1342868954    -0.3966118748
 ----------------------------------------------------------------
 Nuclear Repulsion Energy =   191.7202652948 hartrees
 There are       21 alpha and       21 beta electrons

                       Distance Matrix (Angstroms)
             F (  1)   F (  2)   C (  3)   C (  4)   C (  5)   H (  6)
   F (  2)  2.769265
   C (  3)  1.399445  2.336906
   C (  4)  2.363422  1.300000  1.523538
   C (  5)  2.372713  3.677692  1.518103  2.538853
   H (  6)  2.015675  2.562784  1.098697  2.147511  2.169481
   H (  7)  3.308385  1.978570  2.145676  1.103116  2.731095  2.524275
   H (  8)  2.590379  1.977847  2.142501  1.102287  2.780818  3.048494
   H (  9)  2.649245  4.004061  2.161042  2.791463  1.094548  3.078350
   H ( 10)  3.329378  3.996451  2.167929  2.820958  1.094453  2.529667
   H ( 11)  2.622240  4.480524  2.152666  3.478236  1.092597  2.498291
             H (  7)   H (  8)   H (  9)   H ( 10)
   H (  8)  1.776440
   H (  9)  3.064670  2.583022
   H ( 10)  2.562126  3.185062  1.777561
   H ( 11)  3.741212  3.761092  1.771147  1.772783
 
 Applying Cartesian multipole field
    Component          Value
    ---------          -----
     (2,0,0)        1.00000E-11
     (0,2,0)        2.00000E-11
     (0,0,2)       -3.00000E-10
 Nucleus-field energy     =    -0.0000000028 hartrees
 Requested basis set is 6-31G(d,p)
 There are 38 shells and 105 basis functions
 A cutoff of  1.0D-14 yielded    720 shell pairs
 There are      5627 function pairs
 Smallest overlap matrix eigenvalue = 3.37E-03
 Guess from superposition of atomic densities
 Warning:  Energy on first SCF cycle will be non-variational
 SAD guess density has 42.000000 electrons

 -----------------------------------------------------------------------
  General SCF calculation program by
  Eric Jon Sundstrom, Paul Horn, Yuezhi Mao, Dmitri Zuev, Alec White,
  David Stuck, Shaama M.S., Shane Yost, Joonho Lee, David Small,
  Daniel Levine, Susi Lehtola, Hugh Burton, Evgeny Epifanovsky
 -----------------------------------------------------------------------
 Exchange:     0.2000 Hartree-Fock + 0.0800 Slater + 0.7200 B88
 Correlation:  0.1900 VWN1RPA + 0.8100 LYP
 Using SG-1 standard quadrature grid
 using 12 threads for integral computing
 -------------------------------------------------------
 OpenMP Integral computing Module                
 Release: version 1.0, May 2013, Q-Chem Inc. Pittsburgh 
 -------------------------------------------------------
 -------------------------------------------------------
 OpenMP BLAS3 based DFT computing Module                
 Release: version 1.0, May 2013, Q-Chem Inc. Pittsburgh 
 -------------------------------------------------------
 A unrestricted SCF calculation will be
 performed using DIIS
 SCF converges when DIIS error is below 1.0e-06
 Alpha HF Exchange    Energy =  -3.79345209403017
 Beta HF Exchange     Energy =  -3.79345209403017
 DFT Correlation      Energy =  -1.85868463327369
 DFT Exchange         Energy = -29.68004806488669
 One-Electron (alpha) Energy = -407.02477157369452
 One-Electron (beta)  Energy = -407.02477157369452
 Total Coulomb        Energy = 343.18422294084962
 ---------------------------------------
  Cycle       Energy         DIIS error
 ---------------------------------------
    1    -318.2706918008      3.26e-02  
 Alpha HF Exchange    Energy =  -3.82169951874215
 Beta HF Exchange     Energy =  -3.82169951874215
 DFT Correlation      Energy =  -1.88316105266839
 DFT Exchange         Energy = -30.36569327075782
 One-Electron (alpha) Energy = -410.19369005680682
 One-Electron (beta)  Energy = -410.19369005680687
 Total Coulomb        Energy = 351.01977327684136
    2    -317.5395949057      3.67e-03  
 Alpha HF Exchange    Energy =  -3.75006452868782
 Beta HF Exchange     Energy =  -3.75006452868783
 DFT Correlation      Energy =  -1.86129205431220
 DFT Exchange         Energy = -29.79492671731892
 One-Electron (alpha) Energy = -407.04379249459453
 One-Electron (beta)  Energy = -407.04379249459481
 Total Coulomb        Energy = 343.99007261144743
    3    -317.5335949148      4.00e-03  
 Alpha HF Exchange    Energy =  -3.78785733490123
 Beta HF Exchange     Energy =  -3.78785733490123
 DFT Correlation      Energy =  -1.87217017540895
 DFT Exchange         Energy = -30.09155429810663
 One-Electron (alpha) Energy = -408.66280219689730
 One-Electron (beta)  Energy = -408.66280219689725
 Total Coulomb        Energy = 347.54191153259376
    4    -317.6028667125      4.70e-04  
 Alpha HF Exchange    Energy =  -3.78618932423669
 Beta HF Exchange     Energy =  -3.78618932423668
 DFT Correlation      Energy =  -1.87249142320772
 DFT Exchange         Energy = -30.08134774838673
 One-Electron (alpha) Energy = -408.69559611379594
 One-Electron (beta)  Energy = -408.69559611379572
 Total Coulomb        Energy = 347.59358888999907
    5    -317.6035558657      2.15e-04  
 Alpha HF Exchange    Energy =  -3.78652816818805
 Beta HF Exchange     Energy =  -3.78652816818805
 DFT Correlation      Energy =  -1.87226976588293
 DFT Exchange         Energy = -30.08288550236699
 One-Electron (alpha) Energy = -408.66715566289895
 One-Electron (beta)  Energy = -408.66715566289872
 Total Coulomb        Energy = 347.53850081681639
    6    -317.6037568216      2.58e-05  
 Alpha HF Exchange    Energy =  -3.78643419868004
 Beta HF Exchange     Energy =  -3.78643419868005
 DFT Correlation      Energy =  -1.87225428691752
 DFT Exchange         Energy = -30.08213548832286
 One-Electron (alpha) Energy = -408.66291904792246
 One-Electron (beta)  Energy = -408.66291904792268
 Total Coulomb        Energy = 347.52907171670046
    7    -317.6037592597      1.17e-05  
 Alpha HF Exchange    Energy =  -3.78647476199013
 Beta HF Exchange     Energy =  -3.78647476199014
 DFT Correlation      Energy =  -1.87227052997124
 DFT Exchange         Energy = -30.08247797644908
 One-Electron (alpha) Energy = -408.66627171691209
 One-Electron (beta)  Energy = -408.66627171691215
 Total Coulomb        Energy = 347.53621625366605
    8    -317.6037599186      1.33e-06  
 Alpha HF Exchange    Energy =  -3.78647580104453
 Beta HF Exchange     Energy =  -3.78647580104453
 DFT Correlation      Energy =  -1.87227025740589
 DFT Exchange         Energy = -30.08248448049154
 One-Electron (alpha) Energy = -408.66622174937595
 One-Electron (beta)  Energy = -408.66622174937606
 Total Coulomb        Energy = 347.53612462194093
    9    -317.6037599248      6.07e-07  Convergence criterion met
 ---------------------------------------
 SCF time:   CPU 21.22s  wall 2.00s 
<S^2> =         -0.000000000
 Alpha HF Exchange    Energy =  -3.78647580104453
 Beta HF Exchange     Energy =  -3.78647580104453
 DFT Correlation      Energy =  -1.87227025740589
 DFT Exchange         Energy = -30.08248448049154
 One-Electron (alpha) Energy = -408.66622174937595
 One-Electron (beta)  Energy = -408.66622174937606
 Total Coulomb        Energy = 347.53612462194093
 Nuclear repulsion Energy = 191.72026529199735
 SCF   energy in the final basis set =     -317.6037599248
 Total energy in the final basis set =     -317.6037599248
 
 --------------------------------------------------------------
 
                    Orbital Energies (a.u.)
 --------------------------------------------------------------
 
 Alpha MOs
 -- Occupied --
-24.688 -24.668 -10.265 -10.261 -10.192  -1.227  -1.173  -0.791
 -0.697  -0.611  -0.527  -0.518  -0.498  -0.469  -0.440  -0.411
 -0.397  -0.380  -0.337  -0.330  -0.309
 -- Virtual --
  0.090   0.104   0.119   0.148   0.167   0.180   0.184   0.204
  0.236   0.260   0.521   0.527   0.544   0.557   0.589   0.613
  0.641   0.664   0.700   0.797   0.847   0.862   0.871   0.890
  0.907   0.945   1.079   1.134   1.197   1.206   1.306   1.366
  1.381   1.390   1.410   1.421   1.522   1.628   1.637   1.726
  1.749   1.780   1.813   1.839   1.893   1.933   1.990   2.004
  2.022   2.030   2.061   2.067   2.093   2.116   2.121   2.212
  2.240   2.300   2.324   2.375   2.444   2.499   2.628   2.682
  2.709   2.723   2.776   2.849   2.898   2.913   2.936   3.095
  3.114   3.176   3.242   3.302   3.442   3.462   3.494   4.181
  4.342   4.481   4.632   4.683
 
 Beta MOs
 -- Occupied --
-24.688 -24.668 -10.265 -10.261 -10.192  -1.227  -1.173  -0.791
 -0.697  -0.611  -0.527  -0.518  -0.498  -0.469  -0.440  -0.411
 -0.397  -0.380  -0.337  -0.330  -0.309
 -- Virtual --
  0.090   0.104   0.119   0.148   0.167   0.180   0.184   0.204
  0.236   0.260   0.521   0.527   0.544   0.557   0.589   0.613
  0.641   0.664   0.700   0.797   0.847   0.862   0.871   0.890
  0.907   0.945   1.079   1.134   1.197   1.206   1.306   1.366
  1.381   1.390   1.410   1.421   1.522   1.628   1.637   1.726
  1.749   1.780   1.813   1.839   1.893   1.933   1.990   2.004
  2.022   2.030   2.061   2.067   2.093   2.116   2.121   2.212
  2.240   2.300   2.324   2.375   2.444   2.499   2.628   2.682
  2.709   2.723   2.776   2.849   2.898   2.913   2.936   3.095
  3.114   3.176   3.242   3.302   3.442   3.462   3.494   4.181
  4.342   4.481   4.632   4.683
 --------------------------------------------------------------
 
          Ground-State Mulliken Net Atomic Charges

     Atom                 Charge (a.u.)    Spin (a.u.)
  --------------------------------------------------------
      1 F                    -0.326315      -0.000000
      2 F                    -0.268166       0.000000
      3 C                     0.204244       0.000000
      4 C                     0.139140      -0.000000
      5 C                    -0.352177       0.000000
      6 H                     0.092642       0.000000
      7 H                     0.069587       0.000000
      8 H                     0.082902       0.000000
      9 H                     0.120818      -0.000000
     10 H                     0.109119      -0.000000
     11 H                     0.128206      -0.000000
  --------------------------------------------------------
  Sum of atomic charges =    -0.000000
  Sum of spin   charges =     0.000000

 -----------------------------------------------------------------
[...]
      9  H        -1.8362876261    0.7741086739    1.1064112846
     10  H        -1.7618541576    1.6788321845   -0.4221342264
     11  H        -2.5804616706    0.1075778040   -0.3561389210
   Point Group: c1    Number of degrees of freedom:    27


   Energy is   -317.603814449

              Constraints and their Current Values
                                        Value     Constraint
   Distance(Angs):        2   4             1.300000     1.300000
 Hessian Updated using BFGS Update

 26 Hessian modes will be used to form the next step
  Hessian Eigenvalues:
     0.002472    0.040521    0.046167    0.073700    0.082510    0.083510
     0.084422    0.085174    0.114002    0.158985    0.160072    0.160124
     0.163095    0.176577    0.185319    0.221938    0.249291    0.304382
     0.329692    0.341524    0.342551    0.342945    0.343577    0.345162
     0.345475    0.444325

 Minimum Search - Taking Simple RFO Step
 Searching for Lamda that Minimizes Along All modes
 Value Taken    Lamda =   0.00000000
 Step Taken.  Stepsize is  0.005058

                             Maximum     Tolerance    Cnvgd?
         Gradient           0.000140      0.000300     YES
         Displacement       0.002211      0.001200      NO
         Energy change     -0.000004      0.000001      NO


 New Cartesian Coordinates Obtained by Inverse Iteration

 Displacement from previous Coordinates is:  0.005702
 ----------------------------------------------------------------
             Standard Nuclear Orientation (Angstroms)
    I     Atom           X                Y                Z
 ----------------------------------------------------------------
    1      F      -0.4967726164    -1.3456928065     0.1554345508
    2      F       1.8929402891     0.0656775094    -0.1466159917
    3      C      -0.4350439866    -0.0340172162    -0.3306663376
    4      C       0.7977599162     0.6281700177     0.2707353975
    5      C      -1.7287243540     0.6785768434     0.0212982738
    6      H      -0.3060953456    -0.1010793026    -1.4196078061
    7      H       0.7865359432     1.6984702309     0.0045261286
    8      H       0.7210657516     0.5596714063     1.3681285951
    9      H      -1.8368223454     0.7732825897     1.1065879452
   10      H      -1.7605544513     1.6789742507    -0.4212887771
   11      H      -2.5805888007     0.1083664773    -0.3568319785
 ----------------------------------------------------------------
 Nuclear Repulsion Energy =   191.6097241819 hartrees
 There are       21 alpha and       21 beta electrons

                       Distance Matrix (Angstroms)
             F (  1)   F (  2)   C (  3)   C (  4)   C (  5)   H (  6)
   F (  2)  2.791761
   C (  3)  1.400213  2.337376
   C (  4)  2.363312  1.300000  1.523149
   C (  5)  2.373471  3.676995  1.518314  2.539268
   H (  6)  2.016477  2.546384  1.098598  2.146523  2.169780
   H (  7)  3.307050  1.978127  2.146188  1.102967  2.714221  2.541728
   H (  8)  2.565964  1.977820  2.138916  1.102200  2.798135  3.043538
   H (  9)  2.681508  3.997794  2.163889  2.767803  1.094764  3.080471
   H ( 10)  3.328418  4.003273  2.167840  2.850975  1.094391  2.506129
   H ( 11)  2.592102  4.478669  2.150423  3.475238  1.092609  2.519262
             H (  7)   H (  8)   H (  9)   H ( 10)
   H (  8)  1.777797
   H (  9)  2.992076  2.580082
   H ( 10)  2.582512  3.257805  1.777780
   H ( 11)  3.741195  3.752344  1.771130  1.772969
 
 Applying Cartesian multipole field
    Component          Value
    ---------          -----
     (2,0,0)        1.00000E-11
     (0,2,0)        2.00000E-11
     (0,0,2)       -3.00000E-10
 Nucleus-field energy     =    -0.0000000029 hartrees
 Requested basis set is 6-31G(d,p)
 There are 38 shells and 105 basis functions
 A cutoff of  1.0D-14 yielded    720 shell pairs
 There are      5627 function pairs
 Smallest overlap matrix eigenvalue = 3.38E-03
 Guess from superposition of atomic densities
 Warning:  Energy on first SCF cycle will be non-variational
 SAD guess density has 42.000000 electrons

 -----------------------------------------------------------------------
  General SCF calculation program by
  Eric Jon Sundstrom, Paul Horn, Yuezhi Mao, Dmitri Zuev, Alec White,
  David Stuck, Shaama M.S., Shane Yost, Joonho Lee, David Small,
  Daniel Levine, Susi Lehtola, Hugh Burton, Evgeny Epifanovsky
 -----------------------------------------------------------------------
 Exchange:     0.2000 Hartree-Fock + 0.0800 Slater + 0.7200 B88
 Correlation:  0.1900 VWN1RPA + 0.8100 LYP
 Using SG-1 standard quadrature grid
 using 12 threads for integral computing
 -------------------------------------------------------
 OpenMP Integral computing Module                
 Release: version 1.0, May 2013, Q-Chem Inc. Pittsburgh 
 -------------------------------------------------------
 -------------------------------------------------------
 OpenMP BLAS3 based DFT computing Module                
 Release: version 1.0, May 2013, Q-Chem Inc. Pittsburgh 
 -------------------------------------------------------
 A unrestricted SCF calculation will be
 performed using DIIS
 SCF converges when DIIS error is below 1.0e-06
 Alpha HF Exchange    Energy =  -3.79340921154801
 Beta HF Exchange     Energy =  -3.79340921154801
 DFT Correlation      Energy =  -1.85867655003584
 DFT Exchange         Energy = -29.67996038736518
 One-Electron (alpha) Energy = -406.91451579871000
 One-Electron (beta)  Energy = -406.91451579871000
 Total Coulomb        Energy = 343.07460045894925
 ---------------------------------------
  Cycle       Energy         DIIS error
 ---------------------------------------
    1    -318.2701623200      3.26e-02  
 Alpha HF Exchange    Energy =  -3.82171171873934
 Beta HF Exchange     Energy =  -3.82171171873933
 DFT Correlation      Energy =  -1.88315807769597
 DFT Exchange         Energy = -30.36582857328617
 One-Electron (alpha) Energy = -410.08229033059024
 One-Electron (beta)  Energy = -410.08229033059007
 Total Coulomb        Energy = 350.90758853335836
    2    -317.5396780373      3.67e-03  
 Alpha HF Exchange    Energy =  -3.75007127725864
 Beta HF Exchange     Energy =  -3.75007127725864
 DFT Correlation      Energy =  -1.86129413372478
 DFT Exchange         Energy = -29.79498098590222
 One-Electron (alpha) Energy = -406.93530931752775
 One-Electron (beta)  Energy = -406.93530931752747
 Total Coulomb        Energy = 343.88362912957001
    3    -317.5336830006      4.00e-03  
 Alpha HF Exchange    Energy =  -3.78785316901450
 Beta HF Exchange     Energy =  -3.78785316901451
 DFT Correlation      Energy =  -1.87216614968520
 DFT Exchange         Energy = -30.09153927583836
 One-Electron (alpha) Energy = -408.55172584176603
 One-Electron (beta)  Energy = -408.55172584176626
 Total Coulomb        Energy = 347.43021823337438
    4    -317.6029210347      4.70e-04  
 Alpha HF Exchange    Energy =  -3.78619599823617
 Beta HF Exchange     Energy =  -3.78619599823617
 DFT Correlation      Energy =  -1.87249040434490
 DFT Exchange         Energy = -30.08141856259719
 One-Electron (alpha) Energy = -408.58535903566076
 One-Electron (beta)  Energy = -408.58535903566070
 Total Coulomb        Energy = 347.48368416238520
    5    -317.6036106933      2.15e-04  
 Alpha HF Exchange    Energy =  -3.78653134669357
 Beta HF Exchange     Energy =  -3.78653134669357
 DFT Correlation      Energy =  -1.87226810300130
 DFT Exchange         Energy = -30.08292978941330
 One-Electron (alpha) Energy = -408.55675123805702
 One-Electron (beta)  Energy = -408.55675123805696
 Total Coulomb        Energy = 347.42822704996030
    6    -317.6038118330      2.58e-05  
 Alpha HF Exchange    Energy =  -3.78643698773145
 Beta HF Exchange     Energy =  -3.78643698773145
 DFT Correlation      Energy =  -1.87225226660932
 DFT Exchange         Energy = -30.08217630981780
 One-Electron (alpha) Energy = -408.55244135743379
 One-Electron (beta)  Energy = -408.55244135743385
 Total Coulomb        Energy = 347.41864683171696
    7    -317.6038142560      1.18e-05  
 Alpha HF Exchange    Energy =  -3.78647785748958
 Beta HF Exchange     Energy =  -3.78647785748958
 DFT Correlation      Energy =  -1.87226861853859
 DFT Exchange         Energy = -30.08252126137366
 One-Electron (alpha) Energy = -408.55581483144522
 One-Electron (beta)  Energy = -408.55581483144528
 Total Coulomb        Energy = 347.42583615646271
    8    -317.6038149223      1.31e-06  
 Alpha HF Exchange    Energy =  -3.78647906950569
 Beta HF Exchange     Energy =  -3.78647906950569
 DFT Correlation      Energy =  -1.87226839985708
 DFT Exchange         Energy = -30.08252908085510
 One-Electron (alpha) Energy = -408.55577605858105
 One-Electron (beta)  Energy = -408.55577605858105
 Total Coulomb        Energy = 347.42576862962477
    9    -317.6038149283      6.14e-07  Convergence criterion met
 ---------------------------------------
 SCF time:   CPU 21.56s  wall 2.00s 
<S^2> =          0.000000000
 Alpha HF Exchange    Energy =  -3.78647906950569
 Beta HF Exchange     Energy =  -3.78647906950569
 DFT Correlation      Energy =  -1.87226839985708
 DFT Exchange         Energy = -30.08252908085510
 One-Electron (alpha) Energy = -408.55577605858105
 One-Electron (beta)  Energy = -408.55577605858105
 Total Coulomb        Energy = 347.42576862962477
 Nuclear repulsion Energy = 191.60972417900345
 SCF   energy in the final basis set =     -317.6038149283
 Total energy in the final basis set =     -317.6038149283
 
 --------------------------------------------------------------
 
                    Orbital Energies (a.u.)
 --------------------------------------------------------------
 
 Alpha MOs
 -- Occupied --
-24.688 -24.668 -10.265 -10.261 -10.192  -1.227  -1.173  -0.791
 -0.697  -0.611  -0.527  -0.518  -0.498  -0.469  -0.440  -0.411
 -0.397  -0.380  -0.337  -0.330  -0.309
 -- Virtual --
  0.091   0.104   0.119   0.148   0.165   0.178   0.187   0.203
  0.236   0.259   0.521   0.528   0.544   0.558   0.588   0.611
  0.645   0.664   0.701   0.797   0.847   0.862   0.870   0.890
  0.907   0.946   1.077   1.135   1.197   1.204   1.303   1.364
  1.384   1.388   1.409   1.424   1.523   1.628   1.638   1.725
  1.747   1.780   1.815   1.839   1.894   1.932   1.990   2.003
  2.024   2.030   2.062   2.068   2.091   2.116   2.122   2.210
  2.241   2.299   2.327   2.374   2.444   2.501   2.627   2.682
  2.709   2.723   2.774   2.849   2.898   2.915   2.935   3.095
  3.114   3.176   3.243   3.302   3.442   3.460   3.495   4.175
  4.330   4.483   4.635   4.706
 
 Beta MOs
 -- Occupied --
-24.688 -24.668 -10.265 -10.261 -10.192  -1.227  -1.173  -0.791
 -0.697  -0.611  -0.527  -0.518  -0.498  -0.469  -0.440  -0.411
 -0.397  -0.380  -0.337  -0.330  -0.309
 -- Virtual --
  0.091   0.104   0.119   0.148   0.165   0.178   0.187   0.203
  0.236   0.259   0.521   0.528   0.544   0.558   0.588   0.611
  0.645   0.664   0.701   0.797   0.847   0.862   0.870   0.890
  0.907   0.946   1.077   1.135   1.197   1.204   1.303   1.364
  1.384   1.388   1.409   1.424   1.523   1.628   1.638   1.725
  1.747   1.780   1.815   1.839   1.894   1.932   1.990   2.003
  2.024   2.030   2.062   2.068   2.091   2.116   2.122   2.210
  2.241   2.299   2.327   2.374   2.444   2.501   2.627   2.682
  2.709   2.723   2.774   2.849   2.898   2.915   2.935   3.095
  3.114   3.176   3.243   3.302   3.442   3.460   3.495   4.175
  4.330   4.483   4.635   4.706
 --------------------------------------------------------------
 
          Ground-State Mulliken Net Atomic Charges

     Atom                 Charge (a.u.)    Spin (a.u.)
  --------------------------------------------------------
      1 F                    -0.326972      -0.000000
      2 F                    -0.268439      -0.000000
      3 C                     0.204422       0.000000
      4 C                     0.138628      -0.000000
      5 C                    -0.352685      -0.000000
      6 H                     0.093126       0.000000
      7 H                     0.069804      -0.000000
      8 H                     0.084035       0.000000
      9 H                     0.119324       0.000000
     10 H                     0.109783       0.000000
     11 H                     0.128973       0.000000
  --------------------------------------------------------
  Sum of atomic charges =     0.000000
  Sum of spin   charges =    -0.000000

 -----------------------------------------------------------------
                    Cartesian Multipole Moments
 -----------------------------------------------------------------
    Charge (ESU x 10^10)
                 0.0000
    Dipole Moment (Debye)
         X      -1.1850      Y       2.0590      Z      -0.1358
       Tot       2.3795
    Quadrupole Moments (Debye-Ang)
        XX     -30.7565     XY      -0.4015     YY     -30.2982
        XZ       0.8344     YZ       0.4268     ZZ     -27.8912
    Octopole Moments (Debye-Ang^2)
       XXX       5.0027    XXY      -3.8099    XYY       5.5982
       YYY      -8.2715    XXZ       0.1321    XYZ      -0.1065
       YYZ      -0.8463    XZZ       4.0803    YZZ      -3.8838
       ZZZ      -0.0224
    Hexadecapole Moments (Debye-Ang^3)
      XXXX    -318.6317   XXXY       6.9145   XXYY     -74.1830
      XYYY       3.9270   YYYY    -132.5232   XXXZ       0.2665
      XXYZ      -0.1412   XYYZ      -0.1496   YYYZ      -3.8528
      XXZZ     -60.7424   XYZZ       1.5955   YYZZ     -31.6138
      XZZZ      -2.9133   YZZZ      -1.4252   ZZZZ     -53.2305
 -----------------------------------------------------------------
 Calculating analytic gradient of the SCF energy
 Gradient of SCF Energy
            1           2           3           4           5           6
    1  -0.0000038  -0.0606768  -0.0000515   0.0607249  -0.0000135   0.0000193
    2  -0.0000345   0.0311582   0.0000312  -0.0310956   0.0000343  -0.0000138
    3   0.0000421   0.0231316  -0.0000341  -0.0230708  -0.0000433  -0.0000004
            7           8           9          10          11
    1  -0.0000008  -0.0000102  -0.0000085   0.0000140   0.0000069
    2  -0.0000140  -0.0000403  -0.0000117  -0.0000037  -0.0000102
    3  -0.0000191   0.0000042  -0.0000055  -0.0000034  -0.0000014
 Max gradient component =       6.072E-02
 RMS gradient           =       1.773E-02
 Gradient time:  CPU 8.51 s  wall 0.74 s
 Geometry Optimization Parameters
   NAtoms,    NIC,     NZ,  NCons,   NDum,   NFix, NCnnct, MaxDiis
       11      68       0       1       0       0       0       0

 Cartesian Hessian Update
 Hessian Updated using BFGS Update


** CONSTRAINED OPTIMIZATION IN DELOCALIZED INTERNAL COORDINATES **
   Searching for a Minimum

   Optimization Cycle:  11

                       Coordinates (Angstroms)
     ATOM                X               Y               Z
      1  F        -0.4967726164   -1.3456928065    0.1554345508
      2  F         1.8929402891    0.0656775094   -0.1466159917
      3  C        -0.4350439866   -0.0340172162   -0.3306663376
      4  C         0.7977599162    0.6281700177    0.2707353975
      5  C        -1.7287243540    0.6785768434    0.0212982738
      6  H        -0.3060953456   -0.1010793026   -1.4196078061
      7  H         0.7865359432    1.6984702309    0.0045261286
      8  H         0.7210657516    0.5596714063    1.3681285951
      9  H        -1.8368223454    0.7732825897    1.1065879452
     10  H        -1.7605544513    1.6789742507   -0.4212887771
     11  H        -2.5805888007    0.1083664773   -0.3568319785
   Point Group: c1    Number of degrees of freedom:    27


   Energy is   -317.603814928

              Constraints and their Current Values
                                        Value     Constraint
   Distance(Angs):        2   4             1.300000     1.300000
 Hessian Updated using BFGS Update

 26 Hessian modes will be used to form the next step
  Hessian Eigenvalues:
     0.002429    0.037073    0.048762    0.069945    0.082522    0.083568
     0.084329    0.085173    0.114105    0.158507    0.160089    0.160153
     0.162887    0.176469    0.183061    0.221760    0.240545    0.306070
     0.332219    0.341748    0.342538    0.343005    0.343695    0.345213
     0.347490    0.427288

 Minimum Search - Taking Simple RFO Step
 Searching for Lamda that Minimizes Along All modes
 Value Taken    Lamda =   0.00000000
 Step Taken.  Stepsize is  0.001617

                             Maximum     Tolerance    Cnvgd?
         Gradient           0.000044      0.000300     YES
         Displacement       0.000810      0.001200     YES
         Energy change     -0.000000      0.000001     YES


                       Distance Matrix (Angstroms)
             F (  1)   F (  2)   C (  3)   C (  4)   C (  5)   H (  6)
   F (  2)  2.791761
   C (  3)  1.400213  2.337376
   C (  4)  2.363312  1.300000  1.523149
   C (  5)  2.373471  3.676995  1.518314  2.539268
   H (  6)  2.016477  2.546384  1.098598  2.146523  2.169780
   H (  7)  3.307050  1.978127  2.146188  1.102967  2.714221  2.541728
   H (  8)  2.565964  1.977820  2.138916  1.102200  2.798135  3.043538
   H (  9)  2.681508  3.997794  2.163889  2.767803  1.094764  3.080471
   H ( 10)  3.328418  4.003273  2.167840  2.850975  1.094391  2.506129
   H ( 11)  2.592102  4.478669  2.150423  3.475238  1.092609  2.519262
             H (  7)   H (  8)   H (  9)   H ( 10)
   H (  8)  1.777797
   H (  9)  2.992076  2.580082
   H ( 10)  2.582512  3.257805  1.777780
   H ( 11)  3.741195  3.752344  1.771130  1.772969
 
 Final energy is   -317.603814928258     


 ******************************
 **  OPTIMIZATION CONVERGED  **
 ******************************

                       Coordinates (Angstroms)
     ATOM                X               Y               Z
      1  F        -0.4967726164   -1.3456928065    0.1554345508
      2  F         1.8929402891    0.0656775094   -0.1466159917
      3  C        -0.4350439866   -0.0340172162   -0.3306663376
      4  C         0.7977599162    0.6281700177    0.2707353975
      5  C        -1.7287243540    0.6785768434    0.0212982738
      6  H        -0.3060953456   -0.1010793026   -1.4196078061
      7  H         0.7865359432    1.6984702309    0.0045261286
      8  H         0.7210657516    0.5596714063    1.3681285951
      9  H        -1.8368223454    0.7732825897    1.1065879452
     10  H        -1.7605544513    1.6789742507   -0.4212887771
     11  H        -2.5805888007    0.1083664773   -0.3568319785

Z-matrix Print:
$molecule
0 1
F 
C  1 1.400213
H  2 1.098598 1 106.983808
C  2 1.518314 1 108.760705 3 119.970190 0
H  4 1.092609 2 109.825062 1 -54.900391 0
H  4 1.094391 2 111.103659 1 -174.728289 0
H  4 1.094764 2 110.765244 1 64.475598 0
C  2 1.523149 1 107.810321 3 -116.920217 0
H  8 1.102200 2 108.046083 1 -56.344283 0
H  8 1.102967 2 108.562489 1 -172.584686 0
F  8 1.300000 2 111.530011 1 65.378078 0
$end

PES scan, value:    1.3000 energy: -317.6038149283
------- Summary of potential scan: ------ 
    1.3000      -317.6038149283
----------------------------------------- 
Archival summary:
1\1\hpc0244\JobtypUnspecified\ProcedureUnspecified\6-31G**\236\knomura\WedMar1318:22:592019WedMar1318:22:592019\0\\#,JobtypUnspecified,ProcedureUnspecified,6-31G**,\\0,1\F\C,1,1.40021\H,2,1.0986,1,106.984\C,2,1.51831,1,108.761,3,119.97,0\H,4,1.09261,2,109.825,1,-54.9004,0\H,4,1.09439,2,111.104,1,-174.728,0\H,4,1.09476,2,110.765,1,64.4756,0\C,2,1.52315,1,107.81,3,-116.92,0\H,8,1.1022,2,108.046,1,-56.3443,0\H,8,1.10297,2,108.562,1,-172.585,0\F,8,1.3,2,111.53,1,65.3781,0\\\@

 Total job time:  32.20s(wall), 371.90s(cpu) 
 Wed Mar 13 18:22:59 2019

        *************************************************************
        *                                                           *
        *  Thank you very much for using Q-Chem.  Have a nice day.  *
        *                                                           *
        *************************************************************


