
Running Job 1 of 1 thiol/01/C-S.xyz.data/inputs/bond_singlet_1.7.in
qchem thiol/01/C-S.xyz.data/inputs/bond_singlet_1.7.in_9555.0 /staging/scratch/2868767/qchem9555/ 1
/usr/usc/qchem/5.1.1/exe/qcprog.exe_s thiol/01/C-S.xyz.data/inputs/bond_singlet_1.7.in_9555.0 /staging/scratch/2868767/qchem9555/
Check license passed

                  Welcome to Q-Chem
     A Quantum Leap Into The Future Of Chemistry


 Q-Chem 5.1, Q-Chem, Inc., Pleasanton, CA (2018)

 Yihan Shao,  Zhengting Gan,  E. Epifanovsky,  A. T. B. Gilbert,  M. Wormit,  
 J. Kussmann,  A. W. Lange,  A. Behn,  Jia Deng,  Xintian Feng,  D. Ghosh,  
 M. Goldey,  P. R. Horn,  L. D. Jacobson,  I. Kaliman,  T. Kus,  A. Landau,  
 Jie Liu,  E. I. Proynov,  R. M. Richard,  R. P. Steele,  E. J. Sundstrom,  
 H. L. Woodcock III,  P. M. Zimmerman,  D. Zuev,  B. Albrecht,  E. Alguire,  
 S. A. Baeppler,  D. Barton,  Z. Benda,  Y. A. Bernard,  E. J. Berquist,  
 K. B. Bravaya,  H. Burton,  D. Casanova,  Chun-Min Chang,  Yunqing Chen,  
 A. Chien,  K. D. Closser,  M. P. Coons,  S. Coriani,  S. Dasgupta,  
 A. L. Dempwolff,  M. Diedenhofen,  Hainam Do,  R. G. Edgar,  Po-Tung Fang,  
 S. Faraji,  S. Fatehi,  Qingguo Feng,  K. D. Fenk,  J. Fosso-Tande,  
 Qinghui Ge,  A. Ghysels,  G. Gidofalvi,  J. Gomes,  J. Gonthier,  A. Gunina,  
 D. Hait,  M. W. D. Hanson-Heine,  P. H. P. Harbach,  A. W. Hauser,  
 J. E. Herr,  E. G. Hohenstein,  Z. C. Holden,  Kerwin Hui,  B. C. Huynh,  
 T.-C. Jagau,  Hyunjun Ji,  B. Kaduk,  K. Khistyaev,  Jaehoon Kim,  
 P. Klunzinger,  K. Koh,  D. Kosenkov,  L. Koulias,  T. Kowalczyk,  
 C. M. Krauter,  A. Kunitsa,  Ka Un Lao,  A. Laurent,  K. V. Lawler,  
 Joonho Lee,  D. Lefrancois,  S. Lehtola,  D. S. Levine,  Yi-Pei Li,  
 You-Sheng Lin,  Fenglai Liu,  E. Livshits,  A. Luenser,  P. Manohar,  
 E. Mansoor,  S. F. Manzer,  Shan-Ping Mao,  Yuezhi Mao,  N. Mardirossian,  
 A. V. Marenich,  T. Markovich,  L. A. Martinez-Martinez,  S. A. Maurer,  
 N. J. Mayhall,  S. C. McKenzie,  J.-M. Mewes,  A. F. Morrison,  
 J. W. Mullinax,  K. Nanda,  T. S. Nguyen-Beck,  R. Olivares-Amaya,  
 J. A. Parkhill,  T. M. Perrine,  F. Plasser,  P. Pokhilko,  S. Prager,  
 A. Prociuk,  E. Ramos,  D. R. Rehn,  F. Rob,  M. Schneider,  N. Sergueev,  
 S. M. Sharada,  S. Sharma,  D. W. Small,  T. Stauch,  T. Stein,  
 Yu-Chuan Su,  A. J. W. Thom,  A. Tkatchenko,  T. Tsuchimochi,  N. M. Tubman,  
 L. Vogt,  M. L. Vidal,  O. Vydrov,  M. A. Watson,  J. Wenzel,  
 M. de Wergifosse,  T. A. Wesolowski,  A. White,  J. Witte,  A. Yamada,  
 Jun Yang,  K. Yao,  S. Yeganeh,  S. R. Yost,  Zhi-Qiang You,  A. Zech,  
 Igor Ying Zhang,  Xing Zhang,  Yan Zhao,  Ying Zhu,  B. R. Brooks,  
 G. K. L. Chan,  C. J. Cramer,  M. S. Gordon,  W. J. Hehre,  A. Klamt,  
 M. W. Schmidt,  C. D. Sherrill,  D. G. Truhlar,  A. Aspuru-Guzik,  R. Baer,  
 A. T. Bell,  N. A. Besley,  Jeng-Da Chai,  A. E. DePrince, III,  
 R. A. DiStasio Jr.,  A. Dreuw,  B. D. Dunietz,  T. R. Furlani,  
 Chao-Ping Hsu,  Yousung Jung,  Jing Kong,  D. S. Lambrecht,  WanZhen Liang,  
 C. Ochsenfeld,  V. A. Rassolov,  L. V. Slipchenko,  J. E. Subotnik,  
 T. Van Voorhis,  J. M. Herbert,  A. I. Krylov,  P. M. W. Gill,  M. Head-Gordon

 Contributors to earlier versions of Q-Chem not listed above: 
 R. D. Adamson,  B. Austin,  J. Baker,  G. J. O. Beran,  K. Brandhorst,  
 S. T. Brown,  E. F. C. Byrd,  A. K. Chakraborty,  C.-L. Cheng,  
 Siu Hung Chien,  D. M. Chipman,  D. L. Crittenden,  H. Dachsel,  
 R. J. Doerksen,  A. D. Dutoi,  L. Fusti-Molnar,  W. A. Goddard III,  
 A. Golubeva-Zadorozhnaya,  S. R. Gwaltney,  G. Hawkins,  A. Heyden,  
 S. Hirata,  G. Kedziora,  F. J. Keil,  C. Kelley,  Jihan Kim,  R. A. King,  
 R. Z. Khaliullin,  P. P. Korambath,  W. Kurlancheek,  A. M. Lee,  M. S. Lee,  
 S. V. Levchenko,  Ching Yeh Lin,  D. Liotard,  R. C. Lochan,  I. Lotan,  
 P. E. Maslen,  N. Nair,  D. P. O'Neill,  D. Neuhauser,  E. Neuscamman,  
 C. M. Oana,  R. Olson,  B. Peters,  R. Peverati,  P. A. Pieniazek,  
 Y. M. Rhee,  J. Ritchie,  M. A. Rohrdanz,  E. Rosta,  N. J. Russ,  
 H. F. Schaefer III,  N. E. Schultz,  N. Shenvi,  A. C. Simmonett,  A. Sodt,  
 D. Stuck,  K. S. Thanthiriwatte,  V. Vanovschi,  Tao Wang,  A. Warshel,  
 C. F. Williams,  Q. Wu,  X. Xu,  W. Zhang

 Please cite Q-Chem as follows:
 Y. Shao et al., Mol. Phys. 113, 184-215 (2015)
 DOI: 10.1080/00268976.2014.952696

 Q-Chem 5.1.1 for Intel X86 EM64T Linux

 Parts of Q-Chem use Armadillo 8.300.2 (Tropical Shenanigans).
 http://arma.sourceforge.net/

 Q-Chem begins on Wed Mar 13 13:45:55 2019  

Host: 
0

     Scratch files written to /staging/scratch/2868767/qchem9555//
 Aug318 |scratch|qcdevops|jenkins|workspace|build_RNUM 6013   
Processing $rem in /usr/usc/qchem/5.1.1/config/preferences.
 MEM_TOTAL  2000 
Input Ideriv = 2
Curr. Ideriv = -1
Max.  Ideriv = 2

Checking the input file for inconsistencies... 	...done.

--------------------------------------------------------------
User input:
--------------------------------------------------------------

$comment
potential surface scanner
$end

$rem
JOBTYPE  PES_SCAN
UNRESTRICTED TRUE
SYM_IGNORE  TRUE
GEOM_OPT_MAX_CYCLES 400
SCF_MAX_CYCLES 400
METHOD   B3LYP
BASIS   6-31G**
PDB_PRINT 2
SCF_CONVERGENCE 6
THRESH 14
SCF_PRINT 1
$end
$molecule
0 1
S 1.657900 -0.000200 0.107500
C -0.098900 0.000100 -0.384900
C -0.779700 -1.258900 0.138700
C -0.779300 1.259100 0.138700
H -0.135800 0.000100 -1.479400
H -1.829100 -1.282800 -0.175600
H -0.301500 -2.163300 -0.253500
H -0.763000 -1.307700 1.233500
H -1.828700 1.283400 -0.175500
H -0.300800 2.163400 -0.253400
H -0.762600 1.307800 1.233400
H 1.451400 -0.000200 1.432900
$end
$scan
stre 1 2 1.700000 1.701000 0.100000
$end
--------------------------------------------------------------
 ----------------------------------------------------------------
             Standard Nuclear Orientation (Angstroms)
    I     Atom           X                Y                Z
 ----------------------------------------------------------------
    1      S       1.6579000000    -0.0002000000     0.1075000000
    2      C      -0.0989000000     0.0001000000    -0.3849000000
    3      C      -0.7797000000    -1.2589000000     0.1387000000
    4      C      -0.7793000000     1.2591000000     0.1387000000
    5      H      -0.1358000000     0.0001000000    -1.4794000000
    6      H      -1.8291000000    -1.2828000000    -0.1756000000
    7      H      -0.3015000000    -2.1633000000    -0.2535000000
    8      H      -0.7630000000    -1.3077000000     1.2335000000
    9      H      -1.8287000000     1.2834000000    -0.1755000000
   10      H      -0.3008000000     2.1634000000    -0.2534000000
   11      H      -0.7626000000     1.3078000000     1.2334000000
   12      H       1.4514000000    -0.0002000000     1.4329000000
 ----------------------------------------------------------------
 Nuclear Repulsion Energy =   170.8093029501 hartrees
 There are       21 alpha and       21 beta electrons
 Requested basis set is 6-31G(d,p)
 There are 41 shells and 104 basis functions

 Total QAlloc Memory Limit   2000 MB
 Mega-Array Size       188 MB
 MEM_STATIC part       192 MB
A total of 1 constraints
  
            1
    1   1.0100000
    2   1.0100000
    3   2.0100000
    4   1.7000000
    5   1.7010000
    6   0.1000000
    7   0.0000000
    8   0.0000000
    9   0.0000000
   10   0.0000000

                       Distance Matrix (Angstroms)
             S (  1)   C (  2)   C (  3)   C (  4)   H (  5)   H (  6)
   C (  2)  1.824501
   C (  3)  2.743573  1.524049
   C (  4)  2.743493  1.523871  2.518000
   H (  5)  2.394914  1.095122  2.148938  2.148818
   H (  6)  3.726175  2.164077  1.095717  2.768053  2.492587
   H (  7)  2.940845  2.176835  1.095644  3.477777  2.492105  1.764911
   H (  8)  2.972909  2.184168  1.096014  2.790576  3.076288  1.767131
   H (  9)  3.726137  2.164004  2.768106  1.095697  2.492574  2.566200
   H ( 10)  2.940735  2.176677  3.477819  1.095656  2.492021  3.770683
   H ( 11)  2.972766  2.183912  2.790450  1.095910  3.076076  3.135907
   H ( 12)  1.341390  2.389106  2.870032  2.869985  3.316730  3.872211
             H (  7)   H (  8)   H (  9)   H ( 10)   H ( 11)
   H (  8)  1.776570
   H (  9)  3.770698  3.136048
   H ( 10)  4.326700  3.804344  1.764921
   H ( 11)  3.804211  2.615500  1.766965  1.776481
   H ( 12)  3.255089  2.579319  3.872162  3.254993  2.579236
 
 A cutoff of  1.0D-14 yielded    848 shell pairs
 There are      5541 function pairs
 
 -------------------------------------------------------
 OpenMP Integral Computing Module                       
 Release: version 1.0, May 2013, Q-Chem Inc. Pittsburgh 
 -------------------------------------------------------
 Integral Job Info:
 Integral job number is                      11
 Integral operator is                         1
 short-range coefficients                     0
 long-range coefficients              100000000
 Omega coefficients                           0
 if combine SR and LR in K                    0
 Integral screening is                        0
 Integral computing path is                   2
 max size of driver memory is            800000
 size of driver memory is                593474
 size of scratch memory is             15267112
 max col of scratch BK array               1296
 max len of scratch array in speh3          155
 max len of scratch index in speh4           18
 max int batch size is                      520
 min int batch size is                       52
 fixed nKL is                                52
 max L of basis functions is                  2
 order of int derivative is                   0
 number of shells is                         41
 number of basis is                         104
 number of cartesian basis is               104
 number of contracted shell pairs           848
 number of primitive shell pairs           3123
 maxK2 (contraction) of shell pair           36
 max number of K2 of shell pair               1
 max number of CS2 of shell pair             78
 max number of PS2 of shell pair            282
 mem total for path MDJ                  514716
 -------------------------------------------------------
 Smallest overlap matrix eigenvalue = 5.73E-03

 Scale SEOQF with 1.000000e-01/1.000000e-01/1.000000e+00

 Standard Electronic Orientation quadrupole field applied
 Nucleus-field energy     =    -0.0000000047 hartrees
 Guess from superposition of atomic densities
 Warning:  Energy on first SCF cycle will be non-variational
 SAD guess density has 42.000000 electrons

 -----------------------------------------------------------------------
  General SCF calculation program by
  Eric Jon Sundstrom, Paul Horn, Yuezhi Mao, Dmitri Zuev, Alec White,
  David Stuck, Shaama M.S., Shane Yost, Joonho Lee, David Small,
  Daniel Levine, Susi Lehtola, Hugh Burton, Evgeny Epifanovsky
 -----------------------------------------------------------------------
 Exchange:     0.2000 Hartree-Fock + 0.0800 Slater + 0.7200 B88
 Correlation:  0.1900 VWN1RPA + 0.8100 LYP
 Using SG-1 standard quadrature grid
 using 12 threads for integral computing
 -------------------------------------------------------
 OpenMP Integral computing Module                
 Release: version 1.0, May 2013, Q-Chem Inc. Pittsburgh 
 -------------------------------------------------------
 -------------------------------------------------------
 OpenMP BLAS3 based DFT computing Module                
 Release: version 1.0, May 2013, Q-Chem Inc. Pittsburgh 
 -------------------------------------------------------
 A unrestricted SCF calculation will be
 performed using DIIS
 SCF converges when DIIS error is below 1.0e-06
 Alpha HF Exchange    Energy =  -4.36256288038906
 Beta HF Exchange     Energy =  -4.36256288038906
 DFT Correlation      Energy =  -1.87727576053363
 DFT Exchange         Energy = -34.02448041597552
 One-Electron (alpha) Energy = -522.06303460741196
 One-Electron (beta)  Energy = -522.06303460741196
 Total Coulomb        Energy = 400.13317172936854
 ---------------------------------------
  Cycle       Energy         DIIS error
 ---------------------------------------
    1    -517.8104764773      3.11e-02  
 Alpha HF Exchange    Energy =  -4.37040604736838
 Beta HF Exchange     Energy =  -4.37040604736838
 DFT Correlation      Energy =  -1.90622577906378
 DFT Exchange         Energy = -34.65986890116554
 One-Electron (alpha) Energy = -525.88057416874869
 One-Electron (beta)  Energy = -525.88057416874869
 Total Coulomb        Energy = 409.00695089444724
    2    -517.2518012726      3.85e-03  
 Alpha HF Exchange    Energy =  -4.31216257789589
 Beta HF Exchange     Energy =  -4.31216257789589
 DFT Correlation      Energy =  -1.87775893100012
 DFT Exchange         Energy = -34.16970583181845
 One-Electron (alpha) Energy = -521.87071881886379
 One-Electron (beta)  Energy = -521.87071881886379
 Total Coulomb        Energy = 400.37341760383151
    3    -517.2305070071      4.32e-03  
 Alpha HF Exchange    Energy =  -4.34027287453946
 Beta HF Exchange     Energy =  -4.34027287453946
 DFT Correlation      Energy =  -1.89255735739094
 DFT Exchange         Energy = -34.40629697261900
 One-Electron (alpha) Energy = -523.97932510190583
 One-Electron (beta)  Energy = -523.97932510190594
 Total Coulomb        Energy = 404.79024865425458
    4    -517.3384986832      4.59e-04  
 Alpha HF Exchange    Energy =  -4.34081932987041
 Beta HF Exchange     Energy =  -4.34081932987042
 DFT Correlation      Energy =  -1.89242721296698
 DFT Exchange         Energy = -34.40980630362819
 One-Electron (alpha) Energy = -523.97372836056013
 One-Electron (beta)  Energy = -523.97372836056059
 Total Coulomb        Energy = 404.78241271152046
    5    -517.3396132405      1.61e-04  
 Alpha HF Exchange    Energy =  -4.34082187537090
 Beta HF Exchange     Energy =  -4.34082187537091
 DFT Correlation      Energy =  -1.89246490102009
 DFT Exchange         Energy = -34.41001766054386
 One-Electron (alpha) Energy = -523.98048616268181
 One-Electron (beta)  Energy = -523.98048616268227
 Total Coulomb        Energy = 404.79604902751527
    6    -517.3397466647      3.33e-05  
 Alpha HF Exchange    Energy =  -4.34071587312395
 Beta HF Exchange     Energy =  -4.34071587312395
 DFT Correlation      Energy =  -1.89242779725157
 DFT Exchange         Energy = -34.40913494452886
 One-Electron (alpha) Energy = -523.96998542201175
 One-Electron (beta)  Energy = -523.96998542201163
 Total Coulomb        Energy = 404.77391009019584
    7    -517.3397522964      7.89e-06  
 Alpha HF Exchange    Energy =  -4.34075452032435
 Beta HF Exchange     Energy =  -4.34075452032435
 DFT Correlation      Energy =  -1.89244339043316
 DFT Exchange         Energy = -34.40944151462648
 One-Electron (alpha) Energy = -523.97442011352791
 One-Electron (beta)  Energy = -523.97442011352780
 Total Coulomb        Energy = 404.78317852753332
    8    -517.3397526998      1.21e-06  
 Alpha HF Exchange    Energy =  -4.34075121995442
 Beta HF Exchange     Energy =  -4.34075121995443
 DFT Correlation      Energy =  -1.89244205157328
 DFT Exchange         Energy = -34.40941421206509
 One-Electron (alpha) Energy = -523.97395840099432
 One-Electron (beta)  Energy = -523.97395840099455
 Total Coulomb        Energy = 404.78221985125253
    9    -517.3397527088      2.29e-07  Convergence criterion met
 ---------------------------------------
 SCF time:   CPU 22.43s  wall 2.00s 
<S^2> =         -0.000000000
 Alpha HF Exchange    Energy =  -4.34075121995442
 Beta HF Exchange     Energy =  -4.34075121995443
 DFT Correlation      Energy =  -1.89244205157328
 DFT Exchange         Energy = -34.40941421206509
 One-Electron (alpha) Energy = -523.97395840099432
 One-Electron (beta)  Energy = -523.97395840099455
 Total Coulomb        Energy = 404.78221985125253
 Nuclear repulsion Energy = 170.80930294543529
 SCF   energy in the final basis set =     -517.3397527088
 Total energy in the final basis set =     -517.3397527088
 
 --------------------------------------------------------------
 
                    Orbital Energies (a.u.)
 --------------------------------------------------------------
 
 Alpha MOs
 -- Occupied --
-88.866 -10.226 -10.183 -10.183  -7.929  -5.894  -5.890  -5.884
 -0.822  -0.704  -0.692  -0.581  -0.464  -0.446  -0.418  -0.392
 -0.389  -0.351  -0.351  -0.310  -0.231
 -- Virtual --
  0.032   0.077   0.096   0.132   0.147   0.152   0.172   0.184
  0.187   0.211   0.233   0.342   0.364   0.398   0.408   0.498
  0.499   0.534   0.553   0.589   0.663   0.690   0.729   0.741
  0.743   0.802   0.836   0.854   0.859   0.878   0.889   0.915
  0.953   0.957   0.973   0.995   1.132   1.175   1.327   1.369
  1.386   1.548   1.554   1.731   1.778   1.836   1.853   1.899
  2.041   2.041   2.049   2.072   2.082   2.109   2.111   2.114
  2.150   2.270   2.311   2.341   2.383   2.526   2.563   2.621
  2.659   2.713   2.731   2.759   2.860   2.868   2.894   2.907
  3.163   3.214   3.320   3.414   3.449   3.468   3.499   4.005
  4.294   4.484   4.605
 
 Beta MOs
 -- Occupied --
-88.866 -10.226 -10.183 -10.183  -7.929  -5.894  -5.890  -5.884
 -0.822  -0.704  -0.692  -0.581  -0.464  -0.446  -0.418  -0.392
 -0.389  -0.351  -0.351  -0.310  -0.231
 -- Virtual --
  0.032   0.077   0.096   0.132   0.147   0.152   0.172   0.184
  0.187   0.211   0.233   0.342   0.364   0.398   0.408   0.498
  0.499   0.534   0.553   0.589   0.663   0.690   0.729   0.741
  0.743   0.802   0.836   0.854   0.859   0.878   0.889   0.915
  0.953   0.957   0.973   0.995   1.132   1.175   1.327   1.369
  1.386   1.548   1.554   1.731   1.778   1.836   1.853   1.899
  2.041   2.041   2.049   2.072   2.082   2.109   2.111   2.114
  2.150   2.270   2.311   2.341   2.383   2.526   2.563   2.621
  2.659   2.713   2.731   2.759   2.860   2.868   2.894   2.907
  3.163   3.214   3.320   3.414   3.449   3.468   3.499   4.005
  4.294   4.484   4.605
 --------------------------------------------------------------
 
          Ground-State Mulliken Net Atomic Charges

     Atom                 Charge (a.u.)    Spin (a.u.)
  --------------------------------------------------------
      1 S                    -0.045334       0.000000
      2 C                    -0.214172      -0.000000
      3 C                    -0.296151      -0.000000
      4 C                    -0.296136       0.000000
      5 H                     0.137980       0.000000
      6 H                     0.103247      -0.000000
      7 H                     0.121355       0.000000
      8 H                     0.105324      -0.000000
      9 H                     0.103250      -0.000000
     10 H                     0.121350      -0.000000
     11 H                     0.105337       0.000000
     12 H                     0.053951      -0.000000
  --------------------------------------------------------
  Sum of atomic charges =    -0.000000
  Sum of spin   charges =    -0.000000

 -----------------------------------------------------------------
                    Cartesian Multipole Moments
 -----------------------------------------------------------------
    Charge (ESU x 10^10)
                -0.0000
    Dipole Moment (Debye)
         X      -1.7854      Y       0.0003      Z       0.3815
       Tot       1.8257
    Quadrupole Moments (Debye-Ang)
        XX     -37.6112     XY       0.0001     YY     -35.3198
        XZ       1.5328     YZ      -0.0003     ZZ     -31.3965
    Octopole Moments (Debye-Ang^2)
       XXX     -36.1047    XXY       0.0009    XYY     -12.4288
       YYY       0.0028    XXZ       0.3469    XYZ      -0.0008
       YYZ      -2.9481    XZZ      -6.7621    YZZ       0.0001
       ZZZ      -4.8484
    Hexadecapole Moments (Debye-Ang^3)
      XXXX    -346.9880   XXXY       0.0005   XXYY     -99.7247
      XYYY       0.0079   YYYY    -210.1980   XXXZ       2.2018
      XXYZ      -0.0006   XYYZ      -2.5865   YYYZ       0.0023
      XXZZ     -64.8746   XYZZ       0.0011   YYZZ     -48.4748
      XZZZ      -4.2353   YZZZ       0.0007   ZZZZ     -69.6266
 -----------------------------------------------------------------
 Calculating analytic gradient of the SCF energy
 Gradient of SCF Energy
            1           2           3           4           5           6
    1  -0.0175214   0.0098289   0.0054051   0.0054178  -0.0058961   0.0016010
    2   0.0000011   0.0000725   0.0077232  -0.0077977   0.0000035  -0.0003253
    3   0.0089980  -0.0121171   0.0046875   0.0047042  -0.0000969  -0.0003228
            7           8           9          10          11          12
    1  -0.0002836  -0.0010391   0.0016113  -0.0002747  -0.0010427   0.0021934
    2  -0.0012630  -0.0009024   0.0003284   0.0012651   0.0008947  -0.0000003
    3  -0.0017383   0.0005885  -0.0003068  -0.0017395   0.0005186  -0.0031753
 Max gradient component =       1.752E-02
 RMS gradient           =       5.065E-03
 Gradient time:  CPU 8.85 s  wall 0.87 s
 Geometry Optimization Parameters
   NAtoms,    NIC,     NZ,  NCons,   NDum,   NFix, NCnnct, MaxDiis
       12      75       0       1       0       0       0       0


** CONSTRAINED OPTIMIZATION IN DELOCALIZED INTERNAL COORDINATES **
   Searching for a Minimum

   Optimization Cycle:   1

                       Coordinates (Angstroms)
     ATOM                X               Y               Z
      1  S         1.6579000000   -0.0002000000    0.1075000000
      2  C        -0.0989000000    0.0001000000   -0.3849000000
      3  C        -0.7797000000   -1.2589000000    0.1387000000
      4  C        -0.7793000000    1.2591000000    0.1387000000
      5  H        -0.1358000000    0.0001000000   -1.4794000000
      6  H        -1.8291000000   -1.2828000000   -0.1756000000
      7  H        -0.3015000000   -2.1633000000   -0.2535000000
      8  H        -0.7630000000   -1.3077000000    1.2335000000
      9  H        -1.8287000000    1.2834000000   -0.1755000000
     10  H        -0.3008000000    2.1634000000   -0.2534000000
     11  H        -0.7626000000    1.3078000000    1.2334000000
     12  H         1.4514000000   -0.0002000000    1.4329000000
   Point Group: c1    Number of degrees of freedom:    30


   Energy is   -517.339752709

              Constraints and their Current Values
                                        Value     Constraint
   Distance(Angs):        1   2             1.824501     1.700000

 Attempting to Generate Delocalized Internal Coordinates

   Using Lagrange Multiplier Algorithm


 31 Hessian modes will be used to form the next step
  Hessian Eigenvalues:
    -0.885951    0.045000    0.045000    0.045000    0.075600    0.078747
     0.081899    0.081901    0.083424    0.083430    0.094905    0.160000
     0.160000    0.160000    0.160000    0.160000    0.160000    0.160000
     0.178603    0.203813    0.263113    0.299799    0.299968    0.341268
     0.341385    0.341602    0.341625    0.341671    0.341685    0.342274
     1.128730

 Minimum Search - Taking P-RFO Step
 Searching for Lamda that Maximizes Along the Constraint modes Only
 Value Taken    Lamda =   0.03701797
 Searching for Lamda that Minimizes Along All other modes
 Value Taken    Lamda =  -0.02059925
 Step Taken.  Stepsize is  0.262354

                             Maximum     Tolerance    Cnvgd?
         Gradient            0.235273       0.000300      NO
         Displacement        0.227987       0.001200      NO
         Energy change     *********       0.000001      NO


 New Cartesian Coordinates Obtained by Inverse Iteration

 Displacement from previous Coordinates is:  0.282074
 ----------------------------------------------------------------
             Standard Nuclear Orientation (Angstroms)
    I     Atom           X                Y                Z
 ----------------------------------------------------------------
    1      S       1.5813277761    -0.0002359684     0.0536422860
    2      C      -0.0712849344     0.0000468929    -0.3610807192
    3      C      -0.7700500193    -1.2675008520     0.1456030833
    4      C      -0.7696706477     1.2677434560     0.1456404999
    5      H      -0.0856676368     0.0000219213    -1.4556591304
    6      H      -1.8197230166    -1.2848266291    -0.1754791909
    7      H      -0.2897272493    -2.1707809457    -0.2402757540
    8      H      -0.7576824823    -1.3139852559     1.2396400338
    9      H      -1.8193459941     1.2854204297    -0.1754182567
   10      H      -0.2890795159     2.1709194563    -0.2401596665
   11      H      -0.7573215946     1.3141942381     1.2396778191
   12      H       1.3781253148    -0.0002167431     1.3862689957
 ----------------------------------------------------------------
 Nuclear Repulsion Energy =   174.1590955204 hartrees
 There are       21 alpha and       21 beta electrons

                       Distance Matrix (Angstroms)
             S (  1)   C (  2)   C (  3)   C (  4)   H (  5)   H (  6)
   C (  2)  1.703856
   C (  3)  2.672713  1.533518
   C (  4)  2.672719  1.533481  2.535244
   H (  5)  2.248747  1.094673  2.153842  2.153866
   H (  6)  3.642776  2.177701  1.097819  2.778730  2.509312
   H (  7)  2.880712  2.185133  1.093402  3.493240  2.496234  1.769181
   H (  8)  2.933172  2.181772  1.095094  2.803980  3.072923  1.769560
   H (  9)  3.642796  2.177699  2.778756  1.097820  2.509364  2.570247
   H ( 10)  2.880739  2.185119  3.493262  1.093406  2.496320  3.780110
   H ( 11)  2.933204  2.181756  2.803981  1.095093  3.072948  3.144245
   H ( 12)  1.348030  2.270247  2.785663  2.785661  3.196755  3.783585
             H (  7)   H (  8)   H (  9)   H ( 10)   H ( 11)
   H (  8)  1.772916
   H (  9)  3.780115  3.144269
   H ( 10)  4.341700  3.814965  1.769185
   H ( 11)  3.814965  2.628180  1.769526  1.772892
   H ( 12)  3.184137  2.511805  3.783590  3.184129  2.511832
 
 Applying Cartesian multipole field
    Component          Value
    ---------          -----
     (2,0,0)        1.00000E-11
     (0,2,0)        2.00000E-11
     (0,0,2)       -3.00000E-10
 Nucleus-field energy     =    -0.0000000044 hartrees
 Requested basis set is 6-31G(d,p)
 There are 41 shells and 104 basis functions
 A cutoff of  1.0D-14 yielded    851 shell pairs
 There are      5550 function pairs
 Smallest overlap matrix eigenvalue = 5.79E-03
 Guess from superposition of atomic densities
 Warning:  Energy on first SCF cycle will be non-variational
 SAD guess density has 42.000000 electrons

 -----------------------------------------------------------------------
  General SCF calculation program by
  Eric Jon Sundstrom, Paul Horn, Yuezhi Mao, Dmitri Zuev, Alec White,
  David Stuck, Shaama M.S., Shane Yost, Joonho Lee, David Small,
  Daniel Levine, Susi Lehtola, Hugh Burton, Evgeny Epifanovsky
 -----------------------------------------------------------------------
 Exchange:     0.2000 Hartree-Fock + 0.0800 Slater + 0.7200 B88
 Correlation:  0.1900 VWN1RPA + 0.8100 LYP
 Using SG-1 standard quadrature grid
 using 12 threads for integral computing
 -------------------------------------------------------
 OpenMP Integral computing Module                
 Release: version 1.0, May 2013, Q-Chem Inc. Pittsburgh 
 -------------------------------------------------------
 -------------------------------------------------------
 OpenMP BLAS3 based DFT computing Module                
 Release: version 1.0, May 2013, Q-Chem Inc. Pittsburgh 
 -------------------------------------------------------
 A unrestricted SCF calculation will be
 performed using DIIS
 SCF converges when DIIS error is below 1.0e-06
 Alpha HF Exchange    Energy =  -4.37375234121683
 Beta HF Exchange     Energy =  -4.37375234121683
 DFT Correlation      Energy =  -1.88018589797244
 DFT Exchange         Energy = -34.04653895602620
 One-Electron (alpha) Energy = -525.37335737839169
 One-Electron (beta)  Energy = -525.37335737839169
 Total Coulomb        Energy = 403.33973238081541
 ---------------------------------------
  Cycle       Energy         DIIS error
 ---------------------------------------
    1    -517.9221163964      3.24e-02  
 Alpha HF Exchange    Energy =  -4.37502285627788
 Beta HF Exchange     Energy =  -4.37502285627788
 DFT Correlation      Energy =  -1.90947878753621
 DFT Exchange         Energy = -34.69325149668025
 One-Electron (alpha) Energy = -529.28244200962911
 One-Electron (beta)  Energy = -529.28244200962911
 Total Coulomb        Energy = 412.51676759184295
    2    -517.2417969082      3.89e-03  
 Alpha HF Exchange    Energy =  -4.31489431848741
 Beta HF Exchange     Energy =  -4.31489431848742
 DFT Correlation      Energy =  -1.88013332753641
 DFT Exchange         Energy = -34.18791701447449
 One-Electron (alpha) Energy = -525.04940643819998
 One-Electron (beta)  Energy = -525.04940643820009
 Total Coulomb        Energy = 403.42073534740530
    3    -517.2168209920      4.43e-03  
 Alpha HF Exchange    Energy =  -4.34426598039681
 Beta HF Exchange     Energy =  -4.34426598039680
 DFT Correlation      Energy =  -1.89545945288788
 DFT Exchange         Energy = -34.43431416885550
 One-Electron (alpha) Energy = -527.30285169298406
 One-Electron (beta)  Energy = -527.30285169298372
 Total Coulomb        Energy = 408.13400182702952
    4    -517.3309116255      4.21e-04  
 Alpha HF Exchange    Energy =  -4.34479983876217
 Beta HF Exchange     Energy =  -4.34479983876217
 DFT Correlation      Energy =  -1.89537081666871
 DFT Exchange         Energy = -34.43795955128482
 One-Electron (alpha) Energy = -527.29021888717944
 One-Electron (beta)  Energy = -527.29021888717978
 Total Coulomb        Energy = 408.11245711050117
    5    -517.3318151933      1.50e-04  
 Alpha HF Exchange    Energy =  -4.34478704836766
 Beta HF Exchange     Energy =  -4.34478704836765
 DFT Correlation      Energy =  -1.89538990423326
 DFT Exchange         Energy = -34.43796500313712
 One-Electron (alpha) Energy = -527.29836775023807
 One-Electron (beta)  Energy = -527.29836775023784
 Total Coulomb        Energy = 408.12864246608297
    6    -517.3319265225      3.28e-05  
 Alpha HF Exchange    Energy =  -4.34468498445092
 Beta HF Exchange     Energy =  -4.34468498445092
 DFT Correlation      Energy =  -1.89535582909731
 DFT Exchange         Energy = -34.43712613556955
 One-Electron (alpha) Energy = -527.28764389658591
 One-Electron (beta)  Energy = -527.28764389658579
 Total Coulomb        Energy = 408.10611236203499
    7    -517.3319318487      8.03e-06  
 Alpha HF Exchange    Energy =  -4.34472326638385
 Beta HF Exchange     Energy =  -4.34472326638386
 DFT Correlation      Energy =  -1.89537100622347
 DFT Exchange         Energy = -34.43742816110579
 One-Electron (alpha) Energy = -527.29206424094309
 One-Electron (beta)  Energy = -527.29206424094332
 Total Coulomb        Energy = 408.11534640051622
    8    -517.3319322654      1.05e-06  
 Alpha HF Exchange    Energy =  -4.34472122325162
 Beta HF Exchange     Energy =  -4.34472122325162
 DFT Correlation      Energy =  -1.89537016824458
 DFT Exchange         Energy = -34.43741113578614
 One-Electron (alpha) Energy = -527.29173769015597
 One-Electron (beta)  Energy = -527.29173769015574
 Total Coulomb        Energy = 408.11467134257953
    9    -517.3319322722      2.03e-07  Convergence criterion met
 ---------------------------------------
 SCF time:   CPU 22.13s  wall 2.00s 
<S^2> =         -0.000000000
 Alpha HF Exchange    Energy =  -4.34472122325162
 Beta HF Exchange     Energy =  -4.34472122325162
 DFT Correlation      Energy =  -1.89537016824458
 DFT Exchange         Energy = -34.43741113578614
 One-Electron (alpha) Energy = -527.29173769015597
 One-Electron (beta)  Energy = -527.29173769015574
 Total Coulomb        Energy = 408.11467134257953
 Nuclear repulsion Energy = 174.15909551601953
 SCF   energy in the final basis set =     -517.3319322722
 Total energy in the final basis set =     -517.3319322722
 
 --------------------------------------------------------------
 
                    Orbital Energies (a.u.)
 --------------------------------------------------------------
 
 Alpha MOs
 -- Occupied --
-88.864 -10.218 -10.183 -10.183  -7.929  -5.894  -5.890  -5.884
 -0.837  -0.706  -0.692  -0.581  -0.467  -0.445  -0.420  -0.392
 -0.391  -0.353  -0.349  -0.316  -0.229
 -- Virtual --
  0.034   0.095   0.105   0.131   0.148   0.153   0.170   0.182
  0.188   0.210   0.224   0.350   0.366   0.411   0.411   0.498
  0.505   0.533   0.546   0.597   0.666   0.678   0.734   0.740
  0.748   0.805   0.843   0.853   0.857   0.882   0.887   0.914
  0.955   0.972   0.977   1.021   1.154   1.176   1.339   1.387
  1.408   1.545   1.548   1.734   1.795   1.828   1.846   1.907
  2.042   2.042   2.065   2.078   2.094   2.109   2.120   2.122
  2.177   2.283   2.315   2.345   2.386   2.540   2.557   2.628
  2.659   2.712   2.727   2.761   2.861   2.869   2.893   2.916
  3.168   3.215   3.319   3.417   3.452   3.465   3.503   4.023
  4.301   4.485   4.612
 
 Beta MOs
 -- Occupied --
-88.864 -10.218 -10.183 -10.183  -7.929  -5.894  -5.890  -5.884
 -0.837  -0.706  -0.692  -0.581  -0.467  -0.445  -0.420  -0.392
 -0.391  -0.353  -0.349  -0.316  -0.229
 -- Virtual --
  0.034   0.095   0.105   0.131   0.148   0.153   0.170   0.182
  0.188   0.210   0.224   0.350   0.366   0.411   0.411   0.498
  0.505   0.533   0.546   0.597   0.666   0.678   0.734   0.740
  0.748   0.805   0.843   0.853   0.857   0.882   0.887   0.914
  0.955   0.972   0.977   1.021   1.154   1.176   1.339   1.387
  1.408   1.545   1.548   1.734   1.795   1.828   1.846   1.907
  2.042   2.042   2.065   2.078   2.094   2.109   2.120   2.122
  2.177   2.283   2.315   2.345   2.386   2.540   2.557   2.628
  2.659   2.712   2.727   2.761   2.861   2.869   2.893   2.916
  3.168   3.215   3.319   3.417   3.452   3.465   3.503   4.023
  4.301   4.485   4.612
 --------------------------------------------------------------
 
          Ground-State Mulliken Net Atomic Charges

     Atom                 Charge (a.u.)    Spin (a.u.)
  --------------------------------------------------------
      1 S                    -0.017414       0.000000
      2 C                    -0.223862      -0.000000
      3 C                    -0.299231      -0.000000
      4 C                    -0.299229       0.000000
      5 H                     0.137558      -0.000000
      6 H                     0.102200      -0.000000
      7 H                     0.120794      -0.000000
      8 H                     0.103914       0.000000
      9 H                     0.102202      -0.000000
     10 H                     0.120794      -0.000000
     11 H                     0.103915       0.000000
     12 H                     0.048361      -0.000000
  --------------------------------------------------------
  Sum of atomic charges =    -0.000000
  Sum of spin   charges =    -0.000000

 -----------------------------------------------------------------
                    Cartesian Multipole Moments
 -----------------------------------------------------------------
    Charge (ESU x 10^10)
                -0.0000
    Dipole Moment (Debye)
         X      -1.6129      Y       0.0003      Z       0.3667
       Tot       1.6541
    Quadrupole Moments (Debye-Ang)
        XX     -37.3695     XY       0.0002     YY     -35.1985
        XZ       1.3768     YZ      -0.0001     ZZ     -31.5700
    Octopole Moments (Debye-Ang^2)
       XXX     -32.7911    XXY       0.0012    XYY     -11.3281
       YYY       0.0045    XXZ       0.5955    XYZ      -0.0006
       YYZ      -2.4060    XZZ      -6.2260    YZZ       0.0005
       ZZZ      -3.8544
    Hexadecapole Moments (Debye-Ang^3)
      XXXX    -322.4417   XXXY       0.0046   XXYY     -95.8869
      XYYY       0.0115   YYYY    -211.7108   XXXZ       6.1320
      XXYZ      -0.0016   XYYZ      -0.9020   YYYZ      -0.0004
      XXZZ     -61.9225   XYZZ       0.0021   YYZZ     -48.5652
      XZZZ      -0.8228   YZZZ      -0.0011   ZZZZ     -68.7260
 -----------------------------------------------------------------
 Calculating analytic gradient of the SCF energy
 Gradient of SCF Energy
            1           2           3           4           5           6
    1  -0.0683042   0.0556841   0.0091683   0.0091719   0.0018804  -0.0000136
    2   0.0000095   0.0000079   0.0025226  -0.0025450  -0.0000043   0.0001219
    3  -0.0144272   0.0068946   0.0057344   0.0057284   0.0019885  -0.0010083
            7           8           9          10          11          12
    1  -0.0010336  -0.0008443  -0.0000148  -0.0010324  -0.0008471  -0.0038149
    2  -0.0006058  -0.0006340  -0.0001201   0.0006088   0.0006377   0.0000008
    3  -0.0006607  -0.0004673  -0.0010038  -0.0006588  -0.0004693  -0.0016503
 Max gradient component =       6.830E-02
 RMS gradient           =       1.519E-02
 Gradient time:  CPU 8.83 s  wall 0.85 s
 Geometry Optimization Parameters
   NAtoms,    NIC,     NZ,  NCons,   NDum,   NFix, NCnnct, MaxDiis
       12      75       0       1       0       0       0       0

 Cartesian Hessian Update
 Hessian Updated using BFGS Update


** CONSTRAINED OPTIMIZATION IN DELOCALIZED INTERNAL COORDINATES **
   Searching for a Minimum

   Optimization Cycle:   2

                       Coordinates (Angstroms)
     ATOM                X               Y               Z
      1  S         1.5813277761   -0.0002359684    0.0536422860
      2  C        -0.0712849344    0.0000468929   -0.3610807192
      3  C        -0.7700500193   -1.2675008520    0.1456030833
      4  C        -0.7696706477    1.2677434560    0.1456404999
      5  H        -0.0856676368    0.0000219213   -1.4556591304
      6  H        -1.8197230166   -1.2848266291   -0.1754791909
      7  H        -0.2897272493   -2.1707809457   -0.2402757540
      8  H        -0.7576824823   -1.3139852559    1.2396400338
      9  H        -1.8193459941    1.2854204297   -0.1754182567
     10  H        -0.2890795159    2.1709194563   -0.2401596665
     11  H        -0.7573215946    1.3141942381    1.2396778191
     12  H         1.3781253148   -0.0002167431    1.3862689957
   Point Group: c1    Number of degrees of freedom:    30


   Energy is   -517.331932272

              Constraints and their Current Values
                                        Value     Constraint
   Distance(Angs):        1   2             1.703856     1.700000
 Hessian Updated using BFGS Update

   Using Lagrange Multiplier Algorithm


 25 Hessian modes will be used to form the next step
  Hessian Eigenvalues:
    -0.873743    0.045000    0.045000    0.072642    0.079125    0.081900
     0.081920    0.083316    0.083427    0.094905    0.159490    0.173041
     0.178603    0.202356    0.262781    0.296800    0.299885    0.341287
     0.341402    0.341567    0.341612    0.341678    0.341689    0.342868
     1.148890

 Minimum Search - Taking P-RFO Step
 Searching for Lamda that Maximizes Along the Constraint modes Only
 Value Taken    Lamda =   0.00012106
 Searching for Lamda that Minimizes Along All other modes
 Value Taken    Lamda =  -0.00214171
 Step Taken.  Stepsize is  0.142670

                             Maximum     Tolerance    Cnvgd?
         Gradient            0.010797       0.000300      NO
         Displacement        0.084544       0.001200      NO
         Energy change      0.007820       0.000001      NO


 New Cartesian Coordinates Obtained by Inverse Iteration

 Displacement from previous Coordinates is:  0.269518
 ----------------------------------------------------------------
             Standard Nuclear Orientation (Angstroms)
    I     Atom           X                Y                Z
 ----------------------------------------------------------------
    1      S       1.5996798833    -0.0002340496     0.0478244620
    2      C      -0.0556211975     0.0000311752    -0.3394778148
    3      C      -0.7896068001    -1.2658169669     0.1416056661
    4      C      -0.7892275161     1.2660770400     0.1416503357
    5      H      -0.0672017015     0.0000280435    -1.4370310932
    6      H      -1.8358449971    -1.2698349059    -0.1903175794
    7      H      -0.3084220712    -2.1698226437    -0.2395008961
    8      H      -0.7880949205    -1.3135908518     1.2361878374
    9      H      -1.8354645104     1.2704240097    -0.1902866897
   10      H      -0.3077747770     2.1699678514    -0.2393900803
   11      H      -0.7877270656     1.3138058286     1.2362489178
   12      H       1.4952056737    -0.0002345307     1.3948869347
 ----------------------------------------------------------------
 Nuclear Repulsion Energy =   173.3686663284 hartrees
 There are       21 alpha and       21 beta electrons

                       Distance Matrix (Angstroms)
             S (  1)   C (  2)   C (  3)   C (  4)   H (  5)   H (  6)
   C (  2)  1.700007
   C (  3)  2.705399  1.540308
   C (  4)  2.705407  1.540303  2.531894
   H (  5)  2.232328  1.097614  2.148564  2.148589
   H (  6)  3.670345  2.191804  1.097635  2.763415  2.508973
   H (  7)  2.903536  2.186817  1.092706  3.490252  2.490084  1.773533
   H (  8)  2.972975  2.178266  1.095625  2.802267  3.064536  1.770484
   H (  9)  3.670352  2.191802  2.763420  1.097640  2.508990  2.540259
   H ( 10)  2.903558  2.186830  3.490263  1.092706  2.490152  3.764260
   H ( 11)  2.973006  2.178279  2.802267  1.095640  3.064571  3.131907
   H ( 12)  1.351108  2.326604  2.897030  2.897030  3.234328  3.901366
             H (  7)   H (  8)   H (  9)   H ( 10)   H ( 11)
   H (  8)  1.772252
   H (  9)  3.764250  3.131924
   H ( 10)  4.339791  3.813557  1.773535
   H ( 11)  3.813560  2.627397  1.770491  1.772252
   H ( 12)  3.260584  2.638854  3.901373  3.260579  2.638873
 
 Applying Cartesian multipole field
    Component          Value
    ---------          -----
     (2,0,0)        1.00000E-11
     (0,2,0)        2.00000E-11
     (0,0,2)       -3.00000E-10
 Nucleus-field energy     =    -0.0000000042 hartrees
 Requested basis set is 6-31G(d,p)
 There are 41 shells and 104 basis functions
 A cutoff of  1.0D-14 yielded    851 shell pairs
 There are      5550 function pairs
 Smallest overlap matrix eigenvalue = 5.88E-03
 Guess from superposition of atomic densities
 Warning:  Energy on first SCF cycle will be non-variational
 SAD guess density has 42.000000 electrons

 -----------------------------------------------------------------------
  General SCF calculation program by
  Eric Jon Sundstrom, Paul Horn, Yuezhi Mao, Dmitri Zuev, Alec White,
  David Stuck, Shaama M.S., Shane Yost, Joonho Lee, David Small,
  Daniel Levine, Susi Lehtola, Hugh Burton, Evgeny Epifanovsky
 -----------------------------------------------------------------------
 Exchange:     0.2000 Hartree-Fock + 0.0800 Slater + 0.7200 B88
 Correlation:  0.1900 VWN1RPA + 0.8100 LYP
 Using SG-1 standard quadrature grid
 using 12 threads for integral computing
 -------------------------------------------------------
 OpenMP Integral computing Module                
 Release: version 1.0, May 2013, Q-Chem Inc. Pittsburgh 
 -------------------------------------------------------
 -------------------------------------------------------
 OpenMP BLAS3 based DFT computing Module                
 Release: version 1.0, May 2013, Q-Chem Inc. Pittsburgh 
 -------------------------------------------------------
 A unrestricted SCF calculation will be
 performed using DIIS
 SCF converges when DIIS error is below 1.0e-06
 Alpha HF Exchange    Energy =  -4.37143295425653
 Beta HF Exchange     Energy =  -4.37143295425653
 DFT Correlation      Energy =  -1.87940215951144
 DFT Exchange         Energy = -34.04256060583067
 One-Electron (alpha) Energy = -524.58897688804132
 One-Electron (beta)  Energy = -524.58897688804132
 Total Coulomb        Energy = 402.57017621013432
 ---------------------------------------
  Cycle       Energy         DIIS error
 ---------------------------------------
    1    -517.9039399156      3.22e-02  
 Alpha HF Exchange    Energy =  -4.37405168776962
 Beta HF Exchange     Energy =  -4.37405168776961
 DFT Correlation      Energy =  -1.90870497163636
 DFT Exchange         Energy = -34.68635951018035
 One-Electron (alpha) Energy = -528.47219630695395
 One-Electron (beta)  Energy = -528.47219630695361
 Total Coulomb        Energy = 411.67612761088145
    2    -517.2427665361      3.88e-03  
 Alpha HF Exchange    Energy =  -4.31429227178185
 Beta HF Exchange     Energy =  -4.31429227178186
 DFT Correlation      Energy =  -1.87949169133336
 DFT Exchange         Energy = -34.18392960959399
 One-Electron (alpha) Energy = -524.28871760515210
 One-Electron (beta)  Energy = -524.28871760515267
 Total Coulomb        Energy = 402.68268461295332
    3    -517.2180901176      4.42e-03  
 Alpha HF Exchange    Energy =  -4.34342763162103
 Beta HF Exchange     Energy =  -4.34342763162103
 DFT Correlation      Energy =  -1.89472281588377
 DFT Exchange         Energy = -34.42841584457656
 One-Electron (alpha) Energy = -526.50999366037342
 One-Electron (beta)  Energy = -526.50999366037354
 Total Coulomb        Energy = 407.32969268326332
    4    -517.3316222369      4.13e-04  
 Alpha HF Exchange    Energy =  -4.34397586698197
 Beta HF Exchange     Energy =  -4.34397586698197
 DFT Correlation      Energy =  -1.89463992257219
 DFT Exchange         Energy = -34.43216913332953
 One-Electron (alpha) Energy = -526.49871103978398
 One-Electron (beta)  Energy = -526.49871103978342
 Total Coulomb        Energy = 407.31102758924362
    5    -517.3324889559      1.51e-04  
 Alpha HF Exchange    Energy =  -4.34397215388284
 Beta HF Exchange     Energy =  -4.34397215388285
 DFT Correlation      Energy =  -1.89466432408298
 DFT Exchange         Energy = -34.43225225363735
 One-Electron (alpha) Energy = -526.50854055786203
 One-Electron (beta)  Energy = -526.50854055786237
 Total Coulomb        Energy = 407.33067399712127
    6    -517.3326016798      3.37e-05  
 Alpha HF Exchange    Energy =  -4.34386052507931
 Beta HF Exchange     Energy =  -4.34386052507931
 DFT Correlation      Energy =  -1.89462619972490
 DFT Exchange         Energy = -34.43133531927491
 One-Electron (alpha) Energy = -526.49661873489117
 One-Electron (beta)  Energy = -526.49661873489117
 Total Coulomb        Energy = 407.30564637209625
    7    -517.3326073426      8.25e-06  
 Alpha HF Exchange    Energy =  -4.34390113121756
 Beta HF Exchange     Energy =  -4.34390113121756
 DFT Correlation      Energy =  -1.89464242197734
 DFT Exchange         Energy = -34.43165595001363
 One-Electron (alpha) Energy = -526.50130016137211
 One-Electron (beta)  Energy = -526.50130016137234
 Total Coulomb        Energy = 407.31542685187014
    8    -517.3326077811      1.01e-06  
 Alpha HF Exchange    Energy =  -4.34389927506517
 Beta HF Exchange     Energy =  -4.34389927506518
 DFT Correlation      Energy =  -1.89464163166421
 DFT Exchange         Energy = -34.43164039967301
 One-Electron (alpha) Energy = -526.50099162814638
 One-Electron (beta)  Energy = -526.50099162814649
 Total Coulomb        Energy = 407.31478972612172
    9    -517.3326077874      2.01e-07  Convergence criterion met
 ---------------------------------------
 SCF time:   CPU 21.92s  wall 2.00s 
<S^2> =         -0.000000000
 Alpha HF Exchange    Energy =  -4.34389927506517
 Beta HF Exchange     Energy =  -4.34389927506518
 DFT Correlation      Energy =  -1.89464163166421
 DFT Exchange         Energy = -34.43164039967301
 One-Electron (alpha) Energy = -526.50099162814638
 One-Electron (beta)  Energy = -526.50099162814649
 Total Coulomb        Energy = 407.31478972612172
 Nuclear repulsion Energy = 173.36866632424466
 SCF   energy in the final basis set =     -517.3326077874
 Total energy in the final basis set =     -517.3326077874
 
 --------------------------------------------------------------
 
                    Orbital Energies (a.u.)
 --------------------------------------------------------------
 
 Alpha MOs
 -- Occupied --
-88.866 -10.219 -10.183 -10.183  -7.931  -5.896  -5.891  -5.885
 -0.834  -0.708  -0.690  -0.581  -0.465  -0.447  -0.419  -0.393
 -0.390  -0.351  -0.346  -0.316  -0.230
 -- Virtual --
  0.039   0.090   0.103   0.131   0.149   0.154   0.167   0.182
  0.189   0.212   0.222   0.346   0.368   0.406   0.409   0.499
  0.507   0.538   0.548   0.601   0.665   0.679   0.733   0.739
  0.741   0.802   0.839   0.850   0.857   0.882   0.889   0.914
  0.955   0.968   0.979   1.020   1.150   1.166   1.336   1.392
  1.413   1.550   1.552   1.731   1.796   1.816   1.844   1.907
  2.041   2.042   2.069   2.082   2.095   2.108   2.113   2.120
  2.151   2.285   2.324   2.349   2.378   2.543   2.551   2.629
  2.650   2.708   2.726   2.752   2.859   2.871   2.891   2.915
  3.167   3.217   3.310   3.417   3.449   3.462   3.505   4.017
  4.298   4.484   4.606
 
 Beta MOs
 -- Occupied --
-88.866 -10.219 -10.183 -10.183  -7.931  -5.896  -5.891  -5.885
 -0.834  -0.708  -0.690  -0.581  -0.465  -0.447  -0.419  -0.393
 -0.390  -0.351  -0.346  -0.316  -0.230
 -- Virtual --
  0.039   0.090   0.103   0.131   0.149   0.154   0.167   0.182
  0.189   0.212   0.222   0.346   0.368   0.406   0.409   0.499
  0.507   0.538   0.548   0.601   0.665   0.679   0.733   0.739
  0.741   0.802   0.839   0.850   0.857   0.882   0.889   0.914
  0.955   0.968   0.979   1.020   1.150   1.166   1.336   1.392
  1.413   1.550   1.552   1.731   1.796   1.816   1.844   1.907
  2.041   2.042   2.069   2.082   2.095   2.108   2.113   2.120
  2.151   2.285   2.324   2.349   2.378   2.543   2.551   2.629
  2.650   2.708   2.726   2.752   2.859   2.871   2.891   2.915
  3.167   3.217   3.310   3.417   3.449   3.462   3.505   4.017
  4.298   4.484   4.606
 --------------------------------------------------------------
 
          Ground-State Mulliken Net Atomic Charges

     Atom                 Charge (a.u.)    Spin (a.u.)
  --------------------------------------------------------
      1 S                    -0.020655      -0.000000
      2 C                    -0.221656      -0.000000
      3 C                    -0.299531       0.000000
      4 C                    -0.299530       0.000000
      5 H                     0.137826      -0.000000
      6 H                     0.103503       0.000000
      7 H                     0.119537      -0.000000
      8 H                     0.103888       0.000000
      9 H                     0.103504      -0.000000
     10 H                     0.119538      -0.000000
     11 H                     0.103886      -0.000000
     12 H                     0.049692       0.000000
  --------------------------------------------------------
  Sum of atomic charges =    -0.000000
  Sum of spin   charges =     0.000000

 -----------------------------------------------------------------
                    Cartesian Multipole Moments
 -----------------------------------------------------------------
    Charge (ESU x 10^10)
                 0.0000
    Dipole Moment (Debye)
         X      -1.5782      Y       0.0002      Z       0.4271
       Tot       1.6350
    Quadrupole Moments (Debye-Ang)
        XX     -37.1441     XY       0.0002     YY     -35.2772
        XZ       1.6355     YZ      -0.0002     ZZ     -31.6471
    Octopole Moments (Debye-Ang^2)
       XXX     -33.0484    XXY       0.0010    XYY     -11.4609
       YYY       0.0042    XXZ       1.2007    XYZ      -0.0006
       YYZ      -2.3912    XZZ      -6.2235    YZZ       0.0005
       ZZZ      -3.6837
    Hexadecapole Moments (Debye-Ang^3)
      XXXX    -330.0828   XXXY       0.0057   XXYY     -97.2170
      XYYY       0.0121   YYYY    -211.5858   XXXZ       7.7829
      XXYZ      -0.0020   XYYZ      -0.7149   YYYZ      -0.0010
      XXZZ     -62.9720   XYZZ       0.0022   YYZZ     -48.4959
      XZZZ      -0.3351   YZZZ      -0.0015   ZZZZ     -68.2594
 -----------------------------------------------------------------
 Calculating analytic gradient of the SCF energy
 Gradient of SCF Energy
            1           2           3           4           5           6
    1  -0.0691189   0.0659540   0.0028221   0.0028247   0.0007509  -0.0009472
    2   0.0000107  -0.0000087   0.0005743  -0.0005772  -0.0000026  -0.0006742
    3  -0.0142076   0.0105555   0.0024443   0.0024365   0.0007473  -0.0003215
            7           8           9          10          11          12
    1  -0.0006249  -0.0002614  -0.0009490  -0.0006260  -0.0002622   0.0004377
    2   0.0002074   0.0002164   0.0006740  -0.0002060  -0.0002141   0.0000000
    3  -0.0004318  -0.0003390  -0.0003218  -0.0004304  -0.0003303   0.0001987
 Max gradient component =       6.912E-02
 RMS gradient           =       1.622E-02
 Gradient time:  CPU 8.88 s  wall 1.01 s
 Geometry Optimization Parameters
   NAtoms,    NIC,     NZ,  NCons,   NDum,   NFix, NCnnct, MaxDiis
       12      75       0       1       0       0       0       0

 Cartesian Hessian Update
 Hessian Updated using BFGS Update


** CONSTRAINED OPTIMIZATION IN DELOCALIZED INTERNAL COORDINATES **
   Searching for a Minimum

   Optimization Cycle:   3

                       Coordinates (Angstroms)
     ATOM                X               Y               Z
      1  S         1.5996798833   -0.0002340496    0.0478244620
      2  C        -0.0556211975    0.0000311752   -0.3394778148
      3  C        -0.7896068001   -1.2658169669    0.1416056661
      4  C        -0.7892275161    1.2660770400    0.1416503357
      5  H        -0.0672017015    0.0000280435   -1.4370310932
      6  H        -1.8358449971   -1.2698349059   -0.1903175794
      7  H        -0.3084220712   -2.1698226437   -0.2395008961
      8  H        -0.7880949205   -1.3135908518    1.2361878374
      9  H        -1.8354645104    1.2704240097   -0.1902866897
     10  H        -0.3077747770    2.1699678514   -0.2393900803
     11  H        -0.7877270656    1.3138058286    1.2362489178
     12  H         1.4952056737   -0.0002345307    1.3948869347
   Point Group: c1    Number of degrees of freedom:    30


   Energy is   -517.332607787

              Constraints and their Current Values
                                        Value     Constraint
   Distance(Angs):        1   2             1.700007     1.700000
 Hessian Updated using BFGS Update

   Using Lagrange Multiplier Algorithm


 27 Hessian modes will be used to form the next step
  Hessian Eigenvalues:
    -0.875913    0.044970    0.045000    0.045000    0.054823    0.079026
     0.081820    0.081900    0.083257    0.083427    0.094905    0.159040
     0.160340    0.178603    0.191362    0.210636    0.263055    0.296593
     0.299885    0.341090    0.341319    0.341467    0.341614    0.341678
     0.341883    0.343480    1.144939

 Minimum Search - Taking P-RFO Step
 Searching for Lamda that Maximizes Along the Constraint modes Only
 Value Taken    Lamda =   0.00000120
 Searching for Lamda that Minimizes Along All other modes
 Value Taken    Lamda =  -0.00020146
 Step Taken.  Stepsize is  0.057022

                             Maximum     Tolerance    Cnvgd?
         Gradient            0.002228       0.000300      NO
         Displacement        0.032017       0.001200      NO
         Energy change     -0.000676       0.000001      NO


 New Cartesian Coordinates Obtained by Inverse Iteration

 Displacement from previous Coordinates is:  0.067729
 ----------------------------------------------------------------
             Standard Nuclear Orientation (Angstroms)
    I     Atom           X                Y                Z
 ----------------------------------------------------------------
    1      S       1.6091754659    -0.0002272143     0.0425514131
    2      C      -0.0498971668     0.0000291026    -0.3282288450
    3      C      -0.7935454995    -1.2660417062     0.1414988420
    4      C      -0.7931680198     1.2663010145     0.1415431629
    5      H      -0.0659672477     0.0000474075    -1.4272994990
    6      H      -1.8363718212    -1.2576611294    -0.1951179534
    7      H      -0.3125272566    -2.1703881477    -0.2403024787
    8      H      -0.7958770352    -1.3204676776     1.2364125812
    9      H      -1.8359922459     1.2582539274    -0.1950941358
   10      H      -0.3118684983     2.1705216395    -0.2401996675
   11      H      -0.7955033244     1.3206663967     1.2364609128
   12      H       1.5114426495    -0.0002336130     1.3901756674
 ----------------------------------------------------------------
 Nuclear Repulsion Energy =   173.1271971507 hartrees
 There are       21 alpha and       21 beta electrons

                       Distance Matrix (Angstroms)
             S (  1)   C (  2)   C (  3)   C (  4)   H (  5)   H (  6)
   C (  2)  1.700000
   C (  3)  2.717562  1.541620
   C (  4)  2.717563  1.541617  2.532343
   H (  5)  2.228579  1.099188  2.143241  2.143242
   H (  6)  3.675517  2.188834  1.095841  2.751727  2.496885
   H (  7)  2.912481  2.188017  1.093157  3.491082  2.486070  1.776855
   H (  8)  2.992092  2.179060  1.096268  2.808936  3.061354  1.770834
   H (  9)  3.675518  2.188833  2.751737  1.095843  2.496878  2.515915
   H ( 10)  2.912475  2.188016  3.491085  1.093157  2.486088  3.752143
   H ( 11)  2.992100  2.179052  2.808915  1.096269  3.061352  3.127395
   H ( 12)  1.351164  2.321787  2.911088  2.911086  3.228992  3.911795
             H (  7)   H (  8)   H (  9)   H ( 10)   H ( 11)
   H (  8)  1.771067
   H (  9)  3.752143  3.127436
   H ( 10)  4.340910  3.821211  1.776857
   H ( 11)  3.821198  2.641134  1.770837  1.771068
   H ( 12)  3.270305  2.662778  3.911802  3.270285  2.662781
 
 Applying Cartesian multipole field
    Component          Value
    ---------          -----
     (2,0,0)        1.00000E-11
     (0,2,0)        2.00000E-11
     (0,0,2)       -3.00000E-10
 Nucleus-field energy     =    -0.0000000041 hartrees
 Requested basis set is 6-31G(d,p)
 There are 41 shells and 104 basis functions
 A cutoff of  1.0D-14 yielded    851 shell pairs
 There are      5550 function pairs
 Smallest overlap matrix eigenvalue = 5.89E-03
 Guess from superposition of atomic densities
 Warning:  Energy on first SCF cycle will be non-variational
 SAD guess density has 42.000000 electrons

 -----------------------------------------------------------------------
  General SCF calculation program by
  Eric Jon Sundstrom, Paul Horn, Yuezhi Mao, Dmitri Zuev, Alec White,
  David Stuck, Shaama M.S., Shane Yost, Joonho Lee, David Small,
  Daniel Levine, Susi Lehtola, Hugh Burton, Evgeny Epifanovsky
 -----------------------------------------------------------------------
 Exchange:     0.2000 Hartree-Fock + 0.0800 Slater + 0.7200 B88
 Correlation:  0.1900 VWN1RPA + 0.8100 LYP
 Using SG-1 standard quadrature grid
 using 12 threads for integral computing
 -------------------------------------------------------
 OpenMP Integral computing Module                
 Release: version 1.0, May 2013, Q-Chem Inc. Pittsburgh 
 -------------------------------------------------------
 -------------------------------------------------------
 OpenMP BLAS3 based DFT computing Module                
 Release: version 1.0, May 2013, Q-Chem Inc. Pittsburgh 
 -------------------------------------------------------
 A unrestricted SCF calculation will be
 performed using DIIS
 SCF converges when DIIS error is below 1.0e-06
 Alpha HF Exchange    Energy =  -4.37100578764059
 Beta HF Exchange     Energy =  -4.37100578764059
 DFT Correlation      Energy =  -1.87925279829794
 DFT Exchange         Energy = -34.04179130565462
 One-Electron (alpha) Energy = -524.34864461318330
 One-Electron (beta)  Energy = -524.34864461318330
 Total Coulomb        Energy = 402.33286454157610
 ---------------------------------------
  Cycle       Energy         DIIS error
 ---------------------------------------
    1    -517.9002832174      3.22e-02  
 Alpha HF Exchange    Energy =  -4.37386244761247
 Beta HF Exchange     Energy =  -4.37386244761247
 DFT Correlation      Energy =  -1.90855815972221
 DFT Exchange         Energy = -34.68510284451693
 One-Electron (alpha) Energy = -528.22482675078174
 One-Electron (beta)  Energy = -528.22482675078174
 Total Coulomb        Energy = 411.42097431637961
    2    -517.2428679380      3.88e-03  
 Alpha HF Exchange    Energy =  -4.31419011211288
 Beta HF Exchange     Energy =  -4.31419011211288
 DFT Correlation      Energy =  -1.87937454245195
 DFT Exchange         Energy = -34.18332292345426
 One-Electron (alpha) Energy = -524.05780704408596
 One-Electron (beta)  Energy = -524.05780704408619
 Total Coulomb        Energy = 402.46128184076781
    3    -517.2182127909      4.42e-03  
 Alpha HF Exchange    Energy =  -4.34324750977153
 Beta HF Exchange     Energy =  -4.34324750977154
 DFT Correlation      Energy =  -1.89457292702792
 DFT Exchange         Energy = -34.42719426151954
 One-Electron (alpha) Energy = -526.26611266254872
 One-Electron (beta)  Energy = -526.26611266254906
 Total Coulomb        Energy = 407.08155970260339
    4    -517.3317306840      4.13e-04  
 Alpha HF Exchange    Energy =  -4.34381678898180
 Beta HF Exchange     Energy =  -4.34381678898181
 DFT Correlation      Energy =  -1.89449997227897
 DFT Exchange         Energy = -34.43111999600502
 One-Electron (alpha) Energy = -526.25706646745925
 One-Electron (beta)  Energy = -526.25706646745959
 Total Coulomb        Energy = 407.06759223577433
    5    -517.3325970988      1.51e-04  
 Alpha HF Exchange    Energy =  -4.34381303623705
 Beta HF Exchange     Energy =  -4.34381303623706
 DFT Correlation      Energy =  -1.89452444401810
 DFT Exchange         Energy = -34.43120327664159
 One-Electron (alpha) Energy = -526.26707562951981
 One-Electron (beta)  Energy = -526.26707562952004
 Total Coulomb        Energy = 407.08759780520029
    6    -517.3327101003      3.38e-05  
 Alpha HF Exchange    Energy =  -4.34369805219575
 Beta HF Exchange     Energy =  -4.34369805219576
 DFT Correlation      Energy =  -1.89448489908159
 DFT Exchange         Energy = -34.43025848505624
 One-Electron (alpha) Energy = -526.25475523296598
 One-Electron (beta)  Energy = -526.25475523296620
 Total Coulomb        Energy = 407.06173698790224
    7    -517.3327158199      8.32e-06  
 Alpha HF Exchange    Energy =  -4.34373932499143
 Beta HF Exchange     Energy =  -4.34373932499143
 DFT Correlation      Energy =  -1.89450142021863
 DFT Exchange         Energy = -34.43058465771338
 One-Electron (alpha) Energy = -526.25950522952098
 One-Electron (beta)  Energy = -526.25950522952098
 Total Coulomb        Energy = 407.07166177551824
    8    -517.3327162648      9.98e-07  Convergence criterion met
 ---------------------------------------
 SCF time:   CPU 19.42s  wall 2.00s 
<S^2> =         -0.000000000
 Alpha HF Exchange    Energy =  -4.34373932499143
 Beta HF Exchange     Energy =  -4.34373932499143
 DFT Correlation      Energy =  -1.89450142021863
 DFT Exchange         Energy = -34.43058465771338
 One-Electron (alpha) Energy = -526.25950522952098
 One-Electron (beta)  Energy = -526.25950522952098
 Total Coulomb        Energy = 407.07166177551824
 Nuclear repulsion Energy = 173.12719714662714
 SCF   energy in the final basis set =     -517.3327162648
 Total energy in the final basis set =     -517.3327162648
 
 --------------------------------------------------------------
 
                    Orbital Energies (a.u.)
 --------------------------------------------------------------
 
 Alpha MOs
 -- Occupied --
-88.866 -10.219 -10.183 -10.183  -7.931  -5.896  -5.892  -5.886
 -0.834  -0.709  -0.690  -0.580  -0.464  -0.448  -0.419  -0.393
 -0.390  -0.350  -0.345  -0.317  -0.231
 -- Virtual --
  0.038   0.091   0.102   0.132   0.149   0.154   0.166   0.182
  0.189   0.212   0.222   0.345   0.367   0.405   0.408   0.499
  0.507   0.538   0.549   0.603   0.666   0.680   0.732   0.739
  0.739   0.801   0.837   0.849   0.857   0.882   0.890   0.914
  0.956   0.967   0.980   1.019   1.148   1.165   1.332   1.396
  1.415   1.548   1.554   1.730   1.795   1.815   1.845   1.906
  2.041   2.041   2.070   2.081   2.096   2.106   2.112   2.119
  2.149   2.287   2.325   2.351   2.377   2.545   2.550   2.628
  2.647   2.706   2.726   2.753   2.861   2.872   2.890   2.916
  3.167   3.218   3.307   3.416   3.448   3.462   3.506   4.015
  4.298   4.484   4.606
 
 Beta MOs
 -- Occupied --
-88.866 -10.219 -10.183 -10.183  -7.931  -5.896  -5.892  -5.886
 -0.834  -0.709  -0.690  -0.580  -0.464  -0.448  -0.419  -0.393
 -0.390  -0.350  -0.345  -0.317  -0.231
 -- Virtual --
  0.038   0.091   0.102   0.132   0.149   0.154   0.166   0.182
  0.189   0.212   0.222   0.345   0.367   0.405   0.408   0.499
  0.507   0.538   0.549   0.603   0.666   0.680   0.732   0.739
  0.739   0.801   0.837   0.849   0.857   0.882   0.890   0.914
  0.956   0.967   0.980   1.019   1.148   1.165   1.332   1.396
  1.415   1.548   1.554   1.730   1.795   1.815   1.845   1.906
  2.041   2.041   2.070   2.081   2.096   2.106   2.112   2.119
  2.149   2.287   2.325   2.351   2.377   2.545   2.550   2.628
  2.647   2.706   2.726   2.753   2.861   2.872   2.890   2.916
  3.167   3.218   3.307   3.416   3.448   3.462   3.506   4.015
  4.298   4.484   4.606
 --------------------------------------------------------------
 
          Ground-State Mulliken Net Atomic Charges

     Atom                 Charge (a.u.)    Spin (a.u.)
  --------------------------------------------------------
      1 S                    -0.019431       0.000000
      2 C                    -0.222374       0.000000
      3 C                    -0.299507      -0.000000
      4 C                    -0.299506      -0.000000
      5 H                     0.136862       0.000000
      6 H                     0.104256       0.000000
      7 H                     0.119209       0.000000
      8 H                     0.103743       0.000000
      9 H                     0.104257      -0.000000
     10 H                     0.119209       0.000000
     11 H                     0.103742       0.000000
     12 H                     0.049540      -0.000000
  --------------------------------------------------------
  Sum of atomic charges =    -0.000000
  Sum of spin   charges =     0.000000

 -----------------------------------------------------------------
                    Cartesian Multipole Moments
 -----------------------------------------------------------------
    Charge (ESU x 10^10)
                -0.0000
    Dipole Moment (Debye)
         X      -1.5649      Y       0.0002      Z       0.4334
       Tot       1.6238
    Quadrupole Moments (Debye-Ang)
        XX     -37.0631     XY       0.0002     YY     -35.2935
        XZ       1.6639     YZ      -0.0003     ZZ     -31.7054
    Octopole Moments (Debye-Ang^2)
       XXX     -33.2787    XXY       0.0010    XYY     -11.5261
       YYY       0.0038    XXZ       1.2399    XYZ      -0.0006
       YYZ      -2.3488    XZZ      -6.3387    YZZ       0.0004
       ZZZ      -3.6185
    Hexadecapole Moments (Debye-Ang^3)
      XXXX    -332.5004   XXXY       0.0052   XXYY     -97.8001
      XYYY       0.0118   YYYY    -211.6108   XXXZ       8.2853
      XXYZ      -0.0020   XYYZ      -0.5764   YYYZ      -0.0010
      XXZZ     -63.4126   XYZZ       0.0021   YYZZ     -48.4368
      XZZZ      -0.0244   YZZZ      -0.0014   ZZZZ     -68.0831
 -----------------------------------------------------------------
 Calculating analytic gradient of the SCF energy
 Gradient of SCF Energy
            1           2           3           4           5           6
    1  -0.0670159   0.0675031  -0.0001322  -0.0001319   0.0005129  -0.0001781
    2   0.0000107  -0.0000103   0.0000095  -0.0000090  -0.0000003  -0.0002222
    3  -0.0150795   0.0143993   0.0005409   0.0005394   0.0001564  -0.0000043
            7           8           9          10          11          12
    1  -0.0001158   0.0000175  -0.0001785  -0.0001163   0.0000176  -0.0001824
    2   0.0000065   0.0002162   0.0002217  -0.0000064  -0.0002165   0.0000001
    3  -0.0001897  -0.0000855  -0.0000046  -0.0001895  -0.0000851   0.0000022
 Max gradient component =       6.750E-02
 RMS gradient           =       1.623E-02
 Gradient time:  CPU 8.82 s  wall 0.85 s
 Geometry Optimization Parameters
   NAtoms,    NIC,     NZ,  NCons,   NDum,   NFix, NCnnct, MaxDiis
       12      75       0       1       0       0       0       0

 Cartesian Hessian Update
 Hessian Updated using BFGS Update


** CONSTRAINED OPTIMIZATION IN DELOCALIZED INTERNAL COORDINATES **
   Searching for a Minimum

   Optimization Cycle:   4

                       Coordinates (Angstroms)
     ATOM                X               Y               Z
      1  S         1.6091754659   -0.0002272143    0.0425514131
      2  C        -0.0498971668    0.0000291026   -0.3282288450
      3  C        -0.7935454995   -1.2660417062    0.1414988420
      4  C        -0.7931680198    1.2663010145    0.1415431629
      5  H        -0.0659672477    0.0000474075   -1.4272994990
      6  H        -1.8363718212   -1.2576611294   -0.1951179534
      7  H        -0.3125272566   -2.1703881477   -0.2403024787
      8  H        -0.7958770352   -1.3204676776    1.2364125812
      9  H        -1.8359922459    1.2582539274   -0.1950941358
     10  H        -0.3118684983    2.1705216395   -0.2401996675
     11  H        -0.7955033244    1.3206663967    1.2364609128
     12  H         1.5114426495   -0.0002336130    1.3901756674
   Point Group: c1    Number of degrees of freedom:    30


   Energy is   -517.332716265

              Constraints and their Current Values
                                        Value     Constraint
   Distance(Angs):        1   2             1.700000     1.700000
 Hessian Updated using BFGS Update

 25 Hessian modes will be used to form the next step
  Hessian Eigenvalues:
     0.043530    0.045000    0.047534    0.079039    0.081812    0.081900
     0.083296    0.083427    0.094905    0.156082    0.159991    0.160933
     0.178603    0.206978    0.213984    0.263133    0.299195    0.299889
     0.338241    0.341303    0.341444    0.341613    0.341678    0.341929
     0.343114

 Minimum Search - Taking Simple RFO Step
 Searching for Lamda that Minimizes Along All modes
 Value Taken    Lamda =  -0.00001543
 Step Taken.  Stepsize is  0.013880

                             Maximum     Tolerance    Cnvgd?
         Gradient           0.000621      0.000300      NO
         Displacement       0.006767      0.001200      NO
         Energy change     -0.000108      0.000001      NO


 New Cartesian Coordinates Obtained by Inverse Iteration

 Displacement from previous Coordinates is:  0.022900
 ----------------------------------------------------------------
             Standard Nuclear Orientation (Angstroms)
    I     Atom           X                Y                Z
 ----------------------------------------------------------------
    1      S       1.6087397798    -0.0002274799     0.0429091418
    2      C      -0.0509055492     0.0000283787    -0.3252991992
    3      C      -0.7936775058    -1.2672291273     0.1413140006
    4      C      -0.7933011137     1.2674871187     0.1413605274
    5      H      -0.0701505663     0.0000502995    -1.4247224903
    6      H      -1.8355596956    -1.2562226233    -0.1967756657
    7      H      -0.3115097223    -2.1705110871    -0.2415963494
    8      H      -0.7974014005    -1.3259505613     1.2362067706
    9      H      -1.8351806429     1.2568171693    -0.1967516518
   10      H      -0.3108487482     2.1706398739    -0.2414946271
   11      H      -0.7970303914     1.3261519737     1.2362554906
   12      H       1.5167255559    -0.0002339348     1.3909940526
 ----------------------------------------------------------------
 Nuclear Repulsion Energy =   173.1108614686 hartrees
 There are       21 alpha and       21 beta electrons

                       Distance Matrix (Angstroms)
             S (  1)   C (  2)   C (  3)   C (  4)   H (  5)   H (  6)
   C (  2)  1.700000
   C (  3)  2.717827  1.541227
   C (  4)  2.717829  1.541225  2.534716
   H (  5)  2.229936  1.099592  2.140551  2.140551
   H (  6)  3.673986  2.186247  1.095420  2.751318  2.490531
   H (  7)  2.911775  2.187730  1.093172  3.492651  2.483823  1.777825
   H (  8)  2.995165  2.180316  1.096473  2.815071  3.060673  1.770896
   H (  9)  3.673988  2.186248  2.751332  1.095421  2.490523  2.513040
   H ( 10)  2.911764  2.187727  3.492651  1.093171  2.483832  3.751017
   H ( 11)  2.995177  2.180312  2.815055  1.096472  3.060670  3.130620
   H ( 12)  1.351222  2.324463  2.916323  2.916320  3.232095  3.916164
             H (  7)   H (  8)   H (  9)   H ( 10)   H ( 11)
   H (  8)  1.770106
   H (  9)  3.751022  3.130662
   H ( 10)  4.341151  3.827072  1.777825
   H ( 11)  3.827065  2.652103  1.770896  1.770107
   H ( 12)  3.273820  2.671454  3.916170  3.273796  2.671462
 
 Applying Cartesian multipole field
    Component          Value
    ---------          -----
     (2,0,0)        1.00000E-11
     (0,2,0)        2.00000E-11
     (0,0,2)       -3.00000E-10
 Nucleus-field energy     =    -0.0000000040 hartrees
 Requested basis set is 6-31G(d,p)
 There are 41 shells and 104 basis functions
 A cutoff of  1.0D-14 yielded    851 shell pairs
 There are      5550 function pairs
 Smallest overlap matrix eigenvalue = 5.89E-03
 Guess from superposition of atomic densities
 Warning:  Energy on first SCF cycle will be non-variational
 SAD guess density has 42.000000 electrons

 -----------------------------------------------------------------------
  General SCF calculation program by
  Eric Jon Sundstrom, Paul Horn, Yuezhi Mao, Dmitri Zuev, Alec White,
  David Stuck, Shaama M.S., Shane Yost, Joonho Lee, David Small,
  Daniel Levine, Susi Lehtola, Hugh Burton, Evgeny Epifanovsky
 -----------------------------------------------------------------------
 Exchange:     0.2000 Hartree-Fock + 0.0800 Slater + 0.7200 B88
 Correlation:  0.1900 VWN1RPA + 0.8100 LYP
 Using SG-1 standard quadrature grid
 using 12 threads for integral computing
 -------------------------------------------------------
 OpenMP Integral computing Module                
 Release: version 1.0, May 2013, Q-Chem Inc. Pittsburgh 
 -------------------------------------------------------
 -------------------------------------------------------
 OpenMP BLAS3 based DFT computing Module                
 Release: version 1.0, May 2013, Q-Chem Inc. Pittsburgh 
 -------------------------------------------------------
 A unrestricted SCF calculation will be
 performed using DIIS
 SCF converges when DIIS error is below 1.0e-06
 Alpha HF Exchange    Energy =  -4.37104968930951
 Beta HF Exchange     Energy =  -4.37104968930951
 DFT Correlation      Energy =  -1.87924423246340
 DFT Exchange         Energy = -34.04189609289435
 One-Electron (alpha) Energy = -524.33204123901101
 One-Electron (beta)  Energy = -524.33204123901101
 Total Coulomb        Energy = 402.31568231940190
 ---------------------------------------
  Cycle       Energy         DIIS error
 ---------------------------------------
    1    -517.9007783980      3.22e-02  
 Alpha HF Exchange    Energy =  -4.37389615544849
 Beta HF Exchange     Energy =  -4.37389615544849
 DFT Correlation      Energy =  -1.90856322048261
 DFT Exchange         Energy = -34.68534641590941
 One-Electron (alpha) Energy = -528.20948387838200
 One-Electron (beta)  Energy = -528.20948387838189
 Total Coulomb        Energy = 411.40696294090708
    2    -517.2428452986      3.88e-03  
 Alpha HF Exchange    Energy =  -4.31420330294906
 Beta HF Exchange     Energy =  -4.31420330294906
 DFT Correlation      Energy =  -1.87937075889301
 DFT Exchange         Energy = -34.18341845361677
 One-Electron (alpha) Energy = -524.04090818554516
 One-Electron (beta)  Energy = -524.04090818554516
 Total Coulomb        Energy = 402.44388875454933
    3    -517.2182619704      4.42e-03  
 Alpha HF Exchange    Energy =  -4.34327307949665
 Beta HF Exchange     Energy =  -4.34327307949665
 DFT Correlation      Energy =  -1.89457367651687
 DFT Exchange         Energy = -34.42738000568577
 One-Electron (alpha) Energy = -526.25032382666132
 One-Electron (beta)  Energy = -526.25032382666132
 Total Coulomb        Energy = 407.06654977022066
    4    -517.3317362597      4.13e-04  
 Alpha HF Exchange    Energy =  -4.34383734483099
 Beta HF Exchange     Energy =  -4.34383734483099
 DFT Correlation      Energy =  -1.89449882664156
 DFT Exchange         Energy = -34.43126562817700
 One-Electron (alpha) Energy = -526.24070029152620
 One-Electron (beta)  Energy = -526.24070029152620
 Total Coulomb        Energy = 407.05137324057500
    5    -517.3326050224      1.51e-04  
 Alpha HF Exchange    Energy =  -4.34383553063900
 Beta HF Exchange     Energy =  -4.34383553063901
 DFT Correlation      Energy =  -1.89452391709293
 DFT Exchange         Energy = -34.43136410307694
 One-Electron (alpha) Energy = -526.25091597476921
 One-Electron (beta)  Energy = -526.25091597476921
 Total Coulomb        Energy = 407.07181149465515
    6    -517.3327180717      3.37e-05  
 Alpha HF Exchange    Energy =  -4.34372036741093
 Beta HF Exchange     Energy =  -4.34372036741093
 DFT Correlation      Energy =  -1.89448436432714
 DFT Exchange         Energy = -34.43041804698895
 One-Electron (alpha) Energy = -526.23858307669661
 One-Electron (beta)  Energy = -526.23858307669650
 Total Coulomb        Energy = 407.04592406002314
    7    -517.3327237749      8.30e-06  
 Alpha HF Exchange    Energy =  -4.34376161970491
 Beta HF Exchange     Energy =  -4.34376161970490
 DFT Correlation      Energy =  -1.89450087259719
 DFT Exchange         Energy = -34.43074404619900
 One-Electron (alpha) Energy = -526.24332898421915
 One-Electron (beta)  Energy = -526.24332898421892
 Total Coulomb        Energy = 407.05584044498812
    8    -517.3327242171      9.98e-07  Convergence criterion met
 ---------------------------------------
 SCF time:   CPU 19.51s  wall 2.00s 
<S^2> =         -0.000000000
 Alpha HF Exchange    Energy =  -4.34376161970491
 Beta HF Exchange     Energy =  -4.34376161970490
 DFT Correlation      Energy =  -1.89450087259719
 DFT Exchange         Energy = -34.43074404619900
 One-Electron (alpha) Energy = -526.24332898421915
 One-Electron (beta)  Energy = -526.24332898421892
 Total Coulomb        Energy = 407.05584044498812
 Nuclear repulsion Energy = 173.11086146458371
 SCF   energy in the final basis set =     -517.3327242171
 Total energy in the final basis set =     -517.3327242171
 
 --------------------------------------------------------------
 
                    Orbital Energies (a.u.)
 --------------------------------------------------------------
 
 Alpha MOs
 -- Occupied --
-88.866 -10.219 -10.183 -10.183  -7.931  -5.896  -5.892  -5.886
 -0.834  -0.709  -0.690  -0.580  -0.464  -0.448  -0.419  -0.393
 -0.390  -0.351  -0.345  -0.317  -0.231
 -- Virtual --
  0.039   0.090   0.102   0.132   0.149   0.154   0.165   0.182
  0.189   0.212   0.222   0.345   0.368   0.405   0.408   0.498
  0.507   0.538   0.549   0.604   0.666   0.680   0.732   0.738
  0.739   0.800   0.836   0.848   0.857   0.882   0.891   0.914
  0.956   0.968   0.981   1.019   1.148   1.165   1.331   1.396
  1.415   1.549   1.555   1.731   1.795   1.816   1.845   1.906
  2.040   2.041   2.070   2.081   2.095   2.106   2.112   2.119
  2.149   2.287   2.324   2.352   2.378   2.545   2.551   2.628
  2.646   2.706   2.726   2.752   2.862   2.871   2.890   2.917
  3.168   3.219   3.306   3.416   3.448   3.462   3.506   4.015
  4.297   4.484   4.606
 
 Beta MOs
 -- Occupied --
-88.866 -10.219 -10.183 -10.183  -7.931  -5.896  -5.892  -5.886
 -0.834  -0.709  -0.690  -0.580  -0.464  -0.448  -0.419  -0.393
 -0.390  -0.351  -0.345  -0.317  -0.231
 -- Virtual --
  0.039   0.090   0.102   0.132   0.149   0.154   0.165   0.182
  0.189   0.212   0.222   0.345   0.368   0.405   0.408   0.498
  0.507   0.538   0.549   0.604   0.666   0.680   0.732   0.738
  0.739   0.800   0.836   0.848   0.857   0.882   0.891   0.914
  0.956   0.968   0.981   1.019   1.148   1.165   1.331   1.396
  1.415   1.549   1.555   1.731   1.795   1.816   1.845   1.906
[...]


   Energy is   -517.332724217

              Constraints and their Current Values
                                        Value     Constraint
   Distance(Angs):        1   2             1.700000     1.700000
 Hessian Updated using BFGS Update

 25 Hessian modes will be used to form the next step
  Hessian Eigenvalues:
     0.039452    0.048796    0.078790    0.081801    0.081900    0.083392
     0.083427    0.094905    0.150050    0.159621    0.160000    0.170077
     0.178603    0.199224    0.227920    0.263505    0.294350    0.299884
     0.340874    0.341324    0.341519    0.341614    0.341678    0.342142
     0.346998

 Minimum Search - Taking Simple RFO Step
 Searching for Lamda that Minimizes Along All modes
 Value Taken    Lamda =  -0.00000103
 Step Taken.  Stepsize is  0.003239

                             Maximum     Tolerance    Cnvgd?
         Gradient           0.000186      0.000300     YES
         Displacement       0.001744      0.001200      NO
         Energy change     -0.000008      0.000001      NO


 New Cartesian Coordinates Obtained by Inverse Iteration

 Displacement from previous Coordinates is:  0.005496
 ----------------------------------------------------------------
             Standard Nuclear Orientation (Angstroms)
    I     Atom           X                Y                Z
 ----------------------------------------------------------------
    1      S       1.6086753379    -0.0002279581     0.0426353006
    2      C      -0.0511283949     0.0000282583    -0.3248583306
    3      C      -0.7934861013    -1.2673486353     0.1414371313
    4      C      -0.7931092383     1.2676059259     0.1414842085
    5      H      -0.0710282370     0.0000503476    -1.4242329955
    6      H      -1.8354397321    -1.2569774245    -0.1968632166
    7      H      -0.3105842387    -2.1699966099    -0.2418401080
    8      H      -0.7976229160    -1.3270584321     1.2362685184
    9      H      -1.8350599237     1.2575718122    -0.1968393063
   10      H      -0.3099231953     2.1701246951    -0.2417380967
   11      H      -0.7972518383     1.3272606013     1.2363184114
   12      H       1.5158584778    -0.0002325807     1.3906284833
 ----------------------------------------------------------------
 Nuclear Repulsion Energy =   173.1167643163 hartrees
 There are       21 alpha and       21 beta electrons

                       Distance Matrix (Angstroms)
             S (  1)   C (  2)   C (  3)   C (  4)   H (  5)   H (  6)
   C (  2)  1.700000
   C (  3)  2.717671  1.541029
   C (  4)  2.717672  1.541027  2.534955
   H (  5)  2.230046  1.099555  2.139993  2.139993
   H (  6)  3.674059  2.186370  1.095546  2.752172  2.489920
   H (  7)  2.910735  2.187057  1.093101  3.492403  2.482850  1.777867
   H (  8)  2.995916  2.180718  1.096466  2.816178  3.060625  1.770831
   H (  9)  3.674061  2.186371  2.752186  1.095548  2.489912  2.514549
   H ( 10)  2.910725  2.187053  3.492403  1.093100  2.482859  3.751565
   H ( 11)  2.995929  2.180715  2.816163  1.096466  3.060624  3.132113
   H ( 12)  1.351185  2.323433  2.915328  2.915323  3.231355  3.915449
             H (  7)   H (  8)   H (  9)   H ( 10)   H ( 11)
   H (  8)  1.769903
   H (  9)  3.751570  3.132154
   H ( 10)  4.340121  3.827877  1.777867
   H ( 11)  3.827872  2.654319  1.770831  1.769904
   H ( 12)  3.272418  2.671421  3.915454  3.272392  2.671428
 
 Applying Cartesian multipole field
    Component          Value
    ---------          -----
     (2,0,0)        1.00000E-11
     (0,2,0)        2.00000E-11
     (0,0,2)       -3.00000E-10
 Nucleus-field energy     =    -0.0000000040 hartrees
 Requested basis set is 6-31G(d,p)
 There are 41 shells and 104 basis functions
 A cutoff of  1.0D-14 yielded    851 shell pairs
 There are      5550 function pairs
 Smallest overlap matrix eigenvalue = 5.88E-03
 Guess from superposition of atomic densities
 Warning:  Energy on first SCF cycle will be non-variational
 SAD guess density has 42.000000 electrons

 -----------------------------------------------------------------------
  General SCF calculation program by
  Eric Jon Sundstrom, Paul Horn, Yuezhi Mao, Dmitri Zuev, Alec White,
  David Stuck, Shaama M.S., Shane Yost, Joonho Lee, David Small,
  Daniel Levine, Susi Lehtola, Hugh Burton, Evgeny Epifanovsky
 -----------------------------------------------------------------------
 Exchange:     0.2000 Hartree-Fock + 0.0800 Slater + 0.7200 B88
 Correlation:  0.1900 VWN1RPA + 0.8100 LYP
 Using SG-1 standard quadrature grid
 using 12 threads for integral computing
 -------------------------------------------------------
 OpenMP Integral computing Module                
 Release: version 1.0, May 2013, Q-Chem Inc. Pittsburgh 
 -------------------------------------------------------
 -------------------------------------------------------
 OpenMP BLAS3 based DFT computing Module                
 Release: version 1.0, May 2013, Q-Chem Inc. Pittsburgh 
 -------------------------------------------------------
 A unrestricted SCF calculation will be
 performed using DIIS
 SCF converges when DIIS error is below 1.0e-06
 Alpha HF Exchange    Energy =  -4.37109411404828
 Beta HF Exchange     Energy =  -4.37109411404828
 DFT Correlation      Energy =  -1.87925286651866
 DFT Exchange         Energy = -34.04197885849651
 One-Electron (alpha) Energy = -524.33780723718803
 One-Electron (beta)  Energy = -524.33780723718803
 Total Coulomb        Energy = 402.32108341757402
 ---------------------------------------
  Cycle       Energy         DIIS error
 ---------------------------------------
    1    -517.9011866977      3.22e-02  
 Alpha HF Exchange    Energy =  -4.37391513436699
 Beta HF Exchange     Energy =  -4.37391513436699
 DFT Correlation      Energy =  -1.90857522701734
 DFT Exchange         Energy = -34.68548673176009
 One-Electron (alpha) Energy = -528.21564313780596
 One-Electron (beta)  Energy = -528.21564313780596
 Total Coulomb        Energy = 411.41358956189333
    2    -517.2428246290      3.88e-03  
 Alpha HF Exchange    Energy =  -4.31421387349356
 Beta HF Exchange     Energy =  -4.31421387349356
 DFT Correlation      Energy =  -1.87937737689126
 DFT Exchange         Energy = -34.18348953600810
 One-Electron (alpha) Energy = -524.04612299265375
 One-Electron (beta)  Energy = -524.04612299265364
 Total Coulomb        Energy = 402.44856251156102
    3    -517.2182138214      4.42e-03  
 Alpha HF Exchange    Energy =  -4.34328826211804
 Beta HF Exchange     Energy =  -4.34328826211804
 DFT Correlation      Energy =  -1.89458362754776
 DFT Exchange         Energy = -34.42749026097377
 One-Electron (alpha) Energy = -526.25615493126929
 One-Electron (beta)  Energy = -526.25615493126941
 Total Coulomb        Energy = 407.07246013004817
    4    -517.3317358330      4.13e-04  
 Alpha HF Exchange    Energy =  -4.34385299776293
 Beta HF Exchange     Energy =  -4.34385299776293
 DFT Correlation      Energy =  -1.89450896819794
 DFT Exchange         Energy = -34.43137983620798
 One-Electron (alpha) Energy = -526.24654071218913
 One-Electron (beta)  Energy = -526.24654071218924
 Total Coulomb        Energy = 407.05730623346693
    5    -517.3326056786      1.51e-04  
 Alpha HF Exchange    Energy =  -4.34385087987050
 Beta HF Exchange     Energy =  -4.34385087987050
 DFT Correlation      Energy =  -1.89453386512040
 DFT Exchange         Energy = -34.43147564047252
 One-Electron (alpha) Energy = -526.25672688265820
 One-Electron (beta)  Energy = -526.25672688265820
 Total Coulomb        Energy = 407.07768202170121
    6    -517.3327186967      3.37e-05  
 Alpha HF Exchange    Energy =  -4.34373579928095
 Beta HF Exchange     Energy =  -4.34373579928095
 DFT Correlation      Energy =  -1.89449435201304
 DFT Exchange         Energy = -34.43053027826193
 One-Electron (alpha) Energy = -526.24440326628496
 One-Electron (beta)  Energy = -526.24440326628496
 Total Coulomb        Energy = 407.05181405611745
    7    -517.3327243930      8.30e-06  
 Alpha HF Exchange    Energy =  -4.34377704059047
 Beta HF Exchange     Energy =  -4.34377704059048
 DFT Correlation      Energy =  -1.89451085514575
 DFT Exchange         Energy = -34.43085619609930
 One-Electron (alpha) Energy = -526.24914782099711
 One-Electron (beta)  Energy = -526.24914782099756
 Total Coulomb        Energy = 407.06172762712515
    8    -517.3327248350      9.98e-07  Convergence criterion met
 ---------------------------------------
 SCF time:   CPU 19.52s  wall 2.00s 
<S^2> =         -0.000000000
 Alpha HF Exchange    Energy =  -4.34377704059047
 Beta HF Exchange     Energy =  -4.34377704059048
 DFT Correlation      Energy =  -1.89451085514575
 DFT Exchange         Energy = -34.43085619609930
 One-Electron (alpha) Energy = -526.24914782099711
 One-Electron (beta)  Energy = -526.24914782099756
 Total Coulomb        Energy = 407.06172762712515
 Nuclear repulsion Energy = 173.11676431226255
 SCF   energy in the final basis set =     -517.3327248350
 Total energy in the final basis set =     -517.3327248350
 
 --------------------------------------------------------------
 
                    Orbital Energies (a.u.)
 --------------------------------------------------------------
 
 Alpha MOs
 -- Occupied --
-88.866 -10.219 -10.182 -10.182  -7.931  -5.896  -5.892  -5.886
 -0.834  -0.709  -0.690  -0.580  -0.464  -0.448  -0.419  -0.393
 -0.390  -0.351  -0.345  -0.317  -0.231
 -- Virtual --
  0.039   0.090   0.102   0.132   0.149   0.154   0.166   0.182
  0.189   0.212   0.222   0.345   0.367   0.405   0.409   0.498
  0.507   0.538   0.549   0.604   0.666   0.680   0.732   0.738
  0.739   0.800   0.836   0.848   0.857   0.882   0.891   0.915
  0.956   0.968   0.981   1.019   1.148   1.165   1.331   1.395
  1.415   1.549   1.555   1.731   1.795   1.817   1.845   1.906
  2.040   2.041   2.070   2.081   2.095   2.106   2.113   2.119
  2.149   2.287   2.324   2.352   2.378   2.546   2.551   2.628
  2.646   2.706   2.726   2.753   2.862   2.871   2.890   2.918
  3.168   3.219   3.307   3.417   3.448   3.462   3.506   4.015
  4.297   4.484   4.606
 
 Beta MOs
 -- Occupied --
-88.866 -10.219 -10.182 -10.182  -7.931  -5.896  -5.892  -5.886
 -0.834  -0.709  -0.690  -0.580  -0.464  -0.448  -0.419  -0.393
 -0.390  -0.351  -0.345  -0.317  -0.231
 -- Virtual --
  0.039   0.090   0.102   0.132   0.149   0.154   0.166   0.182
  0.189   0.212   0.222   0.345   0.367   0.405   0.409   0.498
  0.507   0.538   0.549   0.604   0.666   0.680   0.732   0.738
  0.739   0.800   0.836   0.848   0.857   0.882   0.891   0.915
  0.956   0.968   0.981   1.019   1.148   1.165   1.331   1.395
  1.415   1.549   1.555   1.731   1.795   1.817   1.845   1.906
  2.040   2.041   2.070   2.081   2.095   2.106   2.113   2.119
  2.149   2.287   2.324   2.352   2.378   2.546   2.551   2.628
  2.646   2.706   2.726   2.753   2.862   2.871   2.890   2.918
  3.168   3.219   3.307   3.417   3.448   3.462   3.506   4.015
  4.297   4.484   4.606
 --------------------------------------------------------------
 
          Ground-State Mulliken Net Atomic Charges

     Atom                 Charge (a.u.)    Spin (a.u.)
  --------------------------------------------------------
      1 S                    -0.019875      -0.000000
      2 C                    -0.222391      -0.000000
      3 C                    -0.299486       0.000000
      4 C                    -0.299486       0.000000
      5 H                     0.136882       0.000000
      6 H                     0.104211      -0.000000
      7 H                     0.119371      -0.000000
      8 H                     0.103756      -0.000000
      9 H                     0.104212      -0.000000
     10 H                     0.119371      -0.000000
     11 H                     0.103756       0.000000
     12 H                     0.049679       0.000000
  --------------------------------------------------------
  Sum of atomic charges =     0.000000
  Sum of spin   charges =     0.000000

 -----------------------------------------------------------------
                    Cartesian Multipole Moments
 -----------------------------------------------------------------
    Charge (ESU x 10^10)
                 0.0000
    Dipole Moment (Debye)
         X      -1.5648      Y       0.0002      Z       0.4362
       Tot       1.6245
    Quadrupole Moments (Debye-Ang)
        XX     -37.0581     XY       0.0002     YY     -35.2871
        XZ       1.6802     YZ      -0.0003     ZZ     -31.7102
    Octopole Moments (Debye-Ang^2)
       XXX     -33.2213    XXY       0.0010    XYY     -11.4961
       YYY       0.0039    XXZ       1.2467    XYZ      -0.0006
       YYZ      -2.3415    XZZ      -6.3381    YZZ       0.0005
       ZZZ      -3.6460
    Hexadecapole Moments (Debye-Ang^3)
      XXXX    -332.3827   XXXY       0.0052   XXYY     -97.8717
      XYYY       0.0118   YYYY    -211.9375   XXXZ       8.3007
      XXYZ      -0.0020   XYYZ      -0.6102   YYYZ      -0.0010
      XXZZ     -63.3724   XYZZ       0.0021   YYZZ     -48.4499
      XZZZ      -0.0362   YZZZ      -0.0015   ZZZZ     -68.0227
 -----------------------------------------------------------------
 Calculating analytic gradient of the SCF energy
 Gradient of SCF Energy
            1           2           3           4           5           6
    1  -0.0671577   0.0671646  -0.0000516  -0.0000519   0.0000628   0.0000133
    2   0.0000106  -0.0000105  -0.0000440   0.0000442  -0.0000001   0.0000352
    3  -0.0148178   0.0148715  -0.0000423  -0.0000423  -0.0000040   0.0000112
            7           8           9          10          11          12
    1   0.0000002   0.0000107   0.0000132  -0.0000001   0.0000105  -0.0000141
    2   0.0000112  -0.0000102  -0.0000355  -0.0000113   0.0000102   0.0000001
    3  -0.0000033  -0.0000027   0.0000111  -0.0000035  -0.0000029   0.0000250
 Max gradient component =       6.716E-02
 RMS gradient           =       1.621E-02
 Gradient time:  CPU 8.83 s  wall 0.85 s
 Geometry Optimization Parameters
   NAtoms,    NIC,     NZ,  NCons,   NDum,   NFix, NCnnct, MaxDiis
       12      75       0       1       0       0       0       0

 Cartesian Hessian Update
 Hessian Updated using BFGS Update


** CONSTRAINED OPTIMIZATION IN DELOCALIZED INTERNAL COORDINATES **
   Searching for a Minimum

   Optimization Cycle:   6

                       Coordinates (Angstroms)
     ATOM                X               Y               Z
      1  S         1.6086753379   -0.0002279581    0.0426353006
      2  C        -0.0511283949    0.0000282583   -0.3248583306
      3  C        -0.7934861013   -1.2673486353    0.1414371313
      4  C        -0.7931092383    1.2676059259    0.1414842085
      5  H        -0.0710282370    0.0000503476   -1.4242329955
      6  H        -1.8354397321   -1.2569774245   -0.1968632166
      7  H        -0.3105842387   -2.1699966099   -0.2418401080
      8  H        -0.7976229160   -1.3270584321    1.2362685184
      9  H        -1.8350599237    1.2575718122   -0.1968393063
     10  H        -0.3099231953    2.1701246951   -0.2417380967
     11  H        -0.7972518383    1.3272606013    1.2363184114
     12  H         1.5158584778   -0.0002325807    1.3906284833
   Point Group: c1    Number of degrees of freedom:    30


   Energy is   -517.332724835

              Constraints and their Current Values
                                        Value     Constraint
   Distance(Angs):        1   2             1.700000     1.700000
 Hessian Updated using BFGS Update

 28 Hessian modes will be used to form the next step
  Hessian Eigenvalues:
     0.030809    0.045000    0.045000    0.049067    0.078767    0.081314
     0.081900    0.082231    0.083427    0.094905    0.153038    0.159585
     0.160000    0.160000    0.165474    0.178603    0.197744    0.239240
     0.264163    0.293415    0.299884    0.339749    0.341238    0.341358
     0.341613    0.341678    0.342332    0.349675

 Minimum Search - Taking Simple RFO Step
 Searching for Lamda that Minimizes Along All modes
 Value Taken    Lamda =   0.00000000
 Step Taken.  Stepsize is  0.002281

                             Maximum     Tolerance    Cnvgd?
         Gradient           0.000046      0.000300     YES
         Displacement       0.001243      0.001200      NO
         Energy change     -0.000001      0.000001     YES


                       Distance Matrix (Angstroms)
             S (  1)   C (  2)   C (  3)   C (  4)   H (  5)   H (  6)
   C (  2)  1.700000
   C (  3)  2.717671  1.541029
   C (  4)  2.717672  1.541027  2.534955
   H (  5)  2.230046  1.099555  2.139993  2.139993
   H (  6)  3.674059  2.186370  1.095546  2.752172  2.489920
   H (  7)  2.910735  2.187057  1.093101  3.492403  2.482850  1.777867
   H (  8)  2.995916  2.180718  1.096466  2.816178  3.060625  1.770831
   H (  9)  3.674061  2.186371  2.752186  1.095548  2.489912  2.514549
   H ( 10)  2.910725  2.187053  3.492403  1.093100  2.482859  3.751565
   H ( 11)  2.995929  2.180715  2.816163  1.096466  3.060624  3.132113
   H ( 12)  1.351185  2.323433  2.915328  2.915323  3.231355  3.915449
             H (  7)   H (  8)   H (  9)   H ( 10)   H ( 11)
   H (  8)  1.769903
   H (  9)  3.751570  3.132154
   H ( 10)  4.340121  3.827877  1.777867
   H ( 11)  3.827872  2.654319  1.770831  1.769904
   H ( 12)  3.272418  2.671421  3.915454  3.272392  2.671428
 
 Final energy is   -517.332724835033     


 ******************************
 **  OPTIMIZATION CONVERGED  **
 ******************************

                       Coordinates (Angstroms)
     ATOM                X               Y               Z
      1  S         1.6086753379   -0.0002279581    0.0426353006
      2  C        -0.0511283949    0.0000282583   -0.3248583306
      3  C        -0.7934861013   -1.2673486353    0.1414371313
      4  C        -0.7931092383    1.2676059259    0.1414842085
      5  H        -0.0710282370    0.0000503476   -1.4242329955
      6  H        -1.8354397321   -1.2569774245   -0.1968632166
      7  H        -0.3105842387   -2.1699966099   -0.2418401080
      8  H        -0.7976229160   -1.3270584321    1.2362685184
      9  H        -1.8350599237    1.2575718122   -0.1968393063
     10  H        -0.3099231953    2.1701246951   -0.2417380967
     11  H        -0.7972518383    1.3272606013    1.2363184114
     12  H         1.5158584778   -0.0002325807    1.3906284833

Z-matrix Print:
$molecule
0 1
S 
H  1 1.351185
C  1 1.700000 2 98.545420
H  3 1.099555 1 103.521338 2 180.000000 0
C  3 1.541027 1 113.878985 2 64.089575 0
H  5 1.093100 3 111.113543 1 53.991926 0
H  5 1.095548 3 110.912507 1 174.951063 0
H  5 1.096466 3 110.410199 1 -65.651619 0
C  3 1.541029 1 113.878790 2 -64.090249 0
H  9 1.093101 3 111.113645 1 -53.993318 0
H  9 1.095546 3 110.912369 1 -174.952527 0
H  9 1.096466 3 110.410250 1 65.650166 0
$end

PES scan, value:    1.7000 energy: -517.3327248350
------- Summary of potential scan: ------ 
    1.7000      -517.3327248350
----------------------------------------- 
Archival summary:
1\1\hpc0250\JobtypUnspecified\ProcedureUnspecified\6-31G**\138\knomura\WedMar1313:46:142019WedMar1313:46:142019\0\\#,JobtypUnspecified,ProcedureUnspecified,6-31G**,\\0,1\S\H,1,1.35118\C,1,1.7,2,98.5454\H,3,1.09955,1,103.521,2,180,0\C,3,1.54103,1,113.879,2,64.0896,0\H,5,1.0931,3,111.114,1,53.9919,0\H,5,1.09555,3,110.913,1,174.951,0\H,5,1.09647,3,110.41,1,-65.6516,0\C,3,1.54103,1,113.879,2,-64.0902,0\H,9,1.0931,3,111.114,1,-53.9933,0\H,9,1.09555,3,110.912,1,-174.953,0\H,9,1.09647,3,110.41,1,65.6502,0\\\@

 Total job time:  18.53s(wall), 204.31s(cpu) 
 Wed Mar 13 13:46:14 2019

        *************************************************************
        *                                                           *
        *  Thank you very much for using Q-Chem.  Have a nice day.  *
        *                                                           *
        *************************************************************


