
Running Job 1 of 1 thiol/01/C-S.xyz.data/inputs/bond_triplet_3.1.in
qchem thiol/01/C-S.xyz.data/inputs/bond_triplet_3.1.in_12005.0 /staging/scratch/2868767/qchem12005/ 1
/usr/usc/qchem/5.1.1/exe/qcprog.exe_s thiol/01/C-S.xyz.data/inputs/bond_triplet_3.1.in_12005.0 /staging/scratch/2868767/qchem12005/
Check license passed

                  Welcome to Q-Chem
     A Quantum Leap Into The Future Of Chemistry


 Q-Chem 5.1, Q-Chem, Inc., Pleasanton, CA (2018)

 Yihan Shao,  Zhengting Gan,  E. Epifanovsky,  A. T. B. Gilbert,  M. Wormit,  
 J. Kussmann,  A. W. Lange,  A. Behn,  Jia Deng,  Xintian Feng,  D. Ghosh,  
 M. Goldey,  P. R. Horn,  L. D. Jacobson,  I. Kaliman,  T. Kus,  A. Landau,  
 Jie Liu,  E. I. Proynov,  R. M. Richard,  R. P. Steele,  E. J. Sundstrom,  
 H. L. Woodcock III,  P. M. Zimmerman,  D. Zuev,  B. Albrecht,  E. Alguire,  
 S. A. Baeppler,  D. Barton,  Z. Benda,  Y. A. Bernard,  E. J. Berquist,  
 K. B. Bravaya,  H. Burton,  D. Casanova,  Chun-Min Chang,  Yunqing Chen,  
 A. Chien,  K. D. Closser,  M. P. Coons,  S. Coriani,  S. Dasgupta,  
 A. L. Dempwolff,  M. Diedenhofen,  Hainam Do,  R. G. Edgar,  Po-Tung Fang,  
 S. Faraji,  S. Fatehi,  Qingguo Feng,  K. D. Fenk,  J. Fosso-Tande,  
 Qinghui Ge,  A. Ghysels,  G. Gidofalvi,  J. Gomes,  J. Gonthier,  A. Gunina,  
 D. Hait,  M. W. D. Hanson-Heine,  P. H. P. Harbach,  A. W. Hauser,  
 J. E. Herr,  E. G. Hohenstein,  Z. C. Holden,  Kerwin Hui,  B. C. Huynh,  
 T.-C. Jagau,  Hyunjun Ji,  B. Kaduk,  K. Khistyaev,  Jaehoon Kim,  
 P. Klunzinger,  K. Koh,  D. Kosenkov,  L. Koulias,  T. Kowalczyk,  
 C. M. Krauter,  A. Kunitsa,  Ka Un Lao,  A. Laurent,  K. V. Lawler,  
 Joonho Lee,  D. Lefrancois,  S. Lehtola,  D. S. Levine,  Yi-Pei Li,  
 You-Sheng Lin,  Fenglai Liu,  E. Livshits,  A. Luenser,  P. Manohar,  
 E. Mansoor,  S. F. Manzer,  Shan-Ping Mao,  Yuezhi Mao,  N. Mardirossian,  
 A. V. Marenich,  T. Markovich,  L. A. Martinez-Martinez,  S. A. Maurer,  
 N. J. Mayhall,  S. C. McKenzie,  J.-M. Mewes,  A. F. Morrison,  
 J. W. Mullinax,  K. Nanda,  T. S. Nguyen-Beck,  R. Olivares-Amaya,  
 J. A. Parkhill,  T. M. Perrine,  F. Plasser,  P. Pokhilko,  S. Prager,  
 A. Prociuk,  E. Ramos,  D. R. Rehn,  F. Rob,  M. Schneider,  N. Sergueev,  
 S. M. Sharada,  S. Sharma,  D. W. Small,  T. Stauch,  T. Stein,  
 Yu-Chuan Su,  A. J. W. Thom,  A. Tkatchenko,  T. Tsuchimochi,  N. M. Tubman,  
 L. Vogt,  M. L. Vidal,  O. Vydrov,  M. A. Watson,  J. Wenzel,  
 M. de Wergifosse,  T. A. Wesolowski,  A. White,  J. Witte,  A. Yamada,  
 Jun Yang,  K. Yao,  S. Yeganeh,  S. R. Yost,  Zhi-Qiang You,  A. Zech,  
 Igor Ying Zhang,  Xing Zhang,  Yan Zhao,  Ying Zhu,  B. R. Brooks,  
 G. K. L. Chan,  C. J. Cramer,  M. S. Gordon,  W. J. Hehre,  A. Klamt,  
 M. W. Schmidt,  C. D. Sherrill,  D. G. Truhlar,  A. Aspuru-Guzik,  R. Baer,  
 A. T. Bell,  N. A. Besley,  Jeng-Da Chai,  A. E. DePrince, III,  
 R. A. DiStasio Jr.,  A. Dreuw,  B. D. Dunietz,  T. R. Furlani,  
 Chao-Ping Hsu,  Yousung Jung,  Jing Kong,  D. S. Lambrecht,  WanZhen Liang,  
 C. Ochsenfeld,  V. A. Rassolov,  L. V. Slipchenko,  J. E. Subotnik,  
 T. Van Voorhis,  J. M. Herbert,  A. I. Krylov,  P. M. W. Gill,  M. Head-Gordon

 Contributors to earlier versions of Q-Chem not listed above: 
 R. D. Adamson,  B. Austin,  J. Baker,  G. J. O. Beran,  K. Brandhorst,  
 S. T. Brown,  E. F. C. Byrd,  A. K. Chakraborty,  C.-L. Cheng,  
 Siu Hung Chien,  D. M. Chipman,  D. L. Crittenden,  H. Dachsel,  
 R. J. Doerksen,  A. D. Dutoi,  L. Fusti-Molnar,  W. A. Goddard III,  
 A. Golubeva-Zadorozhnaya,  S. R. Gwaltney,  G. Hawkins,  A. Heyden,  
 S. Hirata,  G. Kedziora,  F. J. Keil,  C. Kelley,  Jihan Kim,  R. A. King,  
 R. Z. Khaliullin,  P. P. Korambath,  W. Kurlancheek,  A. M. Lee,  M. S. Lee,  
 S. V. Levchenko,  Ching Yeh Lin,  D. Liotard,  R. C. Lochan,  I. Lotan,  
 P. E. Maslen,  N. Nair,  D. P. O'Neill,  D. Neuhauser,  E. Neuscamman,  
 C. M. Oana,  R. Olson,  B. Peters,  R. Peverati,  P. A. Pieniazek,  
 Y. M. Rhee,  J. Ritchie,  M. A. Rohrdanz,  E. Rosta,  N. J. Russ,  
 H. F. Schaefer III,  N. E. Schultz,  N. Shenvi,  A. C. Simmonett,  A. Sodt,  
 D. Stuck,  K. S. Thanthiriwatte,  V. Vanovschi,  Tao Wang,  A. Warshel,  
 C. F. Williams,  Q. Wu,  X. Xu,  W. Zhang

 Please cite Q-Chem as follows:
 Y. Shao et al., Mol. Phys. 113, 184-215 (2015)
 DOI: 10.1080/00268976.2014.952696

 Q-Chem 5.1.1 for Intel X86 EM64T Linux

 Parts of Q-Chem use Armadillo 8.300.2 (Tropical Shenanigans).
 http://arma.sourceforge.net/

 Q-Chem begins on Wed Mar 13 15:04:37 2019  

Host: 
0

     Scratch files written to /staging/scratch/2868767/qchem12005//
 Aug318 |scratch|qcdevops|jenkins|workspace|build_RNUM 6013   
Processing $rem in /usr/usc/qchem/5.1.1/config/preferences.
 MEM_TOTAL  2000 
Input Ideriv = 2
Curr. Ideriv = -1
Max.  Ideriv = 2

Checking the input file for inconsistencies... 	...done.

--------------------------------------------------------------
User input:
--------------------------------------------------------------

$comment
potential surface scanner
$end

$rem
JOBTYPE  PES_SCAN
UNRESTRICTED TRUE
SYM_IGNORE  TRUE
GEOM_OPT_MAX_CYCLES 400
SCF_MAX_CYCLES 400
METHOD   B3LYP
BASIS   6-31G**
PDB_PRINT 2
SCF_CONVERGENCE 6
THRESH 14
SCF_PRINT 1
$end
$molecule
0 3
S 2.546318 0.006681 1.027145
C -0.332625 -0.001100 -0.369862
C -0.885135 -1.295952 0.141434
C -0.880420 1.295627 0.141634
H 0.050984 -0.001473 -1.390563
H -1.903370 -1.468160 -0.245393
H -0.277348 -2.152257 -0.166867
H -0.957265 -1.297123 1.234949
H -1.896267 1.473534 -0.248795
H -0.267238 2.149364 -0.163203
H -0.956933 1.295356 1.234872
H 1.289198 -0.003697 0.367058
$end
$scan
stre 1 2 3.100000 3.101000 0.100000
$end
--------------------------------------------------------------
 ----------------------------------------------------------------
             Standard Nuclear Orientation (Angstroms)
    I     Atom           X                Y                Z
 ----------------------------------------------------------------
    1      S       2.5463180000     0.0066810000     1.0271450000
    2      C      -0.3326250000    -0.0011000000    -0.3698620000
    3      C      -0.8851350000    -1.2959520000     0.1414340000
    4      C      -0.8804200000     1.2956270000     0.1416340000
    5      H       0.0509840000    -0.0014730000    -1.3905630000
    6      H      -1.9033700000    -1.4681600000    -0.2453930000
    7      H      -0.2773480000    -2.1522570000    -0.1668670000
    8      H      -0.9572650000    -1.2971230000     1.2349490000
    9      H      -1.8962670000     1.4735340000    -0.2487950000
   10      H      -0.2672380000     2.1493640000    -0.1632030000
   11      H      -0.9569330000     1.2953560000     1.2348720000
   12      H       1.2891980000    -0.0036970000     0.3670580000
 ----------------------------------------------------------------
 Nuclear Repulsion Energy =   144.6501516069 hartrees
 There are       22 alpha and       20 beta electrons
 Requested basis set is 6-31G(d,p)
 There are 41 shells and 104 basis functions

 Total QAlloc Memory Limit   2000 MB
 Mega-Array Size       188 MB
 MEM_STATIC part       192 MB
A total of 1 constraints
  
            1
    1   1.0100000
    2   1.0100000
    3   2.0100000
    4   3.1000000
    5   3.1010000
    6   0.1000000
    7   0.0000000
    8   0.0000000
    9   0.0000000
   10   0.0000000

                       Distance Matrix (Angstroms)
             S (  1)   C (  2)   C (  3)   C (  4)   H (  5)   H (  6)
   C (  2)  3.200000
   C (  3)  3.775739  1.497776
   C (  4)  3.766702  1.497734  2.591583
   H (  5)  3.474488  1.090407  2.213371  2.213054
   H (  6)  4.857389  2.152904  1.102766  2.972328  2.698534
   H (  7)  3.749636  2.161421  1.094401  3.513797  2.496218  1.765815
   H (  8)  3.744086  2.155289  1.095892  2.814888  3.096545  1.765157
   H (  9)  4.849355  2.152714  2.974007  1.102738  2.696491  2.941705
   H ( 10)  3.731503  2.161360  3.513517  1.094433  2.496753  3.971166
   H ( 11)  3.738529  2.155396  2.813475  1.095912  3.096865  3.274744
   H ( 12)  1.419920  1.781395  2.539400  2.538957  2.149979  3.565423
             H (  7)   H (  8)   H (  9)   H ( 10)   H ( 11)
   H (  8)  1.777253
   H (  9)  3.971646  3.280207
   H ( 10)  4.301634  3.782755  1.765731
   H ( 11)  3.783219  2.592479  1.765039  1.777533
   H ( 12)  2.712094  2.733639  3.564923  2.709122  2.736009
 
 A cutoff of  1.0D-14 yielded    830 shell pairs
 There are      5416 function pairs
 
 -------------------------------------------------------
 OpenMP Integral Computing Module                       
 Release: version 1.0, May 2013, Q-Chem Inc. Pittsburgh 
 -------------------------------------------------------
 Integral Job Info:
 Integral job number is                      11
 Integral operator is                         1
 short-range coefficients                     0
 long-range coefficients              100000000
 Omega coefficients                           0
 if combine SR and LR in K                    0
 Integral screening is                        0
 Integral computing path is                   2
 max size of driver memory is            800000
 size of driver memory is                593474
 size of scratch memory is             15267112
 max col of scratch BK array               1296
 max len of scratch array in speh3          155
 max len of scratch index in speh4           18
 max int batch size is                      520
 min int batch size is                       52
 fixed nKL is                                52
 max L of basis functions is                  2
 order of int derivative is                   0
 number of shells is                         41
 number of basis is                         104
 number of cartesian basis is               104
 number of contracted shell pairs           830
 number of primitive shell pairs           2943
 maxK2 (contraction) of shell pair           36
 max number of K2 of shell pair               1
 max number of CS2 of shell pair             78
 max number of PS2 of shell pair            276
 mem total for path MDJ                  513890
 -------------------------------------------------------
 Smallest overlap matrix eigenvalue = 5.82E-03

 Scale SEOQF with 1.000000e-01/1.000000e-01/1.000000e-01

 Standard Electronic Orientation quadrupole field applied
 Nucleus-field energy     =     0.0000000046 hartrees
 Guess from superposition of atomic densities
 Warning:  Energy on first SCF cycle will be non-variational
 SAD guess density has 42.000000 electrons

 -----------------------------------------------------------------------
  General SCF calculation program by
  Eric Jon Sundstrom, Paul Horn, Yuezhi Mao, Dmitri Zuev, Alec White,
  David Stuck, Shaama M.S., Shane Yost, Joonho Lee, David Small,
  Daniel Levine, Susi Lehtola, Hugh Burton, Evgeny Epifanovsky
 -----------------------------------------------------------------------
 Exchange:     0.2000 Hartree-Fock + 0.0800 Slater + 0.7200 B88
 Correlation:  0.1900 VWN1RPA + 0.8100 LYP
 Using SG-1 standard quadrature grid
 using 12 threads for integral computing
 -------------------------------------------------------
 OpenMP Integral computing Module                
 Release: version 1.0, May 2013, Q-Chem Inc. Pittsburgh 
 -------------------------------------------------------
 -------------------------------------------------------
 OpenMP BLAS3 based DFT computing Module                
 Release: version 1.0, May 2013, Q-Chem Inc. Pittsburgh 
 -------------------------------------------------------
 A unrestricted SCF calculation will be
 performed using DIIS
 SCF converges when DIIS error is below 1.0e-06
 Alpha HF Exchange    Energy =  -4.32585715936382
 Beta HF Exchange     Energy =  -4.32585715936382
 DFT Correlation      Energy =  -1.86182340403835
 DFT Exchange         Energy = -33.95476653208200
 One-Electron (alpha) Energy = -495.98292754266248
 One-Electron (beta)  Energy = -495.98292754266248
 Total Coulomb        Energy = 374.29838062199775
 ---------------------------------------
  Cycle       Energy         DIIS error
 ---------------------------------------
    1    -517.4856271066      2.83e-02  
 Alpha HF Exchange    Energy =  -4.45310606665855
 Beta HF Exchange     Energy =  -4.26600833639697
 DFT Correlation      Energy =  -1.88135737088685
 DFT Exchange         Energy = -34.58237727841482
 One-Electron (alpha) Energy = -511.56090322896523
 One-Electron (beta)  Energy = -487.08204896611772
 Total Coulomb        Energy = 382.02384961066184
    2    -517.1518000252      3.72e-03  
 Alpha HF Exchange    Energy =  -4.39882776770433
 Beta HF Exchange     Energy =  -4.21616857674051
 DFT Correlation      Energy =  -1.85414261634702
 DFT Exchange         Energy = -34.13935476313006
 One-Electron (alpha) Energy = -508.32988680897409
 One-Electron (beta)  Energy = -483.81667359241862
 Total Coulomb        Energy = 374.96264740139259
    3    -517.1422551124      3.97e-03  
 Alpha HF Exchange    Energy =  -4.42629612052237
 Beta HF Exchange     Energy =  -4.23961079953281
 DFT Correlation      Energy =  -1.86711486253383
 DFT Exchange         Energy = -34.35184538004512
 One-Electron (alpha) Energy = -510.05471586882851
 One-Electron (beta)  Energy = -485.37788698693498
 Total Coulomb        Energy = 378.43276908900975
    4    -517.2345493178      3.41e-04  
 Alpha HF Exchange    Energy =  -4.42749595583904
 Beta HF Exchange     Energy =  -4.24087068609716
 DFT Correlation      Energy =  -1.86697160163942
 DFT Exchange         Energy = -34.36007937145433
 One-Electron (alpha) Energy = -510.11713177617958
 One-Electron (beta)  Energy = -485.37845584974400
 Total Coulomb        Energy = 378.50568965434331
    5    -517.2351639751      1.90e-04  
 Alpha HF Exchange    Energy =  -4.42760482764137
 Beta HF Exchange     Energy =  -4.24047058631324
 DFT Correlation      Energy =  -1.86684207859540
 DFT Exchange         Energy = -34.35869774260285
 One-Electron (alpha) Energy = -510.11907239314115
 One-Electron (beta)  Energy = -485.36011962963914
 Total Coulomb        Energy = 378.48725887989679
    6    -517.2353967665      4.57e-05  
 Alpha HF Exchange    Energy =  -4.42745628875829
 Beta HF Exchange     Energy =  -4.24039397341805
 DFT Correlation      Energy =  -1.86673298187414
 DFT Exchange         Energy = -34.35756749496592
 One-Electron (alpha) Energy = -510.10977857894625
 One-Electron (beta)  Energy = -485.34472378344992
 Total Coulomb        Energy = 378.46109050186027
    7    -517.2354109880      1.32e-05  
 Alpha HF Exchange    Energy =  -4.42758148360232
 Beta HF Exchange     Energy =  -4.24045580267229
 DFT Correlation      Energy =  -1.86673990872162
 DFT Exchange         Energy = -34.35824551155752
 One-Electron (alpha) Energy = -510.11779906085633
 One-Electron (beta)  Energy = -485.34813274514380
 Total Coulomb        Energy = 378.47339026431274
    8    -517.2354126367      4.40e-06  
 Alpha HF Exchange    Energy =  -4.42756064929671
 Beta HF Exchange     Energy =  -4.24044282059037
 DFT Correlation      Energy =  -1.86672733003750
 DFT Exchange         Energy = -34.35809725418169
 One-Electron (alpha) Energy = -510.11601327790783
 One-Electron (beta)  Energy = -485.34631889414123
 Total Coulomb        Energy = 378.46959580393610
    9    -517.2354128107      1.11e-06  
 Alpha HF Exchange    Energy =  -4.42756288640406
 Beta HF Exchange     Energy =  -4.24044594972809
 DFT Correlation      Energy =  -1.86672759345246
 DFT Exchange         Energy = -34.35811913647942
 One-Electron (alpha) Energy = -510.11610327598493
 One-Electron (beta)  Energy = -485.34655934659412
 Total Coulomb        Energy = 378.46995375367180
   10    -517.2354128234      3.41e-07  Convergence criterion met
 ---------------------------------------
 SCF time:   CPU 24.22s  wall 2.00s 
<S^2> =          2.006861496
 Alpha HF Exchange    Energy =  -4.42756288640406
 Beta HF Exchange     Energy =  -4.24044594972809
 DFT Correlation      Energy =  -1.86672759345246
 DFT Exchange         Energy = -34.35811913647942
 One-Electron (alpha) Energy = -510.11610327598493
 One-Electron (beta)  Energy = -485.34655934659412
 Total Coulomb        Energy = 378.46995375367180
 Nuclear repulsion Energy = 144.65015161154963
 SCF   energy in the final basis set =     -517.2354128234
 Total energy in the final basis set =     -517.2354128234
 
 --------------------------------------------------------------
 
                    Orbital Energies (a.u.)
 --------------------------------------------------------------
 
 Alpha MOs
 -- Occupied --
-88.884 -10.217 -10.193 -10.193  -7.945  -5.916  -5.907  -5.897
 -0.802  -0.709  -0.705  -0.589  -0.468  -0.455  -0.422  -0.400
 -0.383  -0.369  -0.362  -0.299  -0.252  -0.208
 -- Virtual --
  0.086   0.100   0.120   0.131   0.158   0.160   0.168   0.178
  0.228   0.269   0.291   0.347   0.356   0.373   0.485   0.494
  0.537   0.580   0.581   0.678   0.684   0.686   0.730   0.736
  0.758   0.761   0.766   0.820   0.844   0.848   0.870   0.871
  0.896   0.923   0.935   1.056   1.210   1.281   1.336   1.358
  1.419   1.514   1.624   1.764   1.811   1.855   1.860   1.997
  2.026   2.033   2.046   2.059   2.096   2.102   2.169   2.170
  2.231   2.271   2.359   2.380   2.484   2.545   2.591   2.662
  2.698   2.742   2.753   2.843   2.859   2.892   2.927   3.148
  3.193   3.341   3.408   3.441   3.446   3.479   3.944   4.265
  4.471   4.602
 
 Beta MOs
 -- Occupied --
-88.877 -10.205 -10.194 -10.194  -7.939  -5.900  -5.898  -5.894
 -0.785  -0.702  -0.662  -0.570  -0.462  -0.435  -0.417  -0.395
 -0.365  -0.363  -0.356  -0.235
 -- Virtual --
 -0.155  -0.081   0.091   0.121   0.126   0.135   0.166   0.169
  0.172   0.178   0.238   0.276   0.310   0.373   0.380   0.383
  0.486   0.498   0.557   0.587   0.588   0.687   0.699   0.713
  0.737   0.780   0.786   0.816   0.820   0.833   0.849   0.856
  0.874   0.884   0.903   0.932   0.938   1.066   1.210   1.291
  1.340   1.375   1.441   1.514   1.630   1.772   1.832   1.880
  1.882   2.020   2.029   2.038   2.049   2.063   2.098   2.108
  2.165   2.169   2.237   2.273   2.360   2.388   2.504   2.559
  2.603   2.666   2.702   2.746   2.758   2.849   2.864   2.899
  2.931   3.152   3.198   3.347   3.410   3.444   3.450   3.484
  3.965   4.277   4.471   4.618
 --------------------------------------------------------------
 
          Ground-State Mulliken Net Atomic Charges

     Atom                 Charge (a.u.)    Spin (a.u.)
  --------------------------------------------------------
      1 S                    -0.111921       1.197765
      2 C                    -0.124222       0.846462
      3 C                    -0.323085      -0.057119
      4 C                    -0.323758      -0.057055
      5 H                     0.121523      -0.030051
      6 H                     0.121854       0.054567
      7 H                     0.121000       0.007557
      8 H                     0.124463       0.012676
      9 H                     0.122167       0.054548
     10 H                     0.121433       0.007672
     11 H                     0.124035       0.012505
     12 H                     0.026512      -0.049527
  --------------------------------------------------------
  Sum of atomic charges =    -0.000000
  Sum of spin   charges =     2.000000

 -----------------------------------------------------------------
                    Cartesian Multipole Moments
 -----------------------------------------------------------------
    Charge (ESU x 10^10)
                 0.0000
    Dipole Moment (Debye)
         X      -2.5795      Y      -0.0087      Z      -1.0099
       Tot       2.7702
    Quadrupole Moments (Debye-Ang)
        XX     -40.4120     XY      -0.1078     YY     -32.4618
        XZ      -1.9965     YZ       0.1351     ZZ     -36.3766
    Octopole Moments (Debye-Ang^2)
       XXX     -78.7984    XXY      -0.5510    XYY     -17.2662
       YYY      -0.2193    XXZ     -16.7889    XYZ       0.2845
       YYZ     -13.2713    XZZ     -24.3337    YZZ       0.2038
       ZZZ     -46.3835
    Hexadecapole Moments (Debye-Ang^3)
      XXXX    -705.5488   XXXY      -2.6999   XXYY    -139.3790
      XYYY      -0.8967   YYYY    -213.0465   XXXZ     -98.2198
      XXYZ       0.4693   XYYZ     -30.9265   YYYZ      -0.0964
      XXZZ    -142.9566   XYZZ       0.3439   YYZZ     -61.4900
      XZZZ    -112.9269   YZZZ       0.3147   ZZZZ    -163.1739
 -----------------------------------------------------------------
 Calculating analytic gradient of the SCF energy
 Gradient of SCF Energy
            1           2           3           4           5           6
    1  -0.0009268   0.0009617  -0.0000029  -0.0000215  -0.0000093  -0.0000009
    2   0.0000602   0.0000868  -0.0000026  -0.0000115  -0.0000070  -0.0000033
    3  -0.0004638   0.0005158   0.0000171   0.0000112  -0.0000021   0.0000128
            7           8           9          10          11          12
    1  -0.0000051   0.0000111  -0.0000006  -0.0000067   0.0000057  -0.0000047
    2  -0.0000025   0.0000021   0.0000040   0.0000024  -0.0000039  -0.0001247
    3  -0.0000050   0.0000062   0.0000001  -0.0000012  -0.0000001  -0.0000910
 Max gradient component =       9.617E-04
 RMS gradient           =       2.529E-04
 Gradient time:  CPU 8.33 s  wall 0.70 s
 Geometry Optimization Parameters
   NAtoms,    NIC,     NZ,  NCons,   NDum,   NFix, NCnnct, MaxDiis
       12      75       0       1       0       0       0       0


** CONSTRAINED OPTIMIZATION IN DELOCALIZED INTERNAL COORDINATES **
   Searching for a Minimum

   Optimization Cycle:   1

                       Coordinates (Angstroms)
     ATOM                X               Y               Z
      1  S         2.5463180000    0.0066810000    1.0271450000
      2  C        -0.3326250000   -0.0011000000   -0.3698620000
      3  C        -0.8851350000   -1.2959520000    0.1414340000
      4  C        -0.8804200000    1.2956270000    0.1416340000
      5  H         0.0509840000   -0.0014730000   -1.3905630000
      6  H        -1.9033700000   -1.4681600000   -0.2453930000
      7  H        -0.2773480000   -2.1522570000   -0.1668670000
      8  H        -0.9572650000   -1.2971230000    1.2349490000
      9  H        -1.8962670000    1.4735340000   -0.2487950000
     10  H        -0.2672380000    2.1493640000   -0.1632030000
     11  H        -0.9569330000    1.2953560000    1.2348720000
     12  H         1.2891980000   -0.0036970000    0.3670580000
   Point Group: c1    Number of degrees of freedom:    30


   Energy is   -517.235412823

              Constraints and their Current Values
                                        Value     Constraint
   Distance(Angs):        1   2             3.200000     3.100000

 Attempting to Generate Delocalized Internal Coordinates

   Using Lagrange Multiplier Algorithm


 31 Hessian modes will be used to form the next step
  Hessian Eigenvalues:
    -0.990687    0.045000    0.045000    0.057261    0.079549    0.081573
     0.081581    0.083049    0.083060    0.114863    0.136245    0.148138
     0.160000    0.160000    0.160000    0.160000    0.160000    0.160000
     0.200000    0.200025    0.218011    0.326118    0.326162    0.333781
     0.333811    0.341382    0.341405    0.343053    0.343090    0.347657
     1.009401

 Minimum Search - Taking P-RFO Step
 Searching for Lamda that Maximizes Along the Constraint modes Only
 Value Taken    Lamda =   0.01806351
 Searching for Lamda that Minimizes Along All other modes
 Value Taken    Lamda =  -0.01703993
 Step Taken.  Stepsize is  0.185712

                             Maximum     Tolerance    Cnvgd?
         Gradient            0.188973       0.000300      NO
         Displacement        0.185711       0.001200      NO
         Energy change     *********       0.000001      NO


 New Cartesian Coordinates Obtained by Inverse Iteration

 Displacement from previous Coordinates is:  0.190337
 ----------------------------------------------------------------
             Standard Nuclear Orientation (Angstroms)
    I     Atom           X                Y                Z
 ----------------------------------------------------------------
    1      S       2.4652991360     0.0068833481     0.9995612681
    2      C      -0.3202305307    -0.0011741512    -0.3647942663
    3      C      -0.8740152365    -1.2960136886     0.1451220142
    4      C      -0.8691289939     1.2956072929     0.1453885307
    5      H       0.0659139385    -0.0015260720    -1.3845385557
    6      H      -1.8912847726    -1.4682292192    -0.2442351935
    7      H      -0.2654390568    -2.1523138913    -0.1616227233
    8      H      -0.9488799521    -1.2971717655     1.2384542323
    9      H      -1.8840292378     1.4736396708    -0.2474279993
   10      H      -0.2550942845     2.1492612461    -0.1579605195
   11      H      -0.9482543752     1.2953418956     1.2384479192
   12      H       1.2550423655    -0.0035046657     0.3560142932
 ----------------------------------------------------------------
 Nuclear Repulsion Energy =   146.4755955400 hartrees
 There are       22 alpha and       20 beta electrons

                       Distance Matrix (Angstroms)
             S (  1)   C (  2)   C (  3)   C (  4)   H (  5)   H (  6)
   C (  2)  3.101726
   C (  3)  3.684919  1.497766
   C (  4)  3.675436  1.497738  2.591626
   H (  5)  3.382462  1.090406  2.213374  2.213038
   H (  6)  4.764747  2.152904  1.102767  2.972440  2.698543
   H (  7)  3.669797  2.161408  1.094398  3.513810  2.496238  1.765834
   H (  8)  3.662547  2.155276  1.095893  2.814899  3.096546  1.765150
   H (  9)  4.756366  2.152746  2.974089  1.102734  2.696556  2.941880
   H ( 10)  3.651052  2.161341  3.513523  1.094433  2.496683  3.971247
   H ( 11)  3.656438  2.155401  2.813538  1.095920  3.096847  3.274902
   H ( 12)  1.370760  1.732355  2.499588  2.498832  2.107974  3.522086
             H (  7)   H (  8)   H (  9)   H ( 10)   H ( 11)
   H (  8)  1.777238
   H (  9)  3.971742  3.280205
   H ( 10)  4.301589  3.782752  1.765757
   H ( 11)  3.783222  2.592514  1.765019  1.777528
   H ( 12)  2.682758  2.703618  3.521345  2.679381  2.705588
 
 Applying Cartesian multipole field
    Component          Value
    ---------          -----
     (2,0,0)        1.00000E-11
     (0,2,0)        2.00000E-11
     (0,0,2)       -3.00000E-11
 Nucleus-field energy     =     0.0000000045 hartrees
 Requested basis set is 6-31G(d,p)
 There are 41 shells and 104 basis functions
 A cutoff of  1.0D-14 yielded    830 shell pairs
 There are      5416 function pairs
 Smallest overlap matrix eigenvalue = 5.67E-03
 Guess from superposition of atomic densities
 Warning:  Energy on first SCF cycle will be non-variational
 SAD guess density has 42.000000 electrons

 -----------------------------------------------------------------------
  General SCF calculation program by
  Eric Jon Sundstrom, Paul Horn, Yuezhi Mao, Dmitri Zuev, Alec White,
  David Stuck, Shaama M.S., Shane Yost, Joonho Lee, David Small,
  Daniel Levine, Susi Lehtola, Hugh Burton, Evgeny Epifanovsky
 -----------------------------------------------------------------------
 Exchange:     0.2000 Hartree-Fock + 0.0800 Slater + 0.7200 B88
 Correlation:  0.1900 VWN1RPA + 0.8100 LYP
 Using SG-1 standard quadrature grid
 using 12 threads for integral computing
 -------------------------------------------------------
 OpenMP Integral computing Module                
 Release: version 1.0, May 2013, Q-Chem Inc. Pittsburgh 
 -------------------------------------------------------
 -------------------------------------------------------
 OpenMP BLAS3 based DFT computing Module                
 Release: version 1.0, May 2013, Q-Chem Inc. Pittsburgh 
 -------------------------------------------------------
 A unrestricted SCF calculation will be
 performed using DIIS
 SCF converges when DIIS error is below 1.0e-06
 Alpha HF Exchange    Energy =  -4.32959449214099
 Beta HF Exchange     Energy =  -4.32959449214099
 DFT Correlation      Energy =  -1.86318398279191
 DFT Exchange         Energy = -33.96284407009602
 One-Electron (alpha) Energy = -497.78918466895880
 One-Electron (beta)  Energy = -497.78918466895880
 Total Coulomb        Energy = 376.06990346187428
 ---------------------------------------
  Cycle       Energy         DIIS error
 ---------------------------------------
    1    -517.5180873688      2.86e-02  
 Alpha HF Exchange    Energy =  -4.45565605504235
 Beta HF Exchange     Energy =  -4.26766929864960
 DFT Correlation      Energy =  -1.88274140210120
 DFT Exchange         Energy = -34.59735765446472
 One-Electron (alpha) Energy = -513.50901103164267
 One-Electron (beta)  Energy = -488.80449048965045
 Total Coulomb        Energy = 383.89124426867193
    2    -517.1500861184      3.73e-03  
 Alpha HF Exchange    Energy =  -4.40117716610144
 Beta HF Exchange     Energy =  -4.21766468781025
 DFT Correlation      Energy =  -1.85541953778737
 DFT Exchange         Energy = -34.15238992941148
 One-Electron (alpha) Energy = -510.24165424744376
 One-Electron (beta)  Energy = -485.50924257496990
 Total Coulomb        Energy = 376.76192167080416
    3    -517.1400309283      3.99e-03  
 Alpha HF Exchange    Energy =  -4.42862979344854
 Beta HF Exchange     Energy =  -4.24117255449291
 DFT Correlation      Energy =  -1.86844302493607
 DFT Exchange         Energy = -34.36533831095393
 One-Electron (alpha) Energy = -511.98263393883104
 One-Electron (beta)  Energy = -487.08659657584019
 Total Coulomb        Energy = 380.26398827306713
    4    -517.2332303810      3.33e-04  
 Alpha HF Exchange    Energy =  -4.42983691142929
 Beta HF Exchange     Energy =  -4.24244479230887
 DFT Correlation      Energy =  -1.86829829847894
 DFT Exchange         Energy = -34.37367271862308
 One-Electron (alpha) Energy = -512.04346382651863
 One-Electron (beta)  Energy = -487.08661251164591
 Total Coulomb        Energy = 380.33492029347559
    5    -517.2338132211      1.86e-04  
 Alpha HF Exchange    Energy =  -4.42993984874072
 Beta HF Exchange     Energy =  -4.24206004491645
 DFT Correlation      Energy =  -1.86817573549737
 DFT Exchange         Energy = -34.37234072313021
 One-Electron (alpha) Energy = -512.04621085147994
 One-Electron (beta)  Energy = -487.07005760346908
 Total Coulomb        Energy = 380.31915897811734
    6    -517.2340302847      4.55e-05  
 Alpha HF Exchange    Energy =  -4.42978215752821
 Beta HF Exchange     Energy =  -4.24198417035379
 DFT Correlation      Energy =  -1.86806932886349
 DFT Exchange         Energy = -34.37118881273585
 One-Electron (alpha) Energy = -512.03633164735595
 One-Electron (beta)  Energy = -487.05493313914218
 Total Coulomb        Energy = 380.29264967348092
    7    -517.2340440380      1.27e-05  
 Alpha HF Exchange    Energy =  -4.42989853788043
 Beta HF Exchange     Energy =  -4.24204540790903
 DFT Correlation      Energy =  -1.86807583426693
 DFT Exchange         Energy = -34.37183455621033
 One-Electron (alpha) Energy = -512.04390831051853
 One-Electron (beta)  Energy = -487.05839455495862
 Total Coulomb        Energy = 380.30451612089871
    8    -517.2340455364      4.05e-06  
 Alpha HF Exchange    Energy =  -4.42987818722234
 Beta HF Exchange     Energy =  -4.24203390101524
 DFT Correlation      Energy =  -1.86806414544516
 DFT Exchange         Energy = -34.37169552018570
 One-Electron (alpha) Energy = -512.04213427315085
 One-Electron (beta)  Energy = -487.05674819718411
 Total Coulomb        Energy = 380.30091299386845
    9    -517.2340456859      1.01e-06  
 Alpha HF Exchange    Energy =  -4.42988016407186
 Beta HF Exchange     Energy =  -4.24203742953407
 DFT Correlation      Energy =  -1.86806447154988
 DFT Exchange         Energy = -34.37171817310566
 One-Electron (alpha) Energy = -512.04222125277397
 One-Electron (beta)  Energy = -487.05703456493319
 Total Coulomb        Energy = 380.30131481422978
   10    -517.2340456973      3.33e-07  Convergence criterion met
 ---------------------------------------
 SCF time:   CPU 23.32s  wall 2.00s 
<S^2> =          2.006488968
 Alpha HF Exchange    Energy =  -4.42988016407186
 Beta HF Exchange     Energy =  -4.24203742953407
 DFT Correlation      Energy =  -1.86806447154988
 DFT Exchange         Energy = -34.37171817310566
 One-Electron (alpha) Energy = -512.04222125277397
 One-Electron (beta)  Energy = -487.05703456493319
 Total Coulomb        Energy = 380.30131481422978
 Nuclear repulsion Energy = 146.47559554444942
 SCF   energy in the final basis set =     -517.2340456973
 Total energy in the final basis set =     -517.2340456973
 
 --------------------------------------------------------------
 
                    Orbital Energies (a.u.)
 --------------------------------------------------------------
 
 Alpha MOs
 -- Occupied --
-88.882 -10.215 -10.193 -10.193  -7.944  -5.915  -5.906  -5.896
 -0.802  -0.716  -0.704  -0.589  -0.467  -0.457  -0.422  -0.400
 -0.386  -0.368  -0.362  -0.300  -0.253  -0.206
 -- Virtual --
  0.089   0.109   0.122   0.132   0.158   0.161   0.169   0.178
  0.228   0.269   0.288   0.348   0.364   0.373   0.485   0.494
  0.537   0.580   0.584   0.675   0.684   0.689   0.731   0.738
  0.758   0.761   0.767   0.828   0.845   0.850   0.871   0.878
  0.897   0.927   0.936   1.071   1.216   1.281   1.336   1.360
  1.454   1.515   1.628   1.763   1.814   1.857   1.859   1.995
  2.027   2.034   2.049   2.060   2.096   2.101   2.182   2.185
  2.233   2.271   2.363   2.381   2.491   2.545   2.593   2.664
  2.700   2.742   2.797   2.844   2.867   2.916   2.928   3.149
  3.194   3.342   3.408   3.443   3.447   3.482   3.949   4.273
  4.472   4.605
 
 Beta MOs
 -- Occupied --
-88.875 -10.203 -10.194 -10.193  -7.938  -5.899  -5.897  -5.893
 -0.786  -0.702  -0.670  -0.570  -0.461  -0.436  -0.416  -0.394
 -0.366  -0.365  -0.357  -0.236
 -- Virtual --
 -0.156  -0.078   0.092   0.122   0.135   0.136   0.167   0.171
  0.172   0.179   0.239   0.276   0.307   0.378   0.383   0.384
  0.487   0.498   0.558   0.589   0.590   0.687   0.698   0.713
  0.737   0.780   0.785   0.816   0.820   0.838   0.851   0.858
  0.875   0.891   0.903   0.939   0.939   1.082   1.217   1.292
  1.340   1.377   1.474   1.515   1.634   1.771   1.835   1.881
  1.882   2.018   2.030   2.038   2.052   2.064   2.098   2.107
  2.181   2.183   2.238   2.274   2.365   2.389   2.509   2.559
  2.606   2.668   2.704   2.747   2.801   2.850   2.871   2.926
  2.932   3.153   3.199   3.348   3.410   3.445   3.451   3.487
  3.970   4.285   4.472   4.621
 --------------------------------------------------------------
 
          Ground-State Mulliken Net Atomic Charges

     Atom                 Charge (a.u.)    Spin (a.u.)
  --------------------------------------------------------
      1 S                    -0.107730       1.195695
      2 C                    -0.132922       0.846654
      3 C                    -0.322333      -0.056573
      4 C                    -0.323176      -0.056497
      5 H                     0.121769      -0.029885
      6 H                     0.121697       0.053905
      7 H                     0.120167       0.007609
      8 H                     0.124094       0.012674
      9 H                     0.122081       0.053917
     10 H                     0.120662       0.007720
     11 H                     0.123642       0.012505
     12 H                     0.032049      -0.047724
  --------------------------------------------------------
  Sum of atomic charges =    -0.000000
  Sum of spin   charges =     2.000000

 -----------------------------------------------------------------
                    Cartesian Multipole Moments
 -----------------------------------------------------------------
    Charge (ESU x 10^10)
                 0.0000
    Dipole Moment (Debye)
         X      -2.4918      Y      -0.0092      Z      -0.9879
       Tot       2.6805
    Quadrupole Moments (Debye-Ang)
        XX     -40.1540     XY      -0.1141     YY     -32.4519
        XZ      -1.9355     YZ       0.1398     ZZ     -36.3136
    Octopole Moments (Debye-Ang^2)
       XXX     -74.9610    XXY      -0.5608    XYY     -16.3647
       YYY      -0.2248    XXZ     -16.2716    XYZ       0.2852
       YYZ     -12.9879    XZZ     -23.1423    YZZ       0.2046
       ZZZ     -45.2230
    Hexadecapole Moments (Debye-Ang^3)
      XXXX    -666.6768   XXXY      -2.6942   XXYY    -133.9225
      XYYY      -0.9138   YYYY    -213.2654   XXXZ     -91.6142
      XXYZ       0.4495   XYYZ     -28.9618   YYYZ      -0.0960
      XXZZ    -135.6249   XYZZ       0.3243   YYZZ     -60.7979
      XZZZ    -105.7876   YZZZ       0.3092   ZZZZ    -157.9467
 -----------------------------------------------------------------
 Calculating analytic gradient of the SCF energy
 Gradient of SCF Energy
            1           2           3           4           5           6
    1  -0.0202926   0.0040207   0.0005370   0.0005006   0.0002956  -0.0000675
    2  -0.0001049   0.0000926   0.0000109  -0.0000267  -0.0000092   0.0001076
    3  -0.0105231   0.0022485   0.0002005   0.0001937   0.0001790  -0.0000511
            7           8           9          10          11          12
    1  -0.0000396  -0.0000449  -0.0000689  -0.0000409  -0.0000441   0.0152446
    2   0.0000791  -0.0000132  -0.0001042  -0.0000807   0.0000132   0.0000356
    3   0.0000059  -0.0000453  -0.0000666   0.0000128  -0.0000545   0.0079002
 Max gradient component =       2.029E-02
 RMS gradient           =       4.829E-03
 Gradient time:  CPU 7.98 s  wall 0.67 s
 Geometry Optimization Parameters
   NAtoms,    NIC,     NZ,  NCons,   NDum,   NFix, NCnnct, MaxDiis
       12      75       0       1       0       0       0       0

 Cartesian Hessian Update
 Hessian Updated using BFGS Update


** CONSTRAINED OPTIMIZATION IN DELOCALIZED INTERNAL COORDINATES **
   Searching for a Minimum

   Optimization Cycle:   2

                       Coordinates (Angstroms)
     ATOM                X               Y               Z
      1  S         2.4652991360    0.0068833481    0.9995612681
      2  C        -0.3202305307   -0.0011741512   -0.3647942663
      3  C        -0.8740152365   -1.2960136886    0.1451220142
      4  C        -0.8691289939    1.2956072929    0.1453885307
      5  H         0.0659139385   -0.0015260720   -1.3845385557
      6  H        -1.8912847726   -1.4682292192   -0.2442351935
      7  H        -0.2654390568   -2.1523138913   -0.1616227233
      8  H        -0.9488799521   -1.2971717655    1.2384542323
      9  H        -1.8840292378    1.4736396708   -0.2474279993
     10  H        -0.2550942845    2.1492612461   -0.1579605195
     11  H        -0.9482543752    1.2953418956    1.2384479192
     12  H         1.2550423655   -0.0035046657    0.3560142932
   Point Group: c1    Number of degrees of freedom:    30


   Energy is   -517.234045697

              Constraints and their Current Values
                                        Value     Constraint
   Distance(Angs):        1   2             3.101726     3.100000
 Hessian Updated using BFGS Update

   Using Lagrange Multiplier Algorithm


 27 Hessian modes will be used to form the next step
  Hessian Eigenvalues:
    -0.966868    0.045000    0.045000    0.057286    0.079548    0.081574
     0.081583    0.083049    0.083060    0.114861    0.148138    0.159974
     0.160000    0.193101    0.199990    0.202765    0.218033    0.326135
     0.326230    0.333783    0.333814    0.341384    0.341406    0.343057
     0.343095    0.347659    1.038816

 Minimum Search - Taking P-RFO Step
 Searching for Lamda that Maximizes Along the Constraint modes Only
 Value Taken    Lamda =   0.00007881
 Searching for Lamda that Minimizes Along All other modes
 Value Taken    Lamda =  -0.00078907
 Step Taken.  Stepsize is  0.062771

                             Maximum     Tolerance    Cnvgd?
         Gradient            0.009879       0.000300      NO
         Displacement        0.040072       0.001200      NO
         Energy change      0.001367       0.000001      NO


 New Cartesian Coordinates Obtained by Inverse Iteration

 Displacement from previous Coordinates is:  0.042640
 ----------------------------------------------------------------
             Standard Nuclear Orientation (Angstroms)
    I     Atom           X                Y                Z
 ----------------------------------------------------------------
    1      S       2.4651572153     0.0073640240     1.0024762498
    2      C      -0.3174334809    -0.0012886741    -0.3639486707
    3      C      -0.8723034739    -1.2961903015     0.1455232126
    4      C      -0.8671791457     1.2956391979     0.1458672205
    5      H       0.0681350349    -0.0016106460    -1.3839819962
    6      H      -1.8894418318    -1.4686563038    -0.2438603866
    7      H      -0.2638211101    -2.1527755861    -0.1609384515
    8      H      -0.9472694919    -1.2972404316     1.2388987758
    9      H      -1.8819884843     1.4740563600    -0.2467844668
   10      H      -0.2531622818     2.1494883658    -0.1573161082
   11      H      -0.9462525525     1.2952841808     1.2389908686
   12      H       1.2354586028    -0.0032701854     0.3474827528
 ----------------------------------------------------------------
 Nuclear Repulsion Energy =   146.4421094772 hartrees
 There are       22 alpha and       20 beta electrons

                       Distance Matrix (Angstroms)
             S (  1)   C (  2)   C (  3)   C (  4)   H (  5)   H (  6)
   C (  2)  3.100000
   C (  3)  3.684056  1.498070
   C (  4)  3.673948  1.498050  2.591835
   H (  5)  3.382452  1.090473  2.213537  2.213167
   H (  6)  4.763877  2.153787  1.102694  2.972917  2.698927
   H (  7)  3.669749  2.161708  1.094490  3.514219  2.496706  1.765655
   H (  8)  3.660949  2.155297  1.095943  2.814988  3.096644  1.765120
   H (  9)  4.754946  2.153649  2.974498  1.102654  2.696997  2.942724
   H ( 10)  3.650079  2.161636  3.513936  1.094530  2.497032  3.971885
   H ( 11)  3.654093  2.155442  2.813695  1.095980  3.096919  3.275335
   H ( 12)  1.393301  1.708102  2.480946  2.479698  2.088209  3.501720
             H (  7)   H (  8)   H (  9)   H ( 10)   H ( 11)
   H (  8)  1.777241
   H (  9)  3.972373  3.280402
   H ( 10)  4.302279  3.783007  1.765584
   H ( 11)  3.783468  2.592525  1.764962  1.777558
   H ( 12)  2.669589  2.689476  3.500589  2.665555  2.690891
 
 Applying Cartesian multipole field
    Component          Value
    ---------          -----
     (2,0,0)        1.00000E-11
     (0,2,0)        2.00000E-11
     (0,0,2)       -3.00000E-11
 Nucleus-field energy     =     0.0000000044 hartrees
 Requested basis set is 6-31G(d,p)
 There are 41 shells and 104 basis functions
 A cutoff of  1.0D-14 yielded    830 shell pairs
 There are      5416 function pairs
 Smallest overlap matrix eigenvalue = 5.64E-03
 Guess from superposition of atomic densities
 Warning:  Energy on first SCF cycle will be non-variational
 SAD guess density has 42.000000 electrons

 -----------------------------------------------------------------------
  General SCF calculation program by
  Eric Jon Sundstrom, Paul Horn, Yuezhi Mao, Dmitri Zuev, Alec White,
  David Stuck, Shaama M.S., Shane Yost, Joonho Lee, David Small,
  Daniel Levine, Susi Lehtola, Hugh Burton, Evgeny Epifanovsky
 -----------------------------------------------------------------------
 Exchange:     0.2000 Hartree-Fock + 0.0800 Slater + 0.7200 B88
 Correlation:  0.1900 VWN1RPA + 0.8100 LYP
 Using SG-1 standard quadrature grid
 using 12 threads for integral computing
 -------------------------------------------------------
 OpenMP Integral computing Module                
 Release: version 1.0, May 2013, Q-Chem Inc. Pittsburgh 
 -------------------------------------------------------
 -------------------------------------------------------
 OpenMP BLAS3 based DFT computing Module                
 Release: version 1.0, May 2013, Q-Chem Inc. Pittsburgh 
 -------------------------------------------------------
 A unrestricted SCF calculation will be
 performed using DIIS
 SCF converges when DIIS error is below 1.0e-06
 Alpha HF Exchange    Energy =  -4.32904945366982
 Beta HF Exchange     Energy =  -4.32904945366982
 DFT Correlation      Energy =  -1.86312729121623
 DFT Exchange         Energy = -33.96126480255008
 One-Electron (alpha) Energy = -497.76383481628852
 One-Electron (beta)  Energy = -497.76383481628852
 Total Coulomb        Energy = 376.05605288586372
 ---------------------------------------
  Cycle       Energy         DIIS error
 ---------------------------------------
    1    -517.5119982662      2.85e-02  
 Alpha HF Exchange    Energy =  -4.45493497700478
 Beta HF Exchange     Energy =  -4.26675498824347
 DFT Correlation      Energy =  -1.88264634417896
 DFT Exchange         Energy = -34.59225325010016
 One-Electron (alpha) Energy = -513.47829392537403
 One-Electron (beta)  Energy = -488.75669315682819
 Total Coulomb        Energy = 383.83853138920603
    2    -517.1509357709      3.72e-03  
 Alpha HF Exchange    Energy =  -4.40075209552823
 Beta HF Exchange     Energy =  -4.21689908382314
 DFT Correlation      Energy =  -1.85542193108603
 DFT Exchange         Energy = -34.14895159258478
 One-Electron (alpha) Energy = -510.23056739910368
 One-Electron (beta)  Energy = -485.47781435706509
 Total Coulomb        Energy = 376.74779619061081
    3    -517.1405007870      4.00e-03  
 Alpha HF Exchange    Energy =  -4.42802765933893
 Beta HF Exchange     Energy =  -4.24027262555990
 DFT Correlation      Energy =  -1.86841300852970
 DFT Exchange         Energy = -34.36081077967960
 One-Electron (alpha) Energy = -511.96023957941708
 One-Electron (beta)  Energy = -487.04349218354849
 Total Coulomb        Energy = 380.22539744440775
    4    -517.2337489100      3.47e-04  
 Alpha HF Exchange    Energy =  -4.42927481156203
 Beta HF Exchange     Energy =  -4.24157283503361
 DFT Correlation      Energy =  -1.86827779090623
 DFT Exchange         Energy = -34.36935103020818
 One-Electron (alpha) Energy = -512.02389467033572
 One-Electron (beta)  Energy = -487.04587298377436
 Total Coulomb        Energy = 380.30174676418545
    5    -517.2343878760      1.91e-04  
 Alpha HF Exchange    Energy =  -4.42938347808138
 Beta HF Exchange     Energy =  -4.24118590294075
 DFT Correlation      Energy =  -1.86815373384389
 DFT Exchange         Energy = -34.36803340510711
 One-Electron (alpha) Energy = -512.02672807877696
 One-Electron (beta)  Energy = -487.02846462987259
 Total Coulomb        Energy = 380.28521928534576
    6    -517.2346204617      4.62e-05  
 Alpha HF Exchange    Energy =  -4.42922391189958
 Beta HF Exchange     Energy =  -4.24110571424514
 DFT Correlation      Energy =  -1.86804433824717
 DFT Exchange         Energy = -34.36684319573321
 One-Electron (alpha) Energy = -512.01663594077615
 One-Electron (beta)  Energy = -487.01280118146110
 Total Coulomb        Energy = 380.25790998306121
    7    -517.2346348177      1.31e-05  
 Alpha HF Exchange    Energy =  -4.42934563676240
 Beta HF Exchange     Energy =  -4.24116929595106
 DFT Correlation      Energy =  -1.86805134784734
 DFT Exchange         Energy = -34.36751456212820
 One-Electron (alpha) Energy = -512.02456104675105
 One-Electron (beta)  Energy = -487.01639169866854
 Total Coulomb        Energy = 380.27028768314028
    8    -517.2346364234      4.22e-06  
 Alpha HF Exchange    Energy =  -4.42932470137340
 Beta HF Exchange     Energy =  -4.24115738845071
 DFT Correlation      Energy =  -1.86803915179157
 DFT Exchange         Energy = -34.36737006255377
 One-Electron (alpha) Energy = -512.02272569273123
 One-Electron (beta)  Energy = -487.01465360318343
 Total Coulomb        Energy = 380.26652453425464
    9    -517.2346365842      1.04e-06  
 Alpha HF Exchange    Energy =  -4.42932679225949
 Beta HF Exchange     Energy =  -4.24116088867645
 DFT Correlation      Energy =  -1.86803946907885
 DFT Exchange         Energy = -34.36739290759261
 One-Electron (alpha) Energy = -512.02281843203684
 One-Electron (beta)  Energy = -487.01493522872033
 Total Coulomb        Energy = 380.26692764074045
   10    -517.2346365960      3.35e-07  Convergence criterion met
 ---------------------------------------
 SCF time:   CPU 23.66s  wall 2.00s 
<S^2> =          2.006727607
 Alpha HF Exchange    Energy =  -4.42932679225949
 Beta HF Exchange     Energy =  -4.24116088867645
 DFT Correlation      Energy =  -1.86803946907885
 DFT Exchange         Energy = -34.36739290759261
 One-Electron (alpha) Energy = -512.02281843203684
 One-Electron (beta)  Energy = -487.01493522872033
 Total Coulomb        Energy = 380.26692764074045
 Nuclear repulsion Energy = 146.44210948161694
 SCF   energy in the final basis set =     -517.2346365960
 Total energy in the final basis set =     -517.2346365960
 
 --------------------------------------------------------------
 
                    Orbital Energies (a.u.)
 --------------------------------------------------------------
 
 Alpha MOs
 -- Occupied --
-88.882 -10.216 -10.193 -10.193  -7.944  -5.915  -5.906  -5.896
 -0.803  -0.712  -0.705  -0.590  -0.468  -0.457  -0.422  -0.400
 -0.384  -0.369  -0.362  -0.299  -0.252  -0.207
 -- Virtual --
  0.089   0.108   0.122   0.131   0.158   0.160   0.168   0.178
  0.227   0.269   0.290   0.348   0.363   0.374   0.485   0.493
  0.536   0.579   0.583   0.674   0.684   0.688   0.731   0.738
  0.759   0.762   0.768   0.829   0.844   0.849   0.871   0.879
  0.896   0.926   0.936   1.063   1.214   1.281   1.336   1.360
  1.457   1.514   1.626   1.761   1.813   1.856   1.856   1.993
  2.026   2.033   2.047   2.059   2.096   2.100   2.183   2.184
  2.230   2.271   2.364   2.380   2.492   2.544   2.591   2.665
  2.699   2.742   2.787   2.843   2.863   2.915   2.927   3.149
  3.193   3.341   3.408   3.443   3.447   3.482   3.948   4.274
  4.472   4.604
 
 Beta MOs
 -- Occupied --
-88.875 -10.204 -10.194 -10.194  -7.937  -5.898  -5.896  -5.892
 -0.787  -0.702  -0.665  -0.571  -0.462  -0.437  -0.417  -0.395
 -0.365  -0.364  -0.357  -0.235
 -- Virtual --
 -0.155  -0.081   0.091   0.122   0.135   0.135   0.166   0.170
  0.172   0.178   0.238   0.276   0.309   0.379   0.383   0.384
  0.486   0.497   0.557   0.589   0.590   0.686   0.697   0.711
  0.737   0.783   0.788   0.817   0.821   0.838   0.850   0.857
  0.875   0.893   0.903   0.939   0.939   1.073   1.215   1.291
  1.339   1.377   1.476   1.514   1.633   1.769   1.834   1.878
  1.881   2.016   2.029   2.038   2.050   2.063   2.098   2.105
  2.180   2.184   2.235   2.273   2.365   2.388   2.509   2.558
  2.603   2.668   2.702   2.746   2.791   2.849   2.867   2.926
  2.931   3.153   3.198   3.347   3.410   3.445   3.450   3.487
  3.970   4.285   4.472   4.620
 --------------------------------------------------------------
 
          Ground-State Mulliken Net Atomic Charges

     Atom                 Charge (a.u.)    Spin (a.u.)
  --------------------------------------------------------
      1 S                    -0.110443       1.215272
      2 C                    -0.132488       0.830287
      3 C                    -0.321809      -0.055010
      4 C                    -0.322660      -0.054928
      5 H                     0.123357      -0.028932
      6 H                     0.121963       0.052864
      7 H                     0.120755       0.007471
      8 H                     0.124697       0.012432
      9 H                     0.122342       0.052865
     10 H                     0.121250       0.007574
     11 H                     0.124248       0.012273
     12 H                     0.028786      -0.052168
  --------------------------------------------------------
  Sum of atomic charges =     0.000000
  Sum of spin   charges =     2.000000

 -----------------------------------------------------------------
                    Cartesian Multipole Moments
 -----------------------------------------------------------------
    Charge (ESU x 10^10)
                 0.0000
    Dipole Moment (Debye)
         X      -2.5485      Y      -0.0096      Z      -1.0113
       Tot       2.7418
    Quadrupole Moments (Debye-Ang)
        XX     -40.2442     XY      -0.1151     YY     -32.4365
        XZ      -1.9717     YZ       0.1395     ZZ     -36.3360
    Octopole Moments (Debye-Ang^2)
       XXX     -75.4002    XXY      -0.5709    XYY     -16.4783
       YYY      -0.2391    XXZ     -16.4019    XYZ       0.2837
       YYZ     -13.0380    XZZ     -23.2604    YZZ       0.1993
       ZZZ     -45.4481
    Hexadecapole Moments (Debye-Ang^3)
      XXXX    -667.0230   XXXY      -2.7696   XXYY    -133.8545
      XYYY      -0.9696   YYYY    -213.0896   XXXZ     -92.1078
      XXYZ       0.4379   XYYZ     -29.0667   YYYZ      -0.1178
      XXZZ    -135.7559   XYZZ       0.3043   YYZZ     -60.8659
      XZZZ    -106.1794   YZZZ       0.2864   ZZZZ    -158.5110
 -----------------------------------------------------------------
 Calculating analytic gradient of the SCF energy
 Gradient of SCF Energy
            1           2           3           4           5           6
    1  -0.0140640   0.0022794   0.0007172   0.0006879   0.0005688  -0.0001063
    2  -0.0000474   0.0000850   0.0002616  -0.0002790  -0.0000061  -0.0000375
    3  -0.0072850   0.0014188   0.0001638   0.0001528   0.0002690   0.0000061
            7           8           9          10          11          12
    1  -0.0000352  -0.0000679  -0.0001038  -0.0000327  -0.0000716   0.0102282
    2  -0.0000344  -0.0000419   0.0000405   0.0000351   0.0000414  -0.0000174
    3  -0.0000087   0.0000396  -0.0000050  -0.0000048   0.0000357   0.0052175
 Max gradient component =       1.406E-02
 RMS gradient           =       3.298E-03
 Gradient time:  CPU 7.96 s  wall 0.67 s
 Geometry Optimization Parameters
   NAtoms,    NIC,     NZ,  NCons,   NDum,   NFix, NCnnct, MaxDiis
       12      75       0       1       0       0       0       0

 Cartesian Hessian Update
 Hessian Updated using BFGS Update


** CONSTRAINED OPTIMIZATION IN DELOCALIZED INTERNAL COORDINATES **
   Searching for a Minimum

   Optimization Cycle:   3

                       Coordinates (Angstroms)
     ATOM                X               Y               Z
      1  S         2.4651572153    0.0073640240    1.0024762498
      2  C        -0.3174334809   -0.0012886741   -0.3639486707
      3  C        -0.8723034739   -1.2961903015    0.1455232126
      4  C        -0.8671791457    1.2956391979    0.1458672205
      5  H         0.0681350349   -0.0016106460   -1.3839819962
      6  H        -1.8894418318   -1.4686563038   -0.2438603866
      7  H        -0.2638211101   -2.1527755861   -0.1609384515
      8  H        -0.9472694919   -1.2972404316    1.2388987758
      9  H        -1.8819884843    1.4740563600   -0.2467844668
     10  H        -0.2531622818    2.1494883658   -0.1573161082
     11  H        -0.9462525525    1.2952841808    1.2389908686
     12  H         1.2354586028   -0.0032701854    0.3474827528
   Point Group: c1    Number of degrees of freedom:    30


   Energy is   -517.234636596

              Constraints and their Current Values
                                        Value     Constraint
   Distance(Angs):        1   2             3.100000     3.100000
 Hessian Updated using BFGS Update

 26 Hessian modes will be used to form the next step
  Hessian Eigenvalues:
     0.044993    0.045000    0.052796    0.072612    0.080065    0.081577
     0.081637    0.083051    0.083061    0.114863    0.148138    0.159995
     0.160000    0.160624    0.199920    0.200030    0.218092    0.326062
     0.326145    0.333788    0.333821    0.341392    0.341458    0.343068
     0.343150    0.347655

 Minimum Search - Taking Simple RFO Step
 Searching for Lamda that Minimizes Along All modes
 Value Taken    Lamda =  -0.00100200
 Step Taken.  Stepsize is  0.124274

                             Maximum     Tolerance    Cnvgd?
         Gradient           0.005490      0.000300      NO
         Displacement       0.088364      0.001200      NO
         Energy change     -0.000591      0.000001      NO


 New Cartesian Coordinates Obtained by Inverse Iteration

 Displacement from previous Coordinates is:  0.075242
 ----------------------------------------------------------------
             Standard Nuclear Orientation (Angstroms)
    I     Atom           X                Y                Z
 ----------------------------------------------------------------
    1      S       2.4722781514     0.0077999955     1.0087952438
    2      C      -0.3090902807    -0.0014464535    -0.3601120078
    3      C      -0.8700376882    -1.2959132430     0.1466160187
    4      C      -0.8646156859     1.2951910273     0.1470732806
    5      H       0.0702372487    -0.0017173391    -1.3826580954
    6      H      -1.8868279791    -1.4630107001    -0.2447945839
    7      H      -0.2636633563    -2.1535969979    -0.1604697583
    8      H      -0.9454149182    -1.2974820602     1.2397393240
    9      H      -1.8792494630     1.4682892920    -0.2472054904
   10      H      -0.2527415161     2.1500639300    -0.1570427966
   11      H      -0.9437119620     1.2954330290     1.2399759314
   12      H       1.2027364493    -0.0028104800     0.3324919340
 ----------------------------------------------------------------
 Nuclear Repulsion Energy =   146.2807191372 hartrees
 There are       22 alpha and       20 beta electrons

                       Distance Matrix (Angstroms)
             S (  1)   C (  2)   C (  3)   C (  4)   H (  5)   H (  6)
   C (  2)  3.100000
   C (  3)  3.689728  1.499026
   C (  4)  3.678967  1.499038  2.591110
   H (  5)  3.389534  1.090637  2.213084  2.212691
   H (  6)  4.768289  2.153770  1.102264  2.967517  2.694479
   H (  7)  3.677525  2.161868  1.094355  3.514238  2.497162  1.765979
   H (  8)  3.665750  2.155027  1.095720  2.814676  3.096373  1.765644
   H (  9)  4.758819  2.153665  2.968909  1.102225  2.692707  2.931311
   H ( 10)  3.657076  2.161807  3.513975  1.094388  2.497321  3.966390
   H ( 11)  3.657927  2.155208  2.813528  1.095761  3.096595  3.271548
   H ( 12)  1.438484  1.662926  2.450114  2.448088  2.055309  3.465668
             H (  7)   H (  8)   H (  9)   H ( 10)   H ( 11)
   H (  8)  1.777162
   H (  9)  3.966825  3.276056
   H ( 10)  4.303676  3.783698  1.765920
   H ( 11)  3.784114  2.592916  1.765451  1.777497
   H ( 12)  2.649381  2.667176  3.463931  2.644415  2.667621
 
 Applying Cartesian multipole field
    Component          Value
    ---------          -----
     (2,0,0)        1.00000E-11
     (0,2,0)        2.00000E-11
     (0,0,2)       -3.00000E-11
 Nucleus-field energy     =     0.0000000044 hartrees
 Requested basis set is 6-31G(d,p)
 There are 41 shells and 104 basis functions
 A cutoff of  1.0D-14 yielded    830 shell pairs
 There are      5416 function pairs
 Smallest overlap matrix eigenvalue = 5.59E-03
 Guess from superposition of atomic densities
 Warning:  Energy on first SCF cycle will be non-variational
 SAD guess density has 42.000000 electrons

 -----------------------------------------------------------------------
  General SCF calculation program by
  Eric Jon Sundstrom, Paul Horn, Yuezhi Mao, Dmitri Zuev, Alec White,
  David Stuck, Shaama M.S., Shane Yost, Joonho Lee, David Small,
  Daniel Levine, Susi Lehtola, Hugh Burton, Evgeny Epifanovsky
 -----------------------------------------------------------------------
 Exchange:     0.2000 Hartree-Fock + 0.0800 Slater + 0.7200 B88
 Correlation:  0.1900 VWN1RPA + 0.8100 LYP
 Using SG-1 standard quadrature grid
 using 12 threads for integral computing
 -------------------------------------------------------
 OpenMP Integral computing Module                
 Release: version 1.0, May 2013, Q-Chem Inc. Pittsburgh 
 -------------------------------------------------------
 -------------------------------------------------------
 OpenMP BLAS3 based DFT computing Module                
 Release: version 1.0, May 2013, Q-Chem Inc. Pittsburgh 
 -------------------------------------------------------
 A unrestricted SCF calculation will be
 performed using DIIS
 SCF converges when DIIS error is below 1.0e-06
 Alpha HF Exchange    Energy =  -4.32806575118305
 Beta HF Exchange     Energy =  -4.32806575118305
 DFT Correlation      Energy =  -1.86298735787450
 DFT Exchange         Energy = -33.95846545962010
 One-Electron (alpha) Energy = -497.61574192162516
 One-Electron (beta)  Energy = -497.61574192162516
 Total Coulomb        Energy = 375.92784282549684
 ---------------------------------------
  Cycle       Energy         DIIS error
 ---------------------------------------
    1    -517.5005061960      2.84e-02  
 Alpha HF Exchange    Energy =  -4.45372605513882
 Beta HF Exchange     Energy =  -4.26509025448830
 DFT Correlation      Energy =  -1.88244658285243
 DFT Exchange         Energy = -34.58349775288344
 One-Electron (alpha) Energy = -513.31980862387354
 One-Electron (beta)  Energy = -488.56953300187217
 Total Coulomb        Energy = 383.64142213795685
    2    -517.1519609915      3.72e-03  
 Alpha HF Exchange    Energy =  -4.40010061425345
 Beta HF Exchange     Energy =  -4.21543323964688
 DFT Correlation      Energy =  -1.85539300130676
 DFT Exchange         Energy = -34.14297178377625
 One-Electron (alpha) Energy = -510.10977728726755
 One-Electron (beta)  Energy = -485.32075942576483
 Total Coulomb        Energy = 376.62296279893133
    3    -517.1407534114      4.00e-03  
 Alpha HF Exchange    Energy =  -4.42701423303254
 Beta HF Exchange     Energy =  -4.23857458632625
 DFT Correlation      Energy =  -1.86832751714733
 DFT Exchange         Energy = -34.35283512831621
 One-Electron (alpha) Energy = -511.81732291090611
 One-Electron (beta)  Energy = -486.86282920842933
 Total Coulomb        Energy = 380.05192587133917
    4    -517.2342585712      3.77e-04  
 Alpha HF Exchange    Energy =  -4.42835815209030
 Beta HF Exchange     Energy =  -4.23991658925960
 DFT Correlation      Energy =  -1.86821510506893
 DFT Exchange         Energy = -34.36179469643960
 One-Electron (alpha) Energy = -511.88733858313475
 One-Electron (beta)  Energy = -486.87033201636621
 Total Coulomb        Energy = 380.14021109505819
    5    -517.2350249056      2.02e-04  
 Alpha HF Exchange    Energy =  -4.42847504311872
 Beta HF Exchange     Energy =  -4.23952818871222
 DFT Correlation      Energy =  -1.86808838437766
 DFT Exchange         Energy = -34.36051143445550
 One-Electron (alpha) Energy = -511.89046447796090
 One-Electron (beta)  Energy = -486.85109205173450
 Total Coulomb        Energy = 380.12215223914586
    6    -517.2352881996      4.75e-05  
 Alpha HF Exchange    Energy =  -4.42831253857820
 Beta HF Exchange     Energy =  -4.23943865422890
 DFT Correlation      Energy =  -1.86797300297648
 DFT Exchange         Energy = -34.35924413897079
 One-Electron (alpha) Energy = -511.87998779169237
 One-Electron (beta)  Energy = -486.83426351989419
 Total Coulomb        Energy = 380.09319659103232
    7    -517.2353039136      1.39e-05  
 Alpha HF Exchange    Energy =  -4.42844615350452
 Beta HF Exchange     Energy =  -4.23950687369808
 DFT Correlation      Energy =  -1.86798104901157
 DFT Exchange         Energy = -34.35997034927239
 One-Electron (alpha) Energy = -511.88869131515128
 One-Electron (beta)  Energy = -486.83809085857376
 Total Coulomb        Energy = 380.10666167644121
    8    -517.2353057811      4.56e-06  
 Alpha HF Exchange    Energy =  -4.42842405399401
 Beta HF Exchange     Energy =  -4.23949415850926
 DFT Correlation      Energy =  -1.86796773018546
 DFT Exchange         Energy = -34.35981432339488
 One-Electron (alpha) Energy = -511.88673037186169
 One-Electron (beta)  Energy = -486.83614999209510
 Total Coulomb        Energy = 380.10255552018918
    9    -517.2353059682      1.10e-06  
 Alpha HF Exchange    Energy =  -4.42842644291803
 Beta HF Exchange     Energy =  -4.23949764461366
 DFT Correlation      Energy =  -1.86796804144080
 DFT Exchange         Energy = -34.35983788274396
 One-Electron (alpha) Energy = -511.88683910770442
 One-Electron (beta)  Energy = -486.83642431222347
 Total Coulomb        Energy = 380.10296830922994
   10    -517.2353059808      3.37e-07  Convergence criterion met
 ---------------------------------------
 SCF time:   CPU 23.70s  wall 2.00s 
<S^2> =          2.007308752
 Alpha HF Exchange    Energy =  -4.42842644291803
 Beta HF Exchange     Energy =  -4.23949764461366
 DFT Correlation      Energy =  -1.86796804144080
 DFT Exchange         Energy = -34.35983788274396
 One-Electron (alpha) Energy = -511.88683910770442
 One-Electron (beta)  Energy = -486.83642431222347
 Total Coulomb        Energy = 380.10296830922994
 Nuclear repulsion Energy = 146.28071914166026
 SCF   energy in the final basis set =     -517.2353059808
 Total energy in the final basis set =     -517.2353059808
 
 --------------------------------------------------------------
 
                    Orbital Energies (a.u.)
 --------------------------------------------------------------
 
 Alpha MOs
 -- Occupied --
-88.881 -10.220 -10.194 -10.194  -7.943  -5.914  -5.905  -5.895
 -0.804  -0.707  -0.706  -0.591  -0.470  -0.459  -0.423  -0.401
 -0.381  -0.370  -0.363  -0.297  -0.250  -0.209
 -- Virtual --
  0.088   0.106   0.121   0.131   0.157   0.159   0.168   0.177
  0.225   0.266   0.293   0.349   0.362   0.374   0.484   0.492
  0.534   0.579   0.581   0.672   0.683   0.685   0.732   0.739
  0.761   0.764   0.771   0.831   0.844   0.848   0.871   0.881
  0.894   0.924   0.935   1.045   1.214   1.280   1.335   1.359
  1.462   1.513   1.623   1.755   1.813   1.851   1.855   1.989
  2.025   2.032   2.044   2.057   2.095   2.097   2.179   2.186
  2.227   2.271   2.366   2.379   2.493   2.543   2.586   2.665
  2.694   2.739   2.770   2.843   2.859   2.917   2.925   3.151
  3.194   3.340   3.407   3.444   3.447   3.481   3.945   4.274
  4.471   4.603
 
 Beta MOs
 -- Occupied --
-88.874 -10.208 -10.195 -10.195  -7.936  -5.897  -5.895  -5.891
 -0.788  -0.703  -0.658  -0.573  -0.463  -0.439  -0.418  -0.396
 -0.366  -0.362  -0.355  -0.233
 -- Virtual --
 -0.153  -0.087   0.091   0.121   0.134   0.135   0.166   0.169
  0.171   0.178   0.235   0.273   0.313   0.379   0.383   0.385
  0.485   0.496   0.555   0.587   0.588   0.684   0.695   0.708
  0.736   0.788   0.794   0.819   0.823   0.838   0.850   0.857
  0.875   0.895   0.901   0.938   0.939   1.054   1.214   1.290
  1.338   1.375   1.481   1.513   1.629   1.763   1.834   1.872
  1.878   2.011   2.027   2.037   2.047   2.061   2.097   2.101
  2.176   2.185   2.229   2.273   2.367   2.387   2.508   2.557
  2.599   2.668   2.698   2.744   2.775   2.849   2.862   2.928
  2.929   3.154   3.198   3.345   3.409   3.447   3.450   3.487
  3.968   4.286   4.471   4.619
 --------------------------------------------------------------
 
          Ground-State Mulliken Net Atomic Charges

     Atom                 Charge (a.u.)    Spin (a.u.)
  --------------------------------------------------------
      1 S                    -0.116184       1.258152
      2 C                    -0.131066       0.793977
      3 C                    -0.320699      -0.051258
      4 C                    -0.321534      -0.051168
      5 H                     0.126053      -0.026699
      6 H                     0.122357       0.050458
      7 H                     0.121857       0.007039
      8 H                     0.125819       0.011742
      9 H                     0.122711       0.050440
     10 H                     0.122340       0.007122
     11 H                     0.125385       0.011605
     12 H                     0.022962      -0.061411
  --------------------------------------------------------
  Sum of atomic charges =    -0.000000
  Sum of spin   charges =     2.000000

 -----------------------------------------------------------------
                    Cartesian Multipole Moments
 -----------------------------------------------------------------
    Charge (ESU x 10^10)
                 0.0000
    Dipole Moment (Debye)
         X      -2.6593      Y      -0.0099      Z      -1.0552
       Tot       2.8610
    Quadrupole Moments (Debye-Ang)
        XX     -40.4242     XY      -0.1137     YY     -32.4192
        XZ      -2.0303     YZ       0.1371     ZZ     -36.3722
    Octopole Moments (Debye-Ang^2)
       XXX     -76.5870    XXY      -0.5743    XYY     -16.7460
       YYY      -0.2514    XXZ     -16.6915    XYZ       0.2785
       YYZ     -13.1546    XZZ     -23.6103    YZZ       0.1915
       ZZZ     -45.9443
    Hexadecapole Moments (Debye-Ang^3)
      XXXX    -671.0063   XXXY      -2.8261   XXYY    -134.2226
      XYYY      -1.0226   YYYY    -212.5353   XXXZ     -93.3945
      XXYZ       0.4205   XYYZ     -29.3693   YYYZ      -0.1429
      XXZZ    -136.5946   XYZZ       0.2789   YYZZ     -60.9518
      XZZZ    -107.3278   YZZZ       0.2563   ZZZZ    -159.6877
 -----------------------------------------------------------------
 Calculating analytic gradient of the SCF energy
 Gradient of SCF Energy
            1           2           3           4           5           6
    1  -0.0046960  -0.0015741   0.0007496   0.0007512   0.0009313  -0.0000520
    2   0.0000321   0.0000601   0.0003257  -0.0003348  -0.0000019  -0.0000997
    3  -0.0023758  -0.0004872   0.0002496   0.0002469   0.0004307   0.0000650
            7           8           9          10          11          12
    1  -0.0000141  -0.0000140  -0.0000500  -0.0000120  -0.0000243   0.0040043
    2  -0.0000380  -0.0000128   0.0001017   0.0000376   0.0000122  -0.0000820
    3  -0.0000143   0.0000406   0.0000571  -0.0000128   0.0000388   0.0017614
 Max gradient component =       4.696E-03
 RMS gradient           =       1.203E-03
 Gradient time:  CPU 8.01 s  wall 0.67 s
 Geometry Optimization Parameters
   NAtoms,    NIC,     NZ,  NCons,   NDum,   NFix, NCnnct, MaxDiis
       12      75       0       1       0       0       0       0

 Cartesian Hessian Update
 Hessian Updated using BFGS Update


** CONSTRAINED OPTIMIZATION IN DELOCALIZED INTERNAL COORDINATES **
   Searching for a Minimum

   Optimization Cycle:   4

                       Coordinates (Angstroms)
     ATOM                X               Y               Z
      1  S         2.4722781514    0.0077999955    1.0087952438
      2  C        -0.3090902807   -0.0014464535   -0.3601120078
      3  C        -0.8700376882   -1.2959132430    0.1466160187
      4  C        -0.8646156859    1.2951910273    0.1470732806
      5  H         0.0702372487   -0.0017173391   -1.3826580954
      6  H        -1.8868279791   -1.4630107001   -0.2447945839
      7  H        -0.2636633563   -2.1535969979   -0.1604697583
      8  H        -0.9454149182   -1.2974820602    1.2397393240
      9  H        -1.8792494630    1.4682892920   -0.2472054904
     10  H        -0.2527415161    2.1500639300   -0.1570427966
     11  H        -0.9437119620    1.2954330290    1.2399759314
     12  H         1.2027364493   -0.0028104800    0.3324919340
   Point Group: c1    Number of degrees of freedom:    30


   Energy is   -517.235305981

              Constraints and their Current Values
                                        Value     Constraint
   Distance(Angs):        1   2             3.100000     3.100000
 Hessian Updated using BFGS Update

 27 Hessian modes will be used to form the next step
  Hessian Eigenvalues:
     0.033368    0.045000    0.045009    0.069137    0.080089    0.081576
     0.081591    0.083050    0.083061    0.114863    0.148138    0.159999
     0.160000    0.160021    0.160784    0.199956    0.200133    0.218124
     0.326070    0.326146    0.333787    0.333819    0.341392    0.341459
     0.343068    0.343153    0.347657

 Minimum Search - Taking Simple RFO Step
 Searching for Lamda that Minimizes Along All modes
 Value Taken    Lamda =  -0.00030987
 Step Taken.  Stepsize is  0.094804

                             Maximum     Tolerance    Cnvgd?
         Gradient           0.002532      0.000300      NO
         Displacement       0.071966      0.001200      NO
         Energy change     -0.000669      0.000001      NO


 New Cartesian Coordinates Obtained by Inverse Iteration

 Displacement from previous Coordinates is:  0.056241
 ----------------------------------------------------------------
             Standard Nuclear Orientation (Angstroms)
    I     Atom           X                Y                Z
 ----------------------------------------------------------------
    1      S       2.4827239154     0.0074101484     1.0124059695
    2      C      -0.2995516242    -0.0014514401    -0.3546592122
    3      C      -0.8688742634    -1.2953709905     0.1476799942
    4      C      -0.8635145849     1.2946812028     0.1481371015
    5      H       0.0700380280    -0.0016930415    -1.3810470748
    6      H      -1.8854414156    -1.4538499942    -0.2470221679
    7      H      -0.2663548606    -2.1550386812    -0.1609117636
    8      H      -0.9457806113    -1.2991984816     1.2404961566
    9      H      -1.8781230282     1.4589492781    -0.2491242762
   10      H      -0.2557117490     2.1516172948    -0.1577759107
   11      H      -0.9437715110     1.2972812733     1.2407562997
   12      H       1.1842607049    -0.0025365683     0.3234738840
 ----------------------------------------------------------------
 Nuclear Repulsion Energy =   146.1048271598 hartrees
 There are       22 alpha and       20 beta electrons

                       Distance Matrix (Angstroms)
             S (  1)   C (  2)   C (  3)   C (  4)   H (  5)   H (  6)
   C (  2)  3.100000
   C (  3)  3.698405  1.500234
   C (  4)  3.687999  1.500273  2.590058
   H (  5)  3.398493  1.090903  2.211824  2.211450
   H (  6)  4.775176  2.153159  1.101959  2.958870  2.686759
   H (  7)  3.689213  2.162540  1.094206  3.514638  2.497757  1.766500
   H (  8)  3.676125  2.155523  1.095526  2.815711  3.096433  1.766236
   H (  9)  4.766069  2.153090  2.960121  1.101921  2.685155  2.912809
   H ( 10)  3.669602  2.162496  3.514399  1.094233  2.497849  3.957699
   H ( 11)  3.668349  2.155708  2.814653  1.095566  3.096611  3.266336
   H ( 12)  1.469943  1.631430  2.432630  2.430412  2.036390  3.443087
             H (  7)   H (  8)   H (  9)   H ( 10)   H ( 11)
   H (  8)  1.777084
   H (  9)  3.958091  3.270414
   H ( 10)  4.306670  3.786752  1.766452
   H ( 11)  3.787094  2.596481  1.766039  1.777416
   H ( 12)  2.640489  2.656941  3.441221  2.635432  2.656963
 
 Applying Cartesian multipole field
    Component          Value
    ---------          -----
     (2,0,0)        1.00000E-11
     (0,2,0)        2.00000E-11
     (0,0,2)       -3.00000E-11
 Nucleus-field energy     =     0.0000000044 hartrees
 Requested basis set is 6-31G(d,p)
 There are 41 shells and 104 basis functions
 A cutoff of  1.0D-14 yielded    830 shell pairs
 There are      5416 function pairs
 Smallest overlap matrix eigenvalue = 5.58E-03
 Guess from superposition of atomic densities
 Warning:  Energy on first SCF cycle will be non-variational
 SAD guess density has 42.000000 electrons

 -----------------------------------------------------------------------
  General SCF calculation program by
  Eric Jon Sundstrom, Paul Horn, Yuezhi Mao, Dmitri Zuev, Alec White,
  David Stuck, Shaama M.S., Shane Yost, Joonho Lee, David Small,
  Daniel Levine, Susi Lehtola, Hugh Burton, Evgeny Epifanovsky
 -----------------------------------------------------------------------
 Exchange:     0.2000 Hartree-Fock + 0.0800 Slater + 0.7200 B88
 Correlation:  0.1900 VWN1RPA + 0.8100 LYP
 Using SG-1 standard quadrature grid
 using 12 threads for integral computing
 -------------------------------------------------------
 OpenMP Integral computing Module                
 Release: version 1.0, May 2013, Q-Chem Inc. Pittsburgh 
 -------------------------------------------------------
 -------------------------------------------------------
 OpenMP BLAS3 based DFT computing Module                
 Release: version 1.0, May 2013, Q-Chem Inc. Pittsburgh 
 -------------------------------------------------------
 A unrestricted SCF calculation will be
 performed using DIIS
 SCF converges when DIIS error is below 1.0e-06
 Alpha HF Exchange    Energy =  -4.32737933822204
 Beta HF Exchange     Energy =  -4.32737933822204
 DFT Correlation      Energy =  -1.86286307022272
 DFT Exchange         Energy = -33.95660458091601
 One-Electron (alpha) Energy = -497.44777920133322
 One-Electron (beta)  Energy = -497.44777920133322
 Total Coulomb        Energy = 375.77251904247140
 ---------------------------------------
  Cycle       Energy         DIIS error
 ---------------------------------------
    1    -517.4924385235      2.83e-02  
 Alpha HF Exchange    Energy =  -4.45301110639244
 Beta HF Exchange     Energy =  -4.26396095033365
 DFT Correlation      Energy =  -1.88227936775564
 DFT Exchange         Energy = -34.57796589810442
 One-Electron (alpha) Energy = -513.14550773592146
 One-Electron (beta)  Energy = -488.37486193807177
 Total Coulomb        Energy = 383.44039038445840
    2    -517.1523694479      3.72e-03  
 Alpha HF Exchange    Energy =  -4.39979866382378
 Beta HF Exchange     Energy =  -4.21439111474232
 DFT Correlation      Energy =  -1.85533386557121
 DFT Exchange         Energy = -34.13921739281820
 One-Electron (alpha) Energy = -509.96213176644585
 One-Electron (beta)  Energy = -485.14579013905723
 Total Coulomb        Energy = 376.47133814828908
    3    -517.1404976299      4.01e-03  
 Alpha HF Exchange    Energy =  -4.42643162430693
 Beta HF Exchange     Energy =  -4.23739245413632
 DFT Correlation      Energy =  -1.86823397814682
 DFT Exchange         Energy = -34.34772936379076
 One-Electron (alpha) Energy = -511.65440830930760
 One-Electron (beta)  Energy = -486.67119097659810
 Total Coulomb        Energy = 379.86618967260910
    4    -517.2343698694      3.98e-04  
 Alpha HF Exchange    Energy =  -4.42785838413410
 Beta HF Exchange     Energy =  -4.23874852985719
 DFT Correlation      Energy =  -1.86814062117513
 DFT Exchange         Energy = -34.35698273268508
 One-Electron (alpha) Energy = -511.72926524967534
 One-Electron (beta)  Energy = -486.68236144687125
 Total Coulomb        Energy = 379.96329064782185
    5    -517.2352391523      2.09e-04  
 Alpha HF Exchange    Energy =  -4.42797970216270
 Beta HF Exchange     Energy =  -4.23836291825672
 DFT Correlation      Energy =  -1.86801266665873
 DFT Exchange         Energy = -34.35573856367039
 One-Electron (alpha) Energy = -511.73285631774843
 One-Electron (beta)  Energy = -486.66184869559635
 Total Coulomb        Energy = 379.94444819518549
    6    -517.2355235047      4.85e-05  
 Alpha HF Exchange    Energy =  -4.42781523976125
 Beta HF Exchange     Energy =  -4.23826581960137
 DFT Correlation      Energy =  -1.86789300572411
 DFT Exchange         Energy = -34.35441304059561
 One-Electron (alpha) Energy = -511.72211738355315
 One-Electron (beta)  Energy = -486.64410544317286
 Total Coulomb        Energy = 379.91424245276937
    7    -517.2355403154      1.46e-05  
 Alpha HF Exchange    Energy =  -4.42795803777109
 Beta HF Exchange     Energy =  -4.23833721698789
 DFT Correlation      Energy =  -1.86790182726323
 DFT Exchange         Energy = -34.35518017210494
 One-Electron (alpha) Energy = -511.73143317343778
 One-Electron (beta)  Energy = -486.64808015164840
 Total Coulomb        Energy = 379.92852100841316
    8    -517.2355424066      4.82e-06  
 Alpha HF Exchange    Energy =  -4.42793513473142
 Beta HF Exchange     Energy =  -4.23832400920336
 DFT Correlation      Energy =  -1.86788764156205
 DFT Exchange         Energy = -34.35501586824913
 One-Electron (alpha) Energy = -511.72938130050841
 One-Electron (beta)  Energy = -486.64598458121958
 Total Coulomb        Energy = 379.92415875628603
    9    -517.2355426150      1.14e-06  
 Alpha HF Exchange    Energy =  -4.42793776382223
[...]
     0.159895    0.160000    0.160000    0.160001    0.160890    0.200040
     0.205751    0.221400    0.321121    0.326142    0.333650    0.333799
     0.340769    0.341395    0.343070    0.343138    0.347569

 Minimum Search - Taking Simple RFO Step
 Searching for Lamda that Minimizes Along All modes
 Value Taken    Lamda =   0.00000000
 Step Taken.  Stepsize is  0.004292

                             Maximum     Tolerance    Cnvgd?
         Gradient           0.000160      0.000300     YES
         Displacement       0.002595      0.001200      NO
         Energy change     -0.000003      0.000001      NO


 New Cartesian Coordinates Obtained by Inverse Iteration

 Displacement from previous Coordinates is:  0.005045
 ----------------------------------------------------------------
             Standard Nuclear Orientation (Angstroms)
    I     Atom           X                Y                Z
 ----------------------------------------------------------------
    1      S       2.6781693188    -0.0080637273     1.0331071174
    2      C      -0.1374636099     0.0005767681    -0.2638660787
    3      C      -0.8492203019    -1.2807573135     0.1630526758
    4      C      -0.8487316718     1.2825008015     0.1621451538
    5      H       0.0363392964     0.0001201138    -1.3475246548
    6      H      -1.8435165212    -1.3426090427    -0.2958611802
    7      H      -0.2876290651    -2.1714306499    -0.1341395080
    8      H      -0.9857489169    -1.3147441174     1.2494789466
    9      H      -1.8430585580     1.3443730644    -0.2967120975
   10      H      -0.2868737830     2.1727708409    -0.1357762696
   11      H      -0.9851018951     1.3173582029     1.2485601017
   12      H       0.8827347077     0.0007050592     0.1799447935
 ----------------------------------------------------------------
 Nuclear Repulsion Energy =   143.9081693524 hartrees
 There are       22 alpha and       20 beta electrons

                       Distance Matrix (Angstroms)
             S (  1)   C (  2)   C (  3)   C (  4)   H (  5)   H (  6)
   C (  2)  3.100000
   C (  3)  3.849574  1.526655
   C (  4)  3.855277  1.526669  2.563258
   H (  5)  3.556226  1.097508  2.169495  2.169552
   H (  6)  4.898246  2.171587  1.096838  2.844392  2.538262
   H (  7)  3.852088  2.181054  1.094078  3.511732  2.508564  1.770278
   H (  8)  3.895963  2.177124  1.095499  2.818998  3.085119  1.767659
   H (  9)  4.902959  2.171617  2.844364  1.096843  2.538377  2.686982
   H ( 10)  3.861840  2.181091  3.511750  1.094085  2.508628  3.847942
   H ( 11)  3.901630  2.177117  2.819041  1.095495  3.085144  3.193359
   H ( 12)  1.987850  1.112552  2.154553  2.154366  1.746296  3.076253
             H (  7)   H (  8)   H (  9)   H ( 10)   H ( 11)
   H (  8)  1.770786
   H (  9)  3.847943  3.193210
   H ( 10)  4.344202  3.817083  1.770270
   H ( 11)  3.817064  2.632103  1.767678  1.770774
   H ( 12)  2.487282  2.523002  3.076133  2.487073  2.522762
 
 Applying Cartesian multipole field
    Component          Value
    ---------          -----
     (2,0,0)        1.00000E-11
     (0,2,0)        2.00000E-11
     (0,0,2)       -3.00000E-11
 Nucleus-field energy     =     0.0000000049 hartrees
 Requested basis set is 6-31G(d,p)
 There are 41 shells and 104 basis functions
 A cutoff of  1.0D-14 yielded    826 shell pairs
 There are      5412 function pairs
 Smallest overlap matrix eigenvalue = 5.13E-03
 Guess from superposition of atomic densities
 Warning:  Energy on first SCF cycle will be non-variational
 SAD guess density has 42.000000 electrons

 -----------------------------------------------------------------------
  General SCF calculation program by
  Eric Jon Sundstrom, Paul Horn, Yuezhi Mao, Dmitri Zuev, Alec White,
  David Stuck, Shaama M.S., Shane Yost, Joonho Lee, David Small,
  Daniel Levine, Susi Lehtola, Hugh Burton, Evgeny Epifanovsky
 -----------------------------------------------------------------------
 Exchange:     0.2000 Hartree-Fock + 0.0800 Slater + 0.7200 B88
 Correlation:  0.1900 VWN1RPA + 0.8100 LYP
 Using SG-1 standard quadrature grid
 using 12 threads for integral computing
 -------------------------------------------------------
 OpenMP Integral computing Module                
 Release: version 1.0, May 2013, Q-Chem Inc. Pittsburgh 
 -------------------------------------------------------
 -------------------------------------------------------
 OpenMP BLAS3 based DFT computing Module                
 Release: version 1.0, May 2013, Q-Chem Inc. Pittsburgh 
 -------------------------------------------------------
 A unrestricted SCF calculation will be
 performed using DIIS
 SCF converges when DIIS error is below 1.0e-06
 Alpha HF Exchange    Energy =  -4.33032367259905
 Beta HF Exchange     Energy =  -4.33032367259905
 DFT Correlation      Energy =  -1.86240109921843
 DFT Exchange         Energy = -33.95921401314310
 One-Electron (alpha) Energy = -495.22767337271034
 One-Electron (beta)  Energy = -495.22767337271034
 Total Coulomb        Energy = 373.54911766037998
 ---------------------------------------
  Cycle       Energy         DIIS error
 ---------------------------------------
    1    -517.4803221853      2.84e-02  
 Alpha HF Exchange    Energy =  -4.45771915172406
 Beta HF Exchange     Energy =  -4.27108715468766
 DFT Correlation      Energy =  -1.87914294206561
 DFT Exchange         Energy = -34.60960931589844
 One-Electron (alpha) Energy = -510.96199169726231
 One-Electron (beta)  Energy = -485.99281031172717
 Total Coulomb        Energy = 381.10653801392760
    2    -517.1576532022      4.06e-03  
 Alpha HF Exchange    Energy =  -4.40814448234696
 Beta HF Exchange     Energy =  -4.20799004603967
 DFT Correlation      Energy =  -1.85310186788650
 DFT Exchange         Energy = -34.14532616913083
 One-Electron (alpha) Energy = -507.89755676182597
 One-Electron (beta)  Energy = -482.62781526791457
 Total Coulomb        Energy = 374.11763517098814
    3    -517.1141300669      4.82e-03  
 Alpha HF Exchange    Energy =  -4.43270842695179
 Beta HF Exchange     Energy =  -4.24021537141732
 DFT Correlation      Energy =  -1.86550173687569
 DFT Exchange         Energy = -34.37212585991415
 One-Electron (alpha) Energy = -509.58228732642658
 One-Electron (beta)  Energy = -484.27015412501692
 Total Coulomb        Energy = 377.59985453401464
    4    -517.2549689553      4.98e-04  
 Alpha HF Exchange    Energy =  -4.43516029241639
 Beta HF Exchange     Energy =  -4.24034876204259
 DFT Correlation      Energy =  -1.86591396880787
 DFT Exchange         Energy = -34.38282620680052
 One-Electron (alpha) Energy = -509.69039659225405
 One-Electron (beta)  Energy = -484.27482592183242
 Total Coulomb        Energy = 377.72495837341950
    5    -517.2563440135      1.93e-04  
 Alpha HF Exchange    Energy =  -4.43513544274128
 Beta HF Exchange     Energy =  -4.24026693171300
 DFT Correlation      Energy =  -1.86570713083644
 DFT Exchange         Energy = -34.38177004801259
 One-Electron (alpha) Energy = -509.69722112136918
 One-Electron (beta)  Energy = -484.25510688937516
 Total Coulomb        Energy = 377.71048803947872
    6    -517.2565501673      4.96e-05  
 Alpha HF Exchange    Energy =  -4.43495393070500
 Beta HF Exchange     Energy =  -4.24012333437910
 DFT Correlation      Energy =  -1.86561375839421
 DFT Exchange         Energy = -34.38025306643353
 One-Electron (alpha) Energy = -509.68644962567203
 One-Electron (beta)  Energy = -484.23841709190390
 Total Coulomb        Energy = 377.68107655499534
    7    -517.2565648952      8.41e-06  
 Alpha HF Exchange    Energy =  -4.43505767097366
 Beta HF Exchange     Energy =  -4.24016256869416
 DFT Correlation      Energy =  -1.86562856089433
 DFT Exchange         Energy = -34.38078518767524
 One-Electron (alpha) Energy = -509.69392160367971
 One-Electron (beta)  Energy = -484.24016727777462
 Total Coulomb        Energy = 377.69098798204868
    8    -517.2565655304      2.34e-06  
 Alpha HF Exchange    Energy =  -4.43504415721583
 Beta HF Exchange     Energy =  -4.24015621351923
 DFT Correlation      Energy =  -1.86562050950768
 DFT Exchange         Energy = -34.38068744508605
 One-Electron (alpha) Energy = -509.69290748183590
 One-Electron (beta)  Energy = -484.23869090536141
 Total Coulomb        Energy = 377.68837177885359
    9    -517.2565655764      5.86e-07  Convergence criterion met
 ---------------------------------------
 SCF time:   CPU 21.15s  wall 1.00s 
<S^2> =          2.003419668
 Alpha HF Exchange    Energy =  -4.43504415721583
 Beta HF Exchange     Energy =  -4.24015621351923
 DFT Correlation      Energy =  -1.86562050950768
 DFT Exchange         Energy = -34.38068744508605
 One-Electron (alpha) Energy = -509.69290748183590
 One-Electron (beta)  Energy = -484.23869090536141
 Total Coulomb        Energy = 377.68837177885359
 Nuclear repulsion Energy = 143.90816935728003
 SCF   energy in the final basis set =     -517.2565655764
 Total energy in the final basis set =     -517.2565655764
 
 --------------------------------------------------------------
 
                    Orbital Energies (a.u.)
 --------------------------------------------------------------
 
 Alpha MOs
 -- Occupied --
-88.911 -10.198 -10.181 -10.181  -7.972  -5.941  -5.940  -5.922
 -0.793  -0.709  -0.688  -0.596  -0.471  -0.445  -0.406  -0.387
 -0.366  -0.347  -0.344  -0.317  -0.277  -0.269
 -- Virtual --
  0.093   0.138   0.141   0.148   0.171   0.184   0.189   0.209
  0.214   0.256   0.302   0.335   0.356   0.360   0.499   0.511
  0.543   0.557   0.579   0.659   0.678   0.679   0.719   0.737
  0.740   0.752   0.759   0.823   0.854   0.859   0.874   0.887
  0.894   0.928   0.951   0.996   1.274   1.291   1.321   1.363
  1.527   1.585   1.666   1.684   1.826   1.844   1.902   2.042
  2.045   2.061   2.075   2.087   2.099   2.105   2.240   2.244
  2.280   2.304   2.407   2.437   2.500   2.636   2.679   2.710
  2.728   2.788   2.859   2.890   2.896   2.905   3.145   3.215
  3.300   3.328   3.420   3.474   3.492   3.563   3.851   4.320
  4.484   4.652
 
 Beta MOs
 -- Occupied --
-88.901 -10.195 -10.181 -10.181  -7.961  -5.921  -5.920  -5.917
 -0.788  -0.687  -0.629  -0.586  -0.462  -0.442  -0.405  -0.386
 -0.346  -0.346  -0.339  -0.244
 -- Virtual --
 -0.163  -0.151   0.094   0.139   0.142   0.150   0.173   0.185
  0.190   0.215   0.228   0.258   0.330   0.369   0.374   0.394
  0.500   0.512   0.553   0.564   0.581   0.667   0.685   0.689
  0.756   0.800   0.804   0.805   0.811   0.858   0.860   0.861
  0.885   0.888   0.895   0.934   0.951   0.998   1.283   1.294
  1.330   1.363   1.527   1.589   1.667   1.687   1.829   1.847
  1.905   2.043   2.045   2.063   2.076   2.091   2.099   2.105
  2.242   2.246   2.281   2.304   2.408   2.437   2.502   2.637
  2.680   2.710   2.729   2.791   2.860   2.891   2.897   2.906
  3.146   3.215   3.303   3.330   3.420   3.474   3.493   3.566
  3.885   4.322   4.484   4.655
 --------------------------------------------------------------
 
          Ground-State Mulliken Net Atomic Charges

     Atom                 Charge (a.u.)    Spin (a.u.)
  --------------------------------------------------------
      1 S                    -0.049642       1.862169
      2 C                    -0.141505       0.151818
      3 C                    -0.310339      -0.002291
      4 C                    -0.310328      -0.002246
      5 H                     0.109562       0.000151
      6 H                     0.109419       0.008630
      7 H                     0.112601       0.000890
      8 H                     0.108720       0.001051
      9 H                     0.109446       0.008696
     10 H                     0.112501       0.000888
     11 H                     0.108768       0.001053
     12 H                     0.040796      -0.030809
  --------------------------------------------------------
  Sum of atomic charges =     0.000000
  Sum of spin   charges =     2.000000

 -----------------------------------------------------------------
                    Cartesian Multipole Moments
 -----------------------------------------------------------------
    Charge (ESU x 10^10)
                -0.0000
    Dipole Moment (Debye)
         X      -1.1835      Y       0.0035      Z      -0.4861
       Tot       1.2795
    Quadrupole Moments (Debye-Ang)
        XX     -36.4585     XY       0.0063     YY     -35.9605
        XZ      -1.2291     YZ      -0.0107     ZZ     -33.5824
    Octopole Moments (Debye-Ang^2)
       XXX     -67.9547    XXY       0.0916    XYY     -25.9742
       YYY       0.3099    XXZ     -17.8756    XYZ      -0.0330
       YYZ     -16.6724    XZZ     -20.9487    YZZ       0.0556
       ZZZ     -39.8467
    Hexadecapole Moments (Debye-Ang^3)
      XXXX    -677.7935   XXXY       0.8105   XXYY    -166.3603
      XYYY       0.9924   YYYY    -218.6481   XXXZ    -104.5428
      XXYZ       0.0088   XYYZ     -39.4264   YYYZ       0.3805
      XXZZ    -136.8558   XYZZ       0.1936   YYZZ     -63.9775
      XZZZ     -97.7969   YZZZ       0.2705   ZZZZ    -139.8810
 -----------------------------------------------------------------
 Calculating analytic gradient of the SCF energy
 Gradient of SCF Energy
            1           2           3           4           5           6
    1  -0.0087015   0.0087570   0.0000100   0.0000079  -0.0000364  -0.0000006
    2   0.0000290  -0.0000215  -0.0000285   0.0000273  -0.0000004  -0.0000043
    3  -0.0041010   0.0038809   0.0000653   0.0000648  -0.0000006  -0.0000004
            7           8           9          10          11          12
    1  -0.0000086   0.0000025  -0.0000005  -0.0000087   0.0000034  -0.0000244
    2   0.0000041   0.0000122   0.0000041  -0.0000038  -0.0000122  -0.0000059
    3  -0.0000155  -0.0000039  -0.0000001  -0.0000143  -0.0000034   0.0001282
 Max gradient component =       8.757E-03
 RMS gradient           =       2.263E-03
 Gradient time:  CPU 8.28 s  wall 0.69 s
 Geometry Optimization Parameters
   NAtoms,    NIC,     NZ,  NCons,   NDum,   NFix, NCnnct, MaxDiis
       12      75       0       1       0       0       0       0

 Cartesian Hessian Update
 Hessian Updated using BFGS Update


** CONSTRAINED OPTIMIZATION IN DELOCALIZED INTERNAL COORDINATES **
   Searching for a Minimum

   Optimization Cycle:  19

                       Coordinates (Angstroms)
     ATOM                X               Y               Z
      1  S         2.6781693188   -0.0080637273    1.0331071174
      2  C        -0.1374636099    0.0005767681   -0.2638660787
      3  C        -0.8492203019   -1.2807573135    0.1630526758
      4  C        -0.8487316718    1.2825008015    0.1621451538
      5  H         0.0363392964    0.0001201138   -1.3475246548
      6  H        -1.8435165212   -1.3426090427   -0.2958611802
      7  H        -0.2876290651   -2.1714306499   -0.1341395080
      8  H        -0.9857489169   -1.3147441174    1.2494789466
      9  H        -1.8430585580    1.3443730644   -0.2967120975
     10  H        -0.2868737830    2.1727708409   -0.1357762696
     11  H        -0.9851018951    1.3173582029    1.2485601017
     12  H         0.8827347077    0.0007050592    0.1799447935
   Point Group: c1    Number of degrees of freedom:    30


   Energy is   -517.256565576

              Constraints and their Current Values
                                        Value     Constraint
   Distance(Angs):        1   2             3.100000     3.100000
 Hessian Updated using BFGS Update

 28 Hessian modes will be used to form the next step
  Hessian Eigenvalues:
     0.002855    0.033813    0.045001    0.065751    0.078182    0.081578
     0.082849    0.083055    0.114851    0.131574    0.148138    0.154659
     0.159862    0.160000    0.160000    0.161235    0.199952    0.214474
     0.220975    0.321554    0.326146    0.333606    0.333798    0.340491
     0.341395    0.343071    0.343296    0.347490

 Minimum Search - Taking Simple RFO Step
 Searching for Lamda that Minimizes Along All modes
 Value Taken    Lamda =   0.00000000
 Step Taken.  Stepsize is  0.002108

                             Maximum     Tolerance    Cnvgd?
         Gradient           0.000064      0.000300     YES
         Displacement       0.001220      0.001200      NO
         Energy change     -0.000000      0.000001     YES


                       Distance Matrix (Angstroms)
             S (  1)   C (  2)   C (  3)   C (  4)   H (  5)   H (  6)
   C (  2)  3.100000
   C (  3)  3.849574  1.526655
   C (  4)  3.855277  1.526669  2.563258
   H (  5)  3.556226  1.097508  2.169495  2.169552
   H (  6)  4.898246  2.171587  1.096838  2.844392  2.538262
   H (  7)  3.852088  2.181054  1.094078  3.511732  2.508564  1.770278
   H (  8)  3.895963  2.177124  1.095499  2.818998  3.085119  1.767659
   H (  9)  4.902959  2.171617  2.844364  1.096843  2.538377  2.686982
   H ( 10)  3.861840  2.181091  3.511750  1.094085  2.508628  3.847942
   H ( 11)  3.901630  2.177117  2.819041  1.095495  3.085144  3.193359
   H ( 12)  1.987850  1.112552  2.154553  2.154366  1.746296  3.076253
             H (  7)   H (  8)   H (  9)   H ( 10)   H ( 11)
   H (  8)  1.770786
   H (  9)  3.847943  3.193210
   H ( 10)  4.344202  3.817083  1.770270
   H ( 11)  3.817064  2.632103  1.767678  1.770774
   H ( 12)  2.487282  2.523002  3.076133  2.487073  2.522762
 
 Final energy is   -517.256565576393     


 ******************************
 **  OPTIMIZATION CONVERGED  **
 ******************************

                       Coordinates (Angstroms)
     ATOM                X               Y               Z
      1  S         2.6781693188   -0.0080637273    1.0331071174
      2  C        -0.1374636099    0.0005767681   -0.2638660787
      3  C        -0.8492203019   -1.2807573135    0.1630526758
      4  C        -0.8487316718    1.2825008015    0.1621451538
      5  H         0.0363392964    0.0001201138   -1.3475246548
      6  H        -1.8435165212   -1.3426090427   -0.2958611802
      7  H        -0.2876290651   -2.1714306499   -0.1341395080
      8  H        -0.9857489169   -1.3147441174    1.2494789466
      9  H        -1.8430585580    1.3443730644   -0.2967120975
     10  H        -0.2868737830    2.1727708409   -0.1357762696
     11  H        -0.9851018951    1.3173582029    1.2485601017
     12  H         0.8827347077    0.0007050592    0.1799447935

Z-matrix Print:
$molecule
0 3
S 
H  1 1.987850
C  2 1.112552 1 178.076312
H  3 1.097508 2 104.398403 1 -172.227579 0
C  3 1.526655 2 108.424945 1 -54.455155 0
H  5 1.094078 3 111.592106 2 -57.147992 0
H  5 1.095499 3 111.190486 2 63.437078 0
H  5 1.096838 3 110.668545 2 -177.197564 0
C  3 1.526669 2 108.409674 1 70.003034 0
H  9 1.094085 3 111.593680 2 57.146389 0
H  9 1.095495 3 111.189103 2 -63.437128 0
H  9 1.096843 3 110.669682 2 177.195691 0
$end

PES scan, value:    3.1000 energy: -517.2565655764
------- Summary of potential scan: ------ 
    3.1000      -517.2565655764
----------------------------------------- 
Archival summary:
1\1\hpc0250\JobtypUnspecified\ProcedureUnspecified\6-31G**\138(3)\knomura\WedMar1315:05:332019WedMar1315:05:332019\0\\#,JobtypUnspecified,ProcedureUnspecified,6-31G**,\\0,3\S\H,1,1.98785\C,2,1.11255,1,178.076\H,3,1.09751,2,104.398,1,-172.228,0\C,3,1.52665,2,108.425,1,-54.4552,0\H,5,1.09408,3,111.592,2,-57.148,0\H,5,1.0955,3,111.19,2,63.4371,0\H,5,1.09684,3,110.669,2,-177.198,0\C,3,1.52667,2,108.41,1,70.003,0\H,9,1.09409,3,111.594,2,57.1464,0\H,9,1.0955,3,111.189,2,-63.4371,0\H,9,1.09684,3,110.67,2,177.196,0\\\@

 Total job time:  56.06s(wall), 656.60s(cpu) 
 Wed Mar 13 15:05:33 2019

        *************************************************************
        *                                                           *
        *  Thank you very much for using Q-Chem.  Have a nice day.  *
        *                                                           *
        *************************************************************


