
Running Job 1 of 1 thiol/01/C-S.xyz.data/inputs/bond_triplet_3.0.in
qchem thiol/01/C-S.xyz.data/inputs/bond_triplet_3.0.in_12162.0 /staging/scratch/2868767/qchem12162/ 1
/usr/usc/qchem/5.1.1/exe/qcprog.exe_s thiol/01/C-S.xyz.data/inputs/bond_triplet_3.0.in_12162.0 /staging/scratch/2868767/qchem12162/
Check license passed

                  Welcome to Q-Chem
     A Quantum Leap Into The Future Of Chemistry


 Q-Chem 5.1, Q-Chem, Inc., Pleasanton, CA (2018)

 Yihan Shao,  Zhengting Gan,  E. Epifanovsky,  A. T. B. Gilbert,  M. Wormit,  
 J. Kussmann,  A. W. Lange,  A. Behn,  Jia Deng,  Xintian Feng,  D. Ghosh,  
 M. Goldey,  P. R. Horn,  L. D. Jacobson,  I. Kaliman,  T. Kus,  A. Landau,  
 Jie Liu,  E. I. Proynov,  R. M. Richard,  R. P. Steele,  E. J. Sundstrom,  
 H. L. Woodcock III,  P. M. Zimmerman,  D. Zuev,  B. Albrecht,  E. Alguire,  
 S. A. Baeppler,  D. Barton,  Z. Benda,  Y. A. Bernard,  E. J. Berquist,  
 K. B. Bravaya,  H. Burton,  D. Casanova,  Chun-Min Chang,  Yunqing Chen,  
 A. Chien,  K. D. Closser,  M. P. Coons,  S. Coriani,  S. Dasgupta,  
 A. L. Dempwolff,  M. Diedenhofen,  Hainam Do,  R. G. Edgar,  Po-Tung Fang,  
 S. Faraji,  S. Fatehi,  Qingguo Feng,  K. D. Fenk,  J. Fosso-Tande,  
 Qinghui Ge,  A. Ghysels,  G. Gidofalvi,  J. Gomes,  J. Gonthier,  A. Gunina,  
 D. Hait,  M. W. D. Hanson-Heine,  P. H. P. Harbach,  A. W. Hauser,  
 J. E. Herr,  E. G. Hohenstein,  Z. C. Holden,  Kerwin Hui,  B. C. Huynh,  
 T.-C. Jagau,  Hyunjun Ji,  B. Kaduk,  K. Khistyaev,  Jaehoon Kim,  
 P. Klunzinger,  K. Koh,  D. Kosenkov,  L. Koulias,  T. Kowalczyk,  
 C. M. Krauter,  A. Kunitsa,  Ka Un Lao,  A. Laurent,  K. V. Lawler,  
 Joonho Lee,  D. Lefrancois,  S. Lehtola,  D. S. Levine,  Yi-Pei Li,  
 You-Sheng Lin,  Fenglai Liu,  E. Livshits,  A. Luenser,  P. Manohar,  
 E. Mansoor,  S. F. Manzer,  Shan-Ping Mao,  Yuezhi Mao,  N. Mardirossian,  
 A. V. Marenich,  T. Markovich,  L. A. Martinez-Martinez,  S. A. Maurer,  
 N. J. Mayhall,  S. C. McKenzie,  J.-M. Mewes,  A. F. Morrison,  
 J. W. Mullinax,  K. Nanda,  T. S. Nguyen-Beck,  R. Olivares-Amaya,  
 J. A. Parkhill,  T. M. Perrine,  F. Plasser,  P. Pokhilko,  S. Prager,  
 A. Prociuk,  E. Ramos,  D. R. Rehn,  F. Rob,  M. Schneider,  N. Sergueev,  
 S. M. Sharada,  S. Sharma,  D. W. Small,  T. Stauch,  T. Stein,  
 Yu-Chuan Su,  A. J. W. Thom,  A. Tkatchenko,  T. Tsuchimochi,  N. M. Tubman,  
 L. Vogt,  M. L. Vidal,  O. Vydrov,  M. A. Watson,  J. Wenzel,  
 M. de Wergifosse,  T. A. Wesolowski,  A. White,  J. Witte,  A. Yamada,  
 Jun Yang,  K. Yao,  S. Yeganeh,  S. R. Yost,  Zhi-Qiang You,  A. Zech,  
 Igor Ying Zhang,  Xing Zhang,  Yan Zhao,  Ying Zhu,  B. R. Brooks,  
 G. K. L. Chan,  C. J. Cramer,  M. S. Gordon,  W. J. Hehre,  A. Klamt,  
 M. W. Schmidt,  C. D. Sherrill,  D. G. Truhlar,  A. Aspuru-Guzik,  R. Baer,  
 A. T. Bell,  N. A. Besley,  Jeng-Da Chai,  A. E. DePrince, III,  
 R. A. DiStasio Jr.,  A. Dreuw,  B. D. Dunietz,  T. R. Furlani,  
 Chao-Ping Hsu,  Yousung Jung,  Jing Kong,  D. S. Lambrecht,  WanZhen Liang,  
 C. Ochsenfeld,  V. A. Rassolov,  L. V. Slipchenko,  J. E. Subotnik,  
 T. Van Voorhis,  J. M. Herbert,  A. I. Krylov,  P. M. W. Gill,  M. Head-Gordon

 Contributors to earlier versions of Q-Chem not listed above: 
 R. D. Adamson,  B. Austin,  J. Baker,  G. J. O. Beran,  K. Brandhorst,  
 S. T. Brown,  E. F. C. Byrd,  A. K. Chakraborty,  C.-L. Cheng,  
 Siu Hung Chien,  D. M. Chipman,  D. L. Crittenden,  H. Dachsel,  
 R. J. Doerksen,  A. D. Dutoi,  L. Fusti-Molnar,  W. A. Goddard III,  
 A. Golubeva-Zadorozhnaya,  S. R. Gwaltney,  G. Hawkins,  A. Heyden,  
 S. Hirata,  G. Kedziora,  F. J. Keil,  C. Kelley,  Jihan Kim,  R. A. King,  
 R. Z. Khaliullin,  P. P. Korambath,  W. Kurlancheek,  A. M. Lee,  M. S. Lee,  
 S. V. Levchenko,  Ching Yeh Lin,  D. Liotard,  R. C. Lochan,  I. Lotan,  
 P. E. Maslen,  N. Nair,  D. P. O'Neill,  D. Neuhauser,  E. Neuscamman,  
 C. M. Oana,  R. Olson,  B. Peters,  R. Peverati,  P. A. Pieniazek,  
 Y. M. Rhee,  J. Ritchie,  M. A. Rohrdanz,  E. Rosta,  N. J. Russ,  
 H. F. Schaefer III,  N. E. Schultz,  N. Shenvi,  A. C. Simmonett,  A. Sodt,  
 D. Stuck,  K. S. Thanthiriwatte,  V. Vanovschi,  Tao Wang,  A. Warshel,  
 C. F. Williams,  Q. Wu,  X. Xu,  W. Zhang

 Please cite Q-Chem as follows:
 Y. Shao et al., Mol. Phys. 113, 184-215 (2015)
 DOI: 10.1080/00268976.2014.952696

 Q-Chem 5.1.1 for Intel X86 EM64T Linux

 Parts of Q-Chem use Armadillo 8.300.2 (Tropical Shenanigans).
 http://arma.sourceforge.net/

 Q-Chem begins on Wed Mar 13 15:05:34 2019  

Host: 
0

     Scratch files written to /staging/scratch/2868767/qchem12162//
 Aug318 |scratch|qcdevops|jenkins|workspace|build_RNUM 6013   
Processing $rem in /usr/usc/qchem/5.1.1/config/preferences.
 MEM_TOTAL  2000 
Input Ideriv = 2
Curr. Ideriv = -1
Max.  Ideriv = 2

Checking the input file for inconsistencies... 	...done.

--------------------------------------------------------------
User input:
--------------------------------------------------------------

$comment
potential surface scanner
$end

$rem
JOBTYPE  PES_SCAN
UNRESTRICTED TRUE
SYM_IGNORE  TRUE
GEOM_OPT_MAX_CYCLES 400
SCF_MAX_CYCLES 400
METHOD   B3LYP
BASIS   6-31G**
PDB_PRINT 2
SCF_CONVERGENCE 6
THRESH 14
SCF_PRINT 1
$end
$molecule
0 3
S 2.678169 -0.008064 1.033107
C -0.137464 0.000577 -0.263866
C -0.849220 -1.280757 0.163053
C -0.848732 1.282501 0.162145
H 0.036339 0.000120 -1.347525
H -1.843517 -1.342609 -0.295861
H -0.287629 -2.171431 -0.134140
H -0.985749 -1.314744 1.249479
H -1.843059 1.344373 -0.296712
H -0.286874 2.172771 -0.135776
H -0.985102 1.317358 1.248560
H 0.882735 0.000705 0.179945
$end
$scan
stre 1 2 3.000000 3.001000 0.100000
$end
--------------------------------------------------------------
 ----------------------------------------------------------------
             Standard Nuclear Orientation (Angstroms)
    I     Atom           X                Y                Z
 ----------------------------------------------------------------
    1      S       2.6781690000    -0.0080640000     1.0331070000
    2      C      -0.1374640000     0.0005770000    -0.2638660000
    3      C      -0.8492200000    -1.2807570000     0.1630530000
    4      C      -0.8487320000     1.2825010000     0.1621450000
    5      H       0.0363390000     0.0001200000    -1.3475250000
    6      H      -1.8435170000    -1.3426090000    -0.2958610000
    7      H      -0.2876290000    -2.1714310000    -0.1341400000
    8      H      -0.9857490000    -1.3147440000     1.2494790000
    9      H      -1.8430590000     1.3443730000    -0.2967120000
   10      H      -0.2868740000     2.1727710000    -0.1357760000
   11      H      -0.9851020000     1.3173580000     1.2485600000
   12      H       0.8827350000     0.0007050000     0.1799450000
 ----------------------------------------------------------------
 Nuclear Repulsion Energy =   143.9081705773 hartrees
 There are       22 alpha and       20 beta electrons
 Requested basis set is 6-31G(d,p)
 There are 41 shells and 104 basis functions

 Total QAlloc Memory Limit   2000 MB
 Mega-Array Size       188 MB
 MEM_STATIC part       192 MB
A total of 1 constraints
  
            1
    1   1.0100000
    2   1.0100000
    3   2.0100000
    4   3.0000000
    5   3.0010000
    6   0.1000000
    7   0.0000000
    8   0.0000000
    9   0.0000000
   10   0.0000000

                       Distance Matrix (Angstroms)
             S (  1)   C (  2)   C (  3)   C (  4)   H (  5)   H (  6)
   C (  2)  3.100000
   C (  3)  3.849573  1.526654
   C (  4)  3.855277  1.526668  2.563258
   H (  5)  3.556226  1.097508  2.169495  2.169552
   H (  6)  4.898246  2.171587  1.096838  2.844393  2.538263
   H (  7)  3.852088  2.181054  1.094079  3.511733  2.508564  1.770279
   H (  8)  3.895963  2.177124  1.095498  2.818998  3.085119  1.767659
   H (  9)  4.902959  2.171617  2.844364  1.096843  2.538378  2.686982
   H ( 10)  3.861840  2.181091  3.511750  1.094085  2.508628  3.847942
   H ( 11)  3.901630  2.177116  2.819041  1.095495  3.085144  3.193358
   H ( 12)  1.987849  1.112553  2.154553  2.154367  1.746296  3.076253
             H (  7)   H (  8)   H (  9)   H ( 10)   H ( 11)
   H (  8)  1.770787
   H (  9)  3.847944  3.193210
   H ( 10)  4.344202  3.817082  1.770270
   H ( 11)  3.817064  2.632102  1.767678  1.770774
   H ( 12)  2.487283  2.523002  3.076134  2.487074  2.522762
 
 A cutoff of  1.0D-14 yielded    826 shell pairs
 There are      5412 function pairs
 
 -------------------------------------------------------
 OpenMP Integral Computing Module                       
 Release: version 1.0, May 2013, Q-Chem Inc. Pittsburgh 
 -------------------------------------------------------
 Integral Job Info:
 Integral job number is                      11
 Integral operator is                         1
 short-range coefficients                     0
 long-range coefficients              100000000
 Omega coefficients                           0
 if combine SR and LR in K                    0
 Integral screening is                        0
 Integral computing path is                   2
 max size of driver memory is            800000
 size of driver memory is                593474
 size of scratch memory is             15267112
 max col of scratch BK array               1296
 max len of scratch array in speh3          155
 max len of scratch index in speh4           18
 max int batch size is                      520
 min int batch size is                       52
 fixed nKL is                                52
 max L of basis functions is                  2
 order of int derivative is                   0
 number of shells is                         41
 number of basis is                         104
 number of cartesian basis is               104
 number of contracted shell pairs           826
 number of primitive shell pairs           2924
 maxK2 (contraction) of shell pair           36
 max number of K2 of shell pair               1
 max number of CS2 of shell pair             74
 max number of PS2 of shell pair            240
 mem total for path MDJ                  513890
 -------------------------------------------------------
 Smallest overlap matrix eigenvalue = 5.13E-03

 Scale SEOQF with 1.000000e-01/1.000000e-01/1.000000e-01

 Standard Electronic Orientation quadrupole field applied
 Nucleus-field energy     =     0.0000000049 hartrees
 Guess from superposition of atomic densities
 Warning:  Energy on first SCF cycle will be non-variational
 SAD guess density has 42.000000 electrons

 -----------------------------------------------------------------------
  General SCF calculation program by
  Eric Jon Sundstrom, Paul Horn, Yuezhi Mao, Dmitri Zuev, Alec White,
  David Stuck, Shaama M.S., Shane Yost, Joonho Lee, David Small,
  Daniel Levine, Susi Lehtola, Hugh Burton, Evgeny Epifanovsky
 -----------------------------------------------------------------------
 Exchange:     0.2000 Hartree-Fock + 0.0800 Slater + 0.7200 B88
 Correlation:  0.1900 VWN1RPA + 0.8100 LYP
 Using SG-1 standard quadrature grid
 using 12 threads for integral computing
 -------------------------------------------------------
 OpenMP Integral computing Module                
 Release: version 1.0, May 2013, Q-Chem Inc. Pittsburgh 
 -------------------------------------------------------
 -------------------------------------------------------
 OpenMP BLAS3 based DFT computing Module                
 Release: version 1.0, May 2013, Q-Chem Inc. Pittsburgh 
 -------------------------------------------------------
 A unrestricted SCF calculation will be
 performed using DIIS
 SCF converges when DIIS error is below 1.0e-06
 Alpha HF Exchange    Energy =  -4.33032359636882
 Beta HF Exchange     Energy =  -4.33032359636882
 DFT Correlation      Energy =  -1.86240108794528
 DFT Exchange         Energy = -33.95921384291078
 One-Electron (alpha) Energy = -495.22767550734596
 One-Electron (beta)  Energy = -495.22767550734596
 Total Coulomb        Energy = 373.54912072653178
 ---------------------------------------
  Cycle       Energy         DIIS error
 ---------------------------------------
    1    -517.4803218296      2.84e-02  
 Alpha HF Exchange    Energy =  -4.45771907620582
 Beta HF Exchange     Energy =  -4.27108705691016
 DFT Correlation      Energy =  -1.87914292786722
 DFT Exchange         Energy = -34.60960872923051
 One-Electron (alpha) Energy = -510.96199315172288
 One-Electron (beta)  Energy = -485.99281159625127
 Total Coulomb        Energy = 381.10653868451493
    2    -517.1576532715      4.06e-03  
 Alpha HF Exchange    Energy =  -4.40814442038867
 Beta HF Exchange     Energy =  -4.20798999153076
 DFT Correlation      Energy =  -1.85310185120832
 DFT Exchange         Energy = -34.14532575822231
 One-Electron (alpha) Energy = -507.89755775439869
 One-Electron (beta)  Energy = -482.62781674851300
 Total Coulomb        Energy = 374.11763585427866
    3    -517.1141300878      4.82e-03  
 Alpha HF Exchange    Energy =  -4.43270836136990
 Beta HF Exchange     Energy =  -4.24021529713051
 DFT Correlation      Energy =  -1.86550172286634
 DFT Exchange         Energy = -34.37212538733992
 One-Electron (alpha) Energy = -509.58228871119547
 One-Electron (beta)  Energy = -484.27015555019346
 Total Coulomb        Energy = 377.59985549580307
    4    -517.2549689522      4.98e-04  
 Alpha HF Exchange    Energy =  -4.43516022753720
 Beta HF Exchange     Energy =  -4.24034868726805
 DFT Correlation      Energy =  -1.86591395512014
 DFT Exchange         Energy = -34.38282573555060
 One-Electron (alpha) Energy = -509.69039803863200
 One-Electron (beta)  Energy = -484.27482742719985
 Total Coulomb        Energy = 377.72495947609718
    5    -517.2563440131      1.93e-04  
 Alpha HF Exchange    Energy =  -4.43513537867069
 Beta HF Exchange     Energy =  -4.24026685707879
 DFT Correlation      Energy =  -1.86570711716610
 DFT Exchange         Energy = -34.38176958002767
 One-Electron (alpha) Energy = -509.69722259579805
 One-Electron (beta)  Energy = -484.25510836397052
 Total Coulomb        Energy = 377.71048914358300
    6    -517.2565501670      4.96e-05  
 Alpha HF Exchange    Energy =  -4.43495386646928
 Beta HF Exchange     Energy =  -4.24012325975836
 DFT Correlation      Energy =  -1.86561374457247
 DFT Exchange         Energy = -34.38025259728527
 One-Electron (alpha) Energy = -509.68645108928422
 One-Electron (beta)  Energy = -484.23841854763612
 Total Coulomb        Energy = 377.68107762796376
    7    -517.2565648949      8.41e-06  
 Alpha HF Exchange    Energy =  -4.43505760691609
 Beta HF Exchange     Energy =  -4.24016249407118
 DFT Correlation      Energy =  -1.86562854710161
 DFT Exchange         Energy = -34.38078471923058
 One-Electron (alpha) Energy = -509.69392307975573
 One-Electron (beta)  Energy = -484.24016873668057
 Total Coulomb        Energy = 377.69098907156069
    8    -517.2565655301      2.34e-06  
 Alpha HF Exchange    Energy =  -4.43504409315033
 Beta HF Exchange     Energy =  -4.24015613889155
 DFT Correlation      Energy =  -1.86562049570220
 DFT Exchange         Energy = -34.38068697654656
 One-Electron (alpha) Energy = -509.69290895683605
 One-Electron (beta)  Energy = -484.23869236154991
 Total Coulomb        Energy = 377.68837286445239
    9    -517.2565655761      5.86e-07  Convergence criterion met
 ---------------------------------------
 SCF time:   CPU 21.96s  wall 2.00s 
<S^2> =          2.003419674
 Alpha HF Exchange    Energy =  -4.43504409315033
 Beta HF Exchange     Energy =  -4.24015613889155
 DFT Correlation      Energy =  -1.86562049570220
 DFT Exchange         Energy = -34.38068697654656
 One-Electron (alpha) Energy = -509.69290895683605
 One-Electron (beta)  Energy = -484.23869236154991
 Total Coulomb        Energy = 377.68837286445239
 Nuclear repulsion Energy = 143.90817058213673
 SCF   energy in the final basis set =     -517.2565655761
 Total energy in the final basis set =     -517.2565655761
 
 --------------------------------------------------------------
 
                    Orbital Energies (a.u.)
 --------------------------------------------------------------
 
 Alpha MOs
 -- Occupied --
-88.911 -10.198 -10.181 -10.181  -7.972  -5.941  -5.940  -5.922
 -0.793  -0.709  -0.688  -0.596  -0.471  -0.445  -0.406  -0.387
 -0.366  -0.347  -0.344  -0.317  -0.277  -0.269
 -- Virtual --
  0.093   0.138   0.141   0.148   0.171   0.184   0.189   0.209
  0.214   0.256   0.302   0.335   0.356   0.360   0.499   0.511
  0.543   0.557   0.579   0.659   0.678   0.679   0.719   0.737
  0.740   0.752   0.759   0.823   0.854   0.859   0.874   0.887
  0.894   0.928   0.951   0.996   1.274   1.291   1.321   1.363
  1.527   1.585   1.666   1.684   1.826   1.844   1.902   2.042
  2.045   2.061   2.075   2.087   2.099   2.105   2.240   2.244
  2.280   2.304   2.407   2.437   2.500   2.636   2.679   2.710
  2.728   2.788   2.859   2.890   2.896   2.905   3.145   3.215
  3.300   3.328   3.420   3.474   3.492   3.563   3.851   4.320
  4.484   4.651
 
 Beta MOs
 -- Occupied --
-88.901 -10.195 -10.181 -10.181  -7.961  -5.921  -5.920  -5.917
 -0.788  -0.687  -0.629  -0.586  -0.462  -0.442  -0.405  -0.386
 -0.346  -0.346  -0.339  -0.244
 -- Virtual --
 -0.163  -0.151   0.094   0.139   0.142   0.150   0.173   0.185
  0.190   0.215   0.228   0.258   0.330   0.369   0.374   0.394
  0.500   0.512   0.553   0.564   0.581   0.667   0.685   0.689
  0.756   0.800   0.804   0.805   0.811   0.858   0.860   0.861
  0.885   0.888   0.895   0.934   0.951   0.998   1.283   1.294
  1.330   1.363   1.527   1.589   1.667   1.687   1.829   1.847
  1.905   2.043   2.045   2.063   2.076   2.091   2.099   2.105
  2.242   2.246   2.281   2.304   2.408   2.437   2.502   2.637
  2.680   2.710   2.729   2.791   2.860   2.891   2.897   2.906
  3.146   3.215   3.303   3.330   3.420   3.474   3.493   3.566
  3.885   4.322   4.484   4.655
 --------------------------------------------------------------
 
          Ground-State Mulliken Net Atomic Charges

     Atom                 Charge (a.u.)    Spin (a.u.)
  --------------------------------------------------------
      1 S                    -0.049643       1.862168
      2 C                    -0.141505       0.151818
      3 C                    -0.310339      -0.002291
      4 C                    -0.310328      -0.002246
      5 H                     0.109562       0.000151
      6 H                     0.109419       0.008630
      7 H                     0.112601       0.000890
      8 H                     0.108720       0.001051
      9 H                     0.109447       0.008696
     10 H                     0.112501       0.000888
     11 H                     0.108768       0.001053
     12 H                     0.040796      -0.030809
  --------------------------------------------------------
  Sum of atomic charges =     0.000000
  Sum of spin   charges =     2.000000

 -----------------------------------------------------------------
                    Cartesian Multipole Moments
 -----------------------------------------------------------------
    Charge (ESU x 10^10)
                -0.0000
    Dipole Moment (Debye)
         X      -1.1835      Y       0.0035      Z      -0.4861
       Tot       1.2795
    Quadrupole Moments (Debye-Ang)
        XX     -36.4585     XY       0.0063     YY     -35.9605
        XZ      -1.2291     YZ      -0.0107     ZZ     -33.5824
    Octopole Moments (Debye-Ang^2)
       XXX     -67.9547    XXY       0.0917    XYY     -25.9742
       YYY       0.3099    XXZ     -17.8756    XYZ      -0.0330
       YYZ     -16.6724    XZZ     -20.9487    YZZ       0.0555
       ZZZ     -39.8467
    Hexadecapole Moments (Debye-Ang^3)
      XXXX    -677.7936   XXXY       0.8108   XXYY    -166.3603
      XYYY       0.9925   YYYY    -218.6481   XXXZ    -104.5428
      XXYZ       0.0086   XYYZ     -39.4263   YYYZ       0.3805
      XXZZ    -136.8559   XYZZ       0.1934   YYZZ     -63.9775
      XZZZ     -97.7969   YZZZ       0.2704   ZZZZ    -139.8810
 -----------------------------------------------------------------
 Calculating analytic gradient of the SCF energy
 Gradient of SCF Energy
            1           2           3           4           5           6
    1  -0.0087015   0.0087565   0.0000104   0.0000079  -0.0000364  -0.0000010
    2   0.0000290  -0.0000215  -0.0000280   0.0000274  -0.0000004  -0.0000043
    3  -0.0041010   0.0038811   0.0000658   0.0000647  -0.0000008  -0.0000006
            7           8           9          10          11          12
    1  -0.0000085   0.0000024  -0.0000005  -0.0000087   0.0000034  -0.0000242
    2   0.0000037   0.0000122   0.0000041  -0.0000039  -0.0000123  -0.0000060
    3  -0.0000157  -0.0000040  -0.0000001  -0.0000143  -0.0000034   0.0001283
 Max gradient component =       8.757E-03
 RMS gradient           =       2.263E-03
 Gradient time:  CPU 8.31 s  wall 0.71 s
 Geometry Optimization Parameters
   NAtoms,    NIC,     NZ,  NCons,   NDum,   NFix, NCnnct, MaxDiis
       12      75       0       1       0       0       0       0


** CONSTRAINED OPTIMIZATION IN DELOCALIZED INTERNAL COORDINATES **
   Searching for a Minimum

   Optimization Cycle:   1

                       Coordinates (Angstroms)
     ATOM                X               Y               Z
      1  S         2.6781690000   -0.0080640000    1.0331070000
      2  C        -0.1374640000    0.0005770000   -0.2638660000
      3  C        -0.8492200000   -1.2807570000    0.1630530000
      4  C        -0.8487320000    1.2825010000    0.1621450000
      5  H         0.0363390000    0.0001200000   -1.3475250000
      6  H        -1.8435170000   -1.3426090000   -0.2958610000
      7  H        -0.2876290000   -2.1714310000   -0.1341400000
      8  H        -0.9857490000   -1.3147440000    1.2494790000
      9  H        -1.8430590000    1.3443730000   -0.2967120000
     10  H        -0.2868740000    2.1727710000   -0.1357760000
     11  H        -0.9851020000    1.3173580000    1.2485600000
     12  H         0.8827350000    0.0007050000    0.1799450000
   Point Group: c1    Number of degrees of freedom:    30


   Energy is   -517.256565576

              Constraints and their Current Values
                                        Value     Constraint
   Distance(Angs):        1   2             3.100000     3.000000

 Attempting to Generate Delocalized Internal Coordinates

   Using Lagrange Multiplier Algorithm


 31 Hessian modes will be used to form the next step
  Hessian Eigenvalues:
    -0.989422    0.045000    0.045000    0.066568    0.077771    0.082315
     0.082315    0.083142    0.083143    0.106110    0.133958    0.160000
     0.160000    0.160000    0.160000    0.160000    0.160000    0.190264
     0.200000    0.200612    0.218875    0.297332    0.297346    0.339592
     0.340337    0.340342    0.341849    0.341853    0.343448    0.343455
     1.010691

 Minimum Search - Taking P-RFO Step
 Searching for Lamda that Maximizes Along the Constraint modes Only
 Value Taken    Lamda =   0.01972367
 Searching for Lamda that Minimizes Along All other modes
 Value Taken    Lamda =  -0.01549338
 Step Taken.  Stepsize is  0.185676

                             Maximum     Tolerance    Cnvgd?
         Gradient            0.188973       0.000300      NO
         Displacement        0.185674       0.001200      NO
         Energy change     *********       0.000001      NO


 New Cartesian Coordinates Obtained by Inverse Iteration

 Displacement from previous Coordinates is:  0.190256
 ----------------------------------------------------------------
             Standard Nuclear Orientation (Angstroms)
    I     Atom           X                Y                Z
 ----------------------------------------------------------------
    1      S       2.5965259279    -0.0081102447     1.0075016632
    2      C      -0.1251885805     0.0005947608    -0.2584652646
    3      C      -0.8379569244    -1.2807346265     0.1666548175
    4      C      -0.8375546100     1.2824767943     0.1657160158
    5      H       0.0513630293     0.0001339694    -1.3416901858
    6      H      -1.8311437532    -1.3426358274    -0.2946361152
    7      H      -0.2755875684    -2.1714041283    -0.1290870932
    8      H      -0.9771186620    -1.3147632945     1.2527599151
    9      H      -1.8307758953     1.3443175055    -0.2955221985
   10      H      -0.2749786201     2.1727741063    -0.1307775120
   11      H      -0.9765671285     1.3173932913     1.2518084964
   12      H       0.8488797853     0.0007576939     0.1681464613
 ----------------------------------------------------------------
 Nuclear Repulsion Energy =   145.7162623421 hartrees
 There are       22 alpha and       20 beta electrons

                       Distance Matrix (Angstroms)
             S (  1)   C (  2)   C (  3)   C (  4)   H (  5)   H (  6)
   C (  2)  3.001746
   C (  3)  3.757961  1.526621
   C (  4)  3.763924  1.526636  2.563212
   H (  5)  3.463614  1.097519  2.169474  2.169528
   H (  6)  4.804246  2.171603  1.096832  2.844356  2.538343
   H (  7)  3.771036  2.181041  1.094082  3.511696  2.508561  1.770316
   H (  8)  3.812929  2.177097  1.095513  2.819007  3.085110  1.767645
   H (  9)  4.809151  2.171634  2.844327  1.096838  2.538453  2.686954
   H ( 10)  3.781200  2.181079  3.511714  1.094088  2.508620  3.847935
   H ( 11)  3.818853  2.177092  2.819049  1.095509  3.085133  3.193360
   H ( 12)  1.938779  1.063394  2.118406  2.118223  1.707525  3.033381
             H (  7)   H (  8)   H (  9)   H ( 10)   H ( 11)
   H (  8)  1.770729
   H (  9)  3.847936  3.193215
   H ( 10)  4.344179  3.817079  1.770307
   H ( 11)  3.817061  2.632157  1.767662  1.770719
   H ( 12)  2.463952  2.498250  3.033265  2.463751  2.498021
 
 Applying Cartesian multipole field
    Component          Value
    ---------          -----
     (2,0,0)        1.00000E-11
     (0,2,0)        2.00000E-11
     (0,0,2)       -3.00000E-11
 Nucleus-field energy     =     0.0000000047 hartrees
 Requested basis set is 6-31G(d,p)
 There are 41 shells and 104 basis functions
 A cutoff of  1.0D-14 yielded    830 shell pairs
 There are      5416 function pairs
 Smallest overlap matrix eigenvalue = 4.77E-03
 Guess from superposition of atomic densities
 Warning:  Energy on first SCF cycle will be non-variational
 SAD guess density has 42.000000 electrons

 -----------------------------------------------------------------------
  General SCF calculation program by
  Eric Jon Sundstrom, Paul Horn, Yuezhi Mao, Dmitri Zuev, Alec White,
  David Stuck, Shaama M.S., Shane Yost, Joonho Lee, David Small,
  Daniel Levine, Susi Lehtola, Hugh Burton, Evgeny Epifanovsky
 -----------------------------------------------------------------------
 Exchange:     0.2000 Hartree-Fock + 0.0800 Slater + 0.7200 B88
 Correlation:  0.1900 VWN1RPA + 0.8100 LYP
 Using SG-1 standard quadrature grid
 using 12 threads for integral computing
 -------------------------------------------------------
 OpenMP Integral computing Module                
 Release: version 1.0, May 2013, Q-Chem Inc. Pittsburgh 
 -------------------------------------------------------
 -------------------------------------------------------
 OpenMP BLAS3 based DFT computing Module                
 Release: version 1.0, May 2013, Q-Chem Inc. Pittsburgh 
 -------------------------------------------------------
 A unrestricted SCF calculation will be
 performed using DIIS
 SCF converges when DIIS error is below 1.0e-06
 Alpha HF Exchange    Energy =  -4.33481867130378
 Beta HF Exchange     Energy =  -4.33481867130378
 DFT Correlation      Energy =  -1.86375770721860
 DFT Exchange         Energy = -33.96829225825051
 One-Electron (alpha) Energy = -497.00813001563603
 One-Electron (beta)  Energy = -497.00813001563603
 Total Coulomb        Energy = 375.28999601807573
 ---------------------------------------
  Cycle       Energy         DIIS error
 ---------------------------------------
    1    -517.5116889745      2.87e-02  
 Alpha HF Exchange    Energy =  -4.46056699672307
 Beta HF Exchange     Energy =  -4.27350161677671
 DFT Correlation      Energy =  -1.88059336498201
 DFT Exchange         Energy = -34.62845683735900
 One-Electron (alpha) Energy = -512.89103168615338
 One-Electron (beta)  Energy = -487.70821436682286
 Total Coulomb        Energy = 382.97332322655609
    2    -517.1527792954      4.09e-03  
 Alpha HF Exchange    Energy =  -4.41038578883664
 Beta HF Exchange     Energy =  -4.20962428365659
 DFT Correlation      Energy =  -1.85443986960362
 DFT Exchange         Energy = -34.15915244822938
 One-Electron (alpha) Energy = -509.76861391972886
 One-Electron (beta)  Energy = -484.28271921783391
 Total Coulomb        Energy = 375.85950448693279
    3    -517.1091686941      4.85e-03  
 Alpha HF Exchange    Energy =  -4.43519619360566
 Beta HF Exchange     Energy =  -4.24207994886951
 DFT Correlation      Energy =  -1.86691332554364
 DFT Exchange         Energy = -34.38777817012858
 One-Electron (alpha) Energy = -511.48328843062575
 One-Electron (beta)  Energy = -485.95972505423367
 Total Coulomb        Energy = 379.40713256272284
    4    -517.2515862135      4.80e-04  
 Alpha HF Exchange    Energy =  -4.43767285126951
 Beta HF Exchange     Energy =  -4.24230837312584
 DFT Correlation      Energy =  -1.86734169913615
 DFT Exchange         Energy = -34.39896910335592
 One-Electron (alpha) Energy = -511.59215601937865
 One-Electron (beta)  Energy = -485.96619814145077
 Total Coulomb        Energy = 379.53553708947777
    5    -517.2528467514      1.91e-04  
 Alpha HF Exchange    Energy =  -4.43756564547430
 Beta HF Exchange     Energy =  -4.24217824095962
 DFT Correlation      Energy =  -1.86711365434922
 DFT Exchange         Energy = -34.39739399135746
 One-Electron (alpha) Energy = -511.59434532276657
 One-Electron (beta)  Energy = -485.94445981530981
 Total Coulomb        Energy = 379.51374828891164
    6    -517.2530460345      5.00e-05  
 Alpha HF Exchange    Energy =  -4.43740345599739
 Beta HF Exchange     Energy =  -4.24204566513402
 DFT Correlation      Energy =  -1.86703187155774
 DFT Exchange         Energy = -34.39602650004133
 One-Electron (alpha) Energy = -511.58470107024613
 One-Electron (beta)  Energy = -485.92905561331872
 Total Coulomb        Energy = 379.48694127000715
    7    -517.2530605595      7.99e-06  
 Alpha HF Exchange    Energy =  -4.43749951383246
 Beta HF Exchange     Energy =  -4.24208236900438
 DFT Correlation      Energy =  -1.86704574590520
 DFT Exchange         Energy = -34.39652122435346
 One-Electron (alpha) Energy = -511.59174598241640
 One-Electron (beta)  Energy = -485.93074778489824
 Total Coulomb        Energy = 379.49631915786597
    8    -517.2530611157      2.24e-06  
 Alpha HF Exchange    Energy =  -4.43748616658395
 Beta HF Exchange     Energy =  -4.24207623446576
 DFT Correlation      Energy =  -1.86703803956885
 DFT Exchange         Energy = -34.39642641602009
 One-Electron (alpha) Energy = -511.59073911187863
 One-Electron (beta)  Energy = -485.92931806584323
 Total Coulomb        Energy = 379.49376053038429
    9    -517.2530611572      5.56e-07  Convergence criterion met
 ---------------------------------------
 SCF time:   CPU 21.59s  wall 2.00s 
<S^2> =          2.003236853
 Alpha HF Exchange    Energy =  -4.43748616658395
 Beta HF Exchange     Energy =  -4.24207623446576
 DFT Correlation      Energy =  -1.86703803956885
 DFT Exchange         Energy = -34.39642641602009
 One-Electron (alpha) Energy = -511.59073911187863
 One-Electron (beta)  Energy = -485.92931806584323
 Total Coulomb        Energy = 379.49376053038429
 Nuclear repulsion Energy = 145.71626234682140
 SCF   energy in the final basis set =     -517.2530611572
 Total energy in the final basis set =     -517.2530611572
 
 --------------------------------------------------------------
 
                    Orbital Energies (a.u.)
 --------------------------------------------------------------
 
 Alpha MOs
 -- Occupied --
-88.911 -10.193 -10.181 -10.181  -7.971  -5.941  -5.939  -5.922
 -0.795  -0.710  -0.688  -0.600  -0.474  -0.445  -0.406  -0.387
 -0.369  -0.347  -0.344  -0.317  -0.276  -0.270
 -- Virtual --
  0.093   0.138   0.142   0.150   0.173   0.184   0.189   0.211
  0.222   0.256   0.299   0.336   0.360   0.361   0.500   0.512
  0.538   0.560   0.581   0.661   0.672   0.676   0.725   0.739
  0.740   0.755   0.761   0.852   0.860   0.860   0.874   0.887
  0.895   0.932   0.951   0.997   1.280   1.290   1.331   1.363
  1.528   1.597   1.674   1.681   1.825   1.842   1.910   2.043
  2.045   2.070   2.078   2.097   2.105   2.117   2.248   2.256
  2.285   2.304   2.411   2.440   2.506   2.647   2.692   2.711
  2.729   2.815   2.864   2.901   2.909   2.914   3.153   3.215
  3.326   3.350   3.420   3.476   3.496   3.598   3.851   4.328
  4.485   4.659
 
 Beta MOs
 -- Occupied --
-88.900 -10.190 -10.181 -10.181  -7.961  -5.920  -5.920  -5.916
 -0.790  -0.687  -0.632  -0.587  -0.464  -0.443  -0.404  -0.386
 -0.349  -0.346  -0.340  -0.244
 -- Virtual --
 -0.163  -0.149   0.095   0.139   0.142   0.151   0.174   0.185
  0.190   0.215   0.242   0.257   0.328   0.369   0.375   0.398
  0.500   0.513   0.549   0.568   0.583   0.669   0.684   0.685
  0.756   0.800   0.805   0.806   0.812   0.861   0.862   0.872
  0.888   0.893   0.901   0.945   0.952   0.999   1.286   1.293
  1.340   1.363   1.528   1.601   1.675   1.685   1.828   1.846
  1.914   2.043   2.046   2.071   2.078   2.098   2.105   2.122
  2.250   2.257   2.286   2.304   2.413   2.441   2.507   2.648
  2.693   2.712   2.730   2.817   2.864   2.902   2.911   2.915
  3.154   3.216   3.328   3.353   3.420   3.477   3.497   3.602
  3.885   4.330   4.485   4.663
 --------------------------------------------------------------
 
          Ground-State Mulliken Net Atomic Charges

     Atom                 Charge (a.u.)    Spin (a.u.)
  --------------------------------------------------------
      1 S                    -0.046063       1.863013
      2 C                    -0.138472       0.147100
      3 C                    -0.311495      -0.001768
      4 C                    -0.311201      -0.001730
      5 H                     0.108811       0.000632
      6 H                     0.109498       0.008124
      7 H                     0.112385       0.000854
      8 H                     0.108073       0.000993
      9 H                     0.109407       0.008160
     10 H                     0.112131       0.000852
     11 H                     0.108258       0.001002
     12 H                     0.038668      -0.027231
  --------------------------------------------------------
  Sum of atomic charges =    -0.000000
  Sum of spin   charges =     2.000000

 -----------------------------------------------------------------
                    Cartesian Multipole Moments
 -----------------------------------------------------------------
    Charge (ESU x 10^10)
                -0.0000
    Dipole Moment (Debye)
         X      -1.1449      Y       0.0036      Z      -0.4823
       Tot       1.2424
    Quadrupole Moments (Debye-Ang)
        XX     -36.3974     XY       0.0382     YY     -35.9323
        XZ      -1.2393     YZ      -0.0723     ZZ     -33.5623
    Octopole Moments (Debye-Ang^2)
       XXX     -65.2540    XXY       0.2520    XYY     -24.8869
       YYY       0.3104    XXZ     -17.5841    XYZ      -0.1673
       YYZ     -16.3557    XZZ     -20.1212    YZZ      -0.0704
       ZZZ     -39.1269
    Hexadecapole Moments (Debye-Ang^3)
      XXXX    -642.9996   XXXY       1.4645   XXYY    -159.5348
      XYYY       1.0098   YYYY    -218.7135   XXXZ     -98.4375
      XXYZ      -0.2766   XYYZ     -37.1045   YYYZ       0.3041
      XXZZ    -130.4968   XYZZ      -0.0975   YYZZ     -63.1997
      XZZZ     -92.1402   YZZZ       0.0020   ZZZZ    -136.1173
 -----------------------------------------------------------------
 Calculating analytic gradient of the SCF energy
 Gradient of SCF Energy
            1           2           3           4           5           6
    1  -0.0128235   0.0378405   0.0009441   0.0009631   0.0006347  -0.0000724
    2   0.0000522  -0.0000442   0.0001789  -0.0001656   0.0000106   0.0001437
    3  -0.0060488   0.0170306   0.0004793   0.0004685   0.0004363  -0.0001476
            7           8           9          10          11          12
    1  -0.0000733  -0.0000360  -0.0000699  -0.0000728  -0.0000518  -0.0271826
    2   0.0000030  -0.0000170  -0.0001456  -0.0000038   0.0000126  -0.0000248
    3  -0.0000252  -0.0000509  -0.0001362  -0.0000334  -0.0000394  -0.0119331
 Max gradient component =       3.784E-02
 RMS gradient           =       8.831E-03
 Gradient time:  CPU 8.02 s  wall 0.67 s
 Geometry Optimization Parameters
   NAtoms,    NIC,     NZ,  NCons,   NDum,   NFix, NCnnct, MaxDiis
       12      75       0       1       0       0       0       0

 Cartesian Hessian Update
 Hessian Updated using BFGS Update


** CONSTRAINED OPTIMIZATION IN DELOCALIZED INTERNAL COORDINATES **
   Searching for a Minimum

   Optimization Cycle:   2

                       Coordinates (Angstroms)
     ATOM                X               Y               Z
      1  S         2.5965259279   -0.0081102447    1.0075016632
      2  C        -0.1251885805    0.0005947608   -0.2584652646
      3  C        -0.8379569244   -1.2807346265    0.1666548175
      4  C        -0.8375546100    1.2824767943    0.1657160158
      5  H         0.0513630293    0.0001339694   -1.3416901858
      6  H        -1.8311437532   -1.3426358274   -0.2946361152
      7  H        -0.2755875684   -2.1714041283   -0.1290870932
      8  H        -0.9771186620   -1.3147632945    1.2527599151
      9  H        -1.8307758953    1.3443175055   -0.2955221985
     10  H        -0.2749786201    2.1727741063   -0.1307775120
     11  H        -0.9765671285    1.3173932913    1.2518084964
     12  H         0.8488797853    0.0007576939    0.1681464613
   Point Group: c1    Number of degrees of freedom:    30


   Energy is   -517.253061157

              Constraints and their Current Values
                                        Value     Constraint
   Distance(Angs):        1   2             3.001746     3.000000
 Hessian Updated using BFGS Update

   Using Lagrange Multiplier Algorithm


 27 Hessian modes will be used to form the next step
  Hessian Eigenvalues:
    -0.953927    0.045000    0.045000    0.066627    0.077796    0.082315
     0.082321    0.083142    0.083143    0.106111    0.133958    0.160000
     0.160014    0.199833    0.200000    0.218868    0.296002    0.297339
     0.310808    0.339722    0.340339    0.340381    0.341850    0.341854
     0.343449    0.343456    1.062651

 Minimum Search - Taking P-RFO Step
 Searching for Lamda that Maximizes Along the Constraint modes Only
 Value Taken    Lamda =   0.00015462
 Searching for Lamda that Minimizes Along All other modes
 Value Taken    Lamda =  -0.00150267
 Step Taken.  Stepsize is  0.068201

                             Maximum     Tolerance    Cnvgd?
         Gradient            0.016521       0.000300      NO
         Displacement        0.051266       0.001200      NO
         Energy change      0.003504       0.000001      NO


 New Cartesian Coordinates Obtained by Inverse Iteration

 Displacement from previous Coordinates is:  0.047195
 ----------------------------------------------------------------
             Standard Nuclear Orientation (Angstroms)
    I     Atom           X                Y                Z
 ----------------------------------------------------------------
    1      S       2.5948996129    -0.0081931505     1.0050862892
    2      C      -0.1258156457     0.0006168812    -0.2588906815
    3      C      -0.8400632183    -1.2807203468     0.1658408239
    4      C      -0.8397045024     1.2824834702     0.1648903173
    5      H       0.0484543431     0.0001136454    -1.3428118797
    6      H      -1.8335611061    -1.3426759314    -0.2944869252
    7      H      -0.2780392996    -2.1715494543    -0.1301948054
    8      H      -0.9784791084    -1.3148415053     1.2520929963
    9      H      -1.8332368019     1.3443542209    -0.2954051141
   10      H      -0.2775022632     2.1729637237    -0.1318734629
   11      H      -0.9779346605     1.3174931274     1.2511219588
   12      H       0.8708796502     0.0007553196     0.1770394835
 ----------------------------------------------------------------
 Nuclear Repulsion Energy =   145.6671879647 hartrees
 There are       22 alpha and       20 beta electrons

                       Distance Matrix (Angstroms)
             S (  1)   C (  2)   C (  3)   C (  4)   H (  5)   H (  6)
   C (  2)  3.000001
   C (  3)  3.758009  1.527210
   C (  4)  3.764078  1.527223  2.563204
   H (  5)  3.463680  1.097841  2.169339  2.169439
   H (  6)  4.804269  2.173039  1.096712  2.844335  2.538514
   H (  7)  3.771306  2.181293  1.094114  3.511821  2.508617  1.770218
   H (  8)  3.812791  2.177278  1.095567  2.819107  3.085001  1.767441
   H (  9)  4.809268  2.173074  2.844320  1.096725  2.538662  2.687030
   H ( 10)  3.781642  2.181337  3.511843  1.094118  2.508764  3.848049
   H ( 11)  3.818785  2.177248  2.819141  1.095551  3.085037  3.193353
   H ( 12)  1.912586  1.087859  2.137669  2.137539  1.728101  3.056329
             H (  7)   H (  8)   H (  9)   H ( 10)   H ( 11)
   H (  8)  1.770673
   H (  9)  3.848053  3.193225
   H ( 10)  4.344514  3.817266  1.770211
   H ( 11)  3.817238  2.632335  1.767487  1.770625
   H ( 12)  2.476553  2.511307  3.056257  2.476428  2.511089
 
 Applying Cartesian multipole field
    Component          Value
    ---------          -----
     (2,0,0)        1.00000E-11
     (0,2,0)        2.00000E-11
     (0,0,2)       -3.00000E-11
 Nucleus-field energy     =     0.0000000047 hartrees
 Requested basis set is 6-31G(d,p)
 There are 41 shells and 104 basis functions
 A cutoff of  1.0D-14 yielded    830 shell pairs
 There are      5416 function pairs
 Smallest overlap matrix eigenvalue = 4.86E-03
 Guess from superposition of atomic densities
 Warning:  Energy on first SCF cycle will be non-variational
 SAD guess density has 42.000000 electrons

 -----------------------------------------------------------------------
  General SCF calculation program by
  Eric Jon Sundstrom, Paul Horn, Yuezhi Mao, Dmitri Zuev, Alec White,
  David Stuck, Shaama M.S., Shane Yost, Joonho Lee, David Small,
  Daniel Levine, Susi Lehtola, Hugh Burton, Evgeny Epifanovsky
 -----------------------------------------------------------------------
 Exchange:     0.2000 Hartree-Fock + 0.0800 Slater + 0.7200 B88
 Correlation:  0.1900 VWN1RPA + 0.8100 LYP
 Using SG-1 standard quadrature grid
 using 12 threads for integral computing
 -------------------------------------------------------
 OpenMP Integral computing Module                
 Release: version 1.0, May 2013, Q-Chem Inc. Pittsburgh 
 -------------------------------------------------------
 -------------------------------------------------------
 OpenMP BLAS3 based DFT computing Module                
 Release: version 1.0, May 2013, Q-Chem Inc. Pittsburgh 
 -------------------------------------------------------
 A unrestricted SCF calculation will be
 performed using DIIS
 SCF converges when DIIS error is below 1.0e-06
 Alpha HF Exchange    Energy =  -4.33353877190310
 Beta HF Exchange     Energy =  -4.33353877190310
 DFT Correlation      Energy =  -1.86361171862595
 DFT Exchange         Energy = -33.96572640609702
 One-Electron (alpha) Energy = -496.97232170794160
 One-Electron (beta)  Energy = -496.97232170794160
 Total Coulomb        Energy = 375.26944393478493
 ---------------------------------------
  Cycle       Energy         DIIS error
 ---------------------------------------
    1    -517.5044271802      2.86e-02  
 Alpha HF Exchange    Energy =  -4.45954824548330
 Beta HF Exchange     Energy =  -4.27181225833802
 DFT Correlation      Energy =  -1.88052257230218
 DFT Exchange         Energy = -34.61978304060527
 One-Electron (alpha) Energy = -512.83734283312515
 One-Electron (beta)  Energy = -487.65242367617128
 Total Coulomb        Energy = 382.89899194280440
    2    -517.1552527138      4.06e-03  
 Alpha HF Exchange    Energy =  -4.40969554875504
 Beta HF Exchange     Energy =  -4.20916729075455
 DFT Correlation      Energy =  -1.85442036022467
 DFT Exchange         Energy = -34.15526127996665
 One-Electron (alpha) Energy = -509.74181387362916
 One-Electron (beta)  Energy = -484.26771720803180
 Total Coulomb        Energy = 375.85794921894171
    3    -517.1129383730      4.81e-03  
 Alpha HF Exchange    Energy =  -4.43430423359000
 Beta HF Exchange     Energy =  -4.24086065285461
 DFT Correlation      Energy =  -1.86686731985183
 DFT Exchange         Energy = -34.38103066792898
 One-Electron (alpha) Energy = -511.43847588197735
 One-Electron (beta)  Energy = -485.91802658119394
 Total Coulomb        Energy = 379.35989507643603
    4    -517.2524822916      4.89e-04  
 Alpha HF Exchange    Energy =  -4.43676563884643
 Beta HF Exchange     Energy =  -4.24106184286029
 DFT Correlation      Energy =  -1.86728720243061
 DFT Exchange         Energy = -34.39202220340833
 One-Electron (alpha) Energy = -511.54655222594567
 One-Electron (beta)  Energy = -485.92470015360902
 Total Coulomb        Energy = 379.48740202264423
    5    -517.2537992750      1.93e-04  
 Alpha HF Exchange    Energy =  -4.43669686487236
 Beta HF Exchange     Energy =  -4.24095264093338
 DFT Correlation      Energy =  -1.86707053492390
 DFT Exchange         Energy = -34.39069241012858
 One-Electron (alpha) Energy = -511.55081960953129
 One-Electron (beta)  Energy = -485.90381395490476
 Total Coulomb        Energy = 379.46885361622299
    6    -517.2540044297      4.98e-05  
 Alpha HF Exchange    Energy =  -4.43652900698166
 Beta HF Exchange     Energy =  -4.24081517507270
 DFT Correlation      Energy =  -1.86698416231743
 DFT Exchange         Energy = -34.38926986437003
 One-Electron (alpha) Energy = -511.54077282481262
 One-Electron (beta)  Energy = -485.88771607527764
 Total Coulomb        Energy = 379.44088012372896
    7    -517.2540190157      8.33e-06  
 Alpha HF Exchange    Energy =  -4.43662969204993
 Beta HF Exchange     Energy =  -4.24085183853948
 DFT Correlation      Energy =  -1.86699893053608
 DFT Exchange         Energy = -34.38978344392244
 One-Electron (alpha) Energy = -511.54813638072426
 One-Electron (beta)  Energy = -485.88951199854660
 Total Coulomb        Energy = 379.45070469344273
    8    -517.2540196215      2.37e-06  
 Alpha HF Exchange    Energy =  -4.43661573407181
 Beta HF Exchange     Energy =  -4.24084516383231
 DFT Correlation      Energy =  -1.86699085603433
 DFT Exchange         Energy = -34.38968327490412
 One-Electron (alpha) Energy = -511.54707529742609
 One-Electron (beta)  Energy = -485.88800448086465
 Total Coulomb        Energy = 379.44800716933770
    9    -517.2540196684      5.89e-07  Convergence criterion met
 ---------------------------------------
 SCF time:   CPU 21.60s  wall 1.00s 
<S^2> =          2.003427979
 Alpha HF Exchange    Energy =  -4.43661573407181
 Beta HF Exchange     Energy =  -4.24084516383231
 DFT Correlation      Energy =  -1.86699085603433
 DFT Exchange         Energy = -34.38968327490412
 One-Electron (alpha) Energy = -511.54707529742609
 One-Electron (beta)  Energy = -485.88800448086465
 Total Coulomb        Energy = 379.44800716933770
 Nuclear repulsion Energy = 145.66718796940856
 SCF   energy in the final basis set =     -517.2540196684
 Total energy in the final basis set =     -517.2540196684
 
 --------------------------------------------------------------
 
                    Orbital Energies (a.u.)
 --------------------------------------------------------------
 
 Alpha MOs
 -- Occupied --
-88.909 -10.197 -10.181 -10.181  -7.969  -5.939  -5.937  -5.920
 -0.795  -0.709  -0.688  -0.599  -0.474  -0.446  -0.407  -0.388
 -0.370  -0.348  -0.344  -0.316  -0.272  -0.268
 -- Virtual --
  0.093   0.138   0.141   0.149   0.172   0.184   0.189   0.210
  0.218   0.255   0.298   0.336   0.361   0.361   0.499   0.511
  0.539   0.559   0.580   0.659   0.673   0.675   0.726   0.740
  0.741   0.755   0.762   0.851   0.858   0.859   0.874   0.887
  0.894   0.931   0.951   0.994   1.277   1.290   1.328   1.362
  1.527   1.595   1.670   1.681   1.824   1.842   1.905   2.042
  2.044   2.066   2.076   2.094   2.102   2.104   2.243   2.250
  2.282   2.303   2.409   2.436   2.502   2.641   2.683   2.710
  2.728   2.800   2.861   2.898   2.898   2.906   3.149   3.214
  3.317   3.330   3.419   3.474   3.493   3.573   3.854   4.326
  4.483   4.656
 
 Beta MOs
 -- Occupied --
-88.899 -10.193 -10.181 -10.181  -7.959  -5.919  -5.918  -5.915
 -0.790  -0.688  -0.632  -0.586  -0.464  -0.443  -0.405  -0.387
 -0.349  -0.347  -0.341  -0.243
 -- Virtual --
 -0.162  -0.147   0.094   0.139   0.142   0.150   0.173   0.184
  0.189   0.214   0.238   0.257   0.327   0.370   0.375   0.397
  0.500   0.512   0.551   0.567   0.582   0.667   0.683   0.685
  0.756   0.802   0.806   0.807   0.813   0.860   0.861   0.871
  0.888   0.893   0.901   0.944   0.951   0.996   1.284   1.293
  1.338   1.363   1.527   1.600   1.672   1.685   1.827   1.846
  1.909   2.043   2.045   2.068   2.077   2.097   2.105   2.106
  2.245   2.250   2.282   2.304   2.410   2.437   2.503   2.643
  2.684   2.710   2.729   2.803   2.862   2.899   2.899   2.908
  3.150   3.215   3.320   3.332   3.419   3.475   3.494   3.577
  3.887   4.328   4.484   4.661
 --------------------------------------------------------------
 
          Ground-State Mulliken Net Atomic Charges

     Atom                 Charge (a.u.)    Spin (a.u.)
  --------------------------------------------------------
      1 S                    -0.050270       1.849209
      2 C                    -0.138204       0.164607
      3 C                    -0.311065      -0.002443
      4 C                    -0.310738      -0.002407
      5 H                     0.110284       0.000340
      6 H                     0.110193       0.009102
      7 H                     0.113215       0.000956
      8 H                     0.108849       0.001130
      9 H                     0.110090       0.009139
     10 H                     0.112943       0.000954
     11 H                     0.109055       0.001140
     12 H                     0.035647      -0.031728
  --------------------------------------------------------
  Sum of atomic charges =    -0.000000
  Sum of spin   charges =     2.000000

 -----------------------------------------------------------------
                    Cartesian Multipole Moments
 -----------------------------------------------------------------
    Charge (ESU x 10^10)
                -0.0000
    Dipole Moment (Debye)
         X      -1.2499      Y       0.0039      Z      -0.5194
       Tot       1.3536
    Quadrupole Moments (Debye-Ang)
        XX     -36.6241     XY       0.0427     YY     -35.9053
        XZ      -1.3311     YZ      -0.0796     ZZ     -33.6032
    Octopole Moments (Debye-Ang^2)
       XXX     -66.1221    XXY       0.2740    XYY     -24.9672
       YYY       0.3140    XXZ     -17.8540    XYZ      -0.1833
       YYZ     -16.3291    XZZ     -20.2721    YZZ      -0.0845
       ZZZ     -39.1354
    Hexadecapole Moments (Debye-Ang^3)
      XXXX    -645.8394   XXXY       1.5592   XXYY    -159.5483
      XYYY       1.0263   YYYY    -218.4582   XXXZ     -99.2375
      XXYZ      -0.3104   XYYZ     -37.0649   YYYZ       0.2993
      XXZZ    -130.9326   XYZZ      -0.1283   YYZZ     -63.1269
      XZZZ     -92.2199   YZZZ      -0.0263   ZZZZ    -135.9085
 -----------------------------------------------------------------
 Calculating analytic gradient of the SCF energy
 Gradient of SCF Energy
            1           2           3           4           5           6
    1  -0.0127891   0.0264506  -0.0002147  -0.0001986  -0.0001425  -0.0000502
    2   0.0000520  -0.0000437   0.0000275  -0.0000136   0.0000080  -0.0001218
    3  -0.0059888   0.0116763  -0.0000463  -0.0000495  -0.0000431   0.0000545
            7           8           9          10          11          12
    1  -0.0000188   0.0000000  -0.0000511  -0.0000192  -0.0000116  -0.0129548
    2  -0.0000051   0.0000124   0.0001208   0.0000035  -0.0000160  -0.0000238
    3  -0.0000237  -0.0000032   0.0000619  -0.0000293   0.0000027  -0.0056115
 Max gradient component =       2.645E-02
 RMS gradient           =       5.857E-03
 Gradient time:  CPU 8.07 s  wall 0.67 s
 Geometry Optimization Parameters
   NAtoms,    NIC,     NZ,  NCons,   NDum,   NFix, NCnnct, MaxDiis
       12      75       0       1       0       0       0       0

 Cartesian Hessian Update
 Hessian Updated using BFGS Update


** CONSTRAINED OPTIMIZATION IN DELOCALIZED INTERNAL COORDINATES **
   Searching for a Minimum

   Optimization Cycle:   3

                       Coordinates (Angstroms)
     ATOM                X               Y               Z
      1  S         2.5948996129   -0.0081931505    1.0050862892
      2  C        -0.1258156457    0.0006168812   -0.2588906815
      3  C        -0.8400632183   -1.2807203468    0.1658408239
      4  C        -0.8397045024    1.2824834702    0.1648903173
      5  H         0.0484543431    0.0001136454   -1.3428118797
      6  H        -1.8335611061   -1.3426759314   -0.2944869252
      7  H        -0.2780392996   -2.1715494543   -0.1301948054
      8  H        -0.9784791084   -1.3148415053    1.2520929963
      9  H        -1.8332368019    1.3443542209   -0.2954051141
     10  H        -0.2775022632    2.1729637237   -0.1318734629
     11  H        -0.9779346605    1.3174931274    1.2511219588
     12  H         0.8708796502    0.0007553196    0.1770394835
   Point Group: c1    Number of degrees of freedom:    30


   Energy is   -517.254019668

              Constraints and their Current Values
                                        Value     Constraint
   Distance(Angs):        1   2             3.000001     3.000000
 Hessian Updated using BFGS Update

   Using Lagrange Multiplier Algorithm


 28 Hessian modes will be used to form the next step
  Hessian Eigenvalues:
    -0.934192    0.045000    0.045000    0.066874    0.077879    0.082315
     0.082355    0.083142    0.083143    0.106110    0.133958    0.154796
     0.160000    0.160000    0.170208    0.199970    0.200001    0.219659
     0.297339    0.299158    0.339734    0.340339    0.340352    0.341850
     0.341854    0.343449    0.343457    1.086659

 Minimum Search - Taking P-RFO Step
 Searching for Lamda that Maximizes Along the Constraint modes Only
 Value Taken    Lamda =   0.00000121
 Searching for Lamda that Minimizes Along All other modes
 Value Taken    Lamda =  -0.00060818
 Step Taken.  Stepsize is  0.061309

                             Maximum     Tolerance    Cnvgd?
         Gradient            0.008247       0.000300      NO
         Displacement        0.054054       0.001200      NO
         Energy change     -0.000959       0.000001      NO


 New Cartesian Coordinates Obtained by Inverse Iteration

 Displacement from previous Coordinates is:  0.037269
 ----------------------------------------------------------------
             Standard Nuclear Orientation (Angstroms)
    I     Atom           X                Y                Z
 ----------------------------------------------------------------
    1      S       2.5913041362    -0.0083780839     1.0025838818
    2      C      -0.1300173796     0.0006655698    -0.2600880888
    3      C      -0.8410760535    -1.2808954342     0.1656899802
    4      C      -0.8408058220     1.2826960967     0.1647123288
    5      H       0.0456803474     0.0000884355    -1.3435480244
    6      H      -1.8344159534    -1.3417772631    -0.2950553827
    7      H      -0.2785091633    -2.1712173310    -0.1307633833
    8      H      -0.9790480444    -1.3153772922     1.2519848193
    9      H      -1.8341727759     1.3434351865    -0.2960312236
   10      H      -0.2781172605     2.1727175262    -0.1324315900
   11      H      -0.9785242016     1.3180703975     1.2509822958
   12      H       0.8875991706     0.0007721923     0.1843733868
 ----------------------------------------------------------------
 Nuclear Repulsion Energy =   145.6850944244 hartrees
 There are       22 alpha and       20 beta electrons

                       Distance Matrix (Angstroms)
             S (  1)   C (  2)   C (  3)   C (  4)   H (  5)   H (  6)
   C (  2)  3.000002
   C (  3)  3.755120  1.526201
   C (  4)  3.761420  1.526197  2.563592
   H (  5)  3.461879  1.097614  2.169114  2.169283
   H (  6)  4.800919  2.169873  1.096685  2.843679  2.536672
   H (  7)  3.768047  2.180791  1.094093  3.511837  2.508090  1.770821
   H (  8)  3.810231  2.176967  1.095565  2.819797  3.085014  1.767961
   H (  9)  4.806105  2.169900  2.843684  1.096700  2.536872  2.685213
   H ( 10)  3.778759  2.180835  3.511872  1.094098  2.508379  3.847101
   H ( 11)  3.816391  2.176891  2.819818  1.095536  3.085070  3.193364
   H ( 12)  1.890017  1.110446  2.152055  2.151999  1.744526  3.072728
             H (  7)   H (  8)   H (  9)   H ( 10)   H ( 11)
   H (  8)  1.770652
   H (  9)  3.847101  3.193255
   H ( 10)  4.343935  3.817685  1.770814
   H ( 11)  3.817639  2.633448  1.768058  1.770544
   H ( 12)  2.485288  2.521193  3.072715  2.485278  2.520981
 
 Applying Cartesian multipole field
    Component          Value
    ---------          -----
     (2,0,0)        1.00000E-11
     (0,2,0)        2.00000E-11
     (0,0,2)       -3.00000E-11
 Nucleus-field energy     =     0.0000000047 hartrees
 Requested basis set is 6-31G(d,p)
 There are 41 shells and 104 basis functions
 A cutoff of  1.0D-14 yielded    830 shell pairs
 There are      5416 function pairs
 Smallest overlap matrix eigenvalue = 4.93E-03
 Guess from superposition of atomic densities
 Warning:  Energy on first SCF cycle will be non-variational
 SAD guess density has 42.000000 electrons

 -----------------------------------------------------------------------
  General SCF calculation program by
  Eric Jon Sundstrom, Paul Horn, Yuezhi Mao, Dmitri Zuev, Alec White,
  David Stuck, Shaama M.S., Shane Yost, Joonho Lee, David Small,
  Daniel Levine, Susi Lehtola, Hugh Burton, Evgeny Epifanovsky
 -----------------------------------------------------------------------
 Exchange:     0.2000 Hartree-Fock + 0.0800 Slater + 0.7200 B88
 Correlation:  0.1900 VWN1RPA + 0.8100 LYP
 Using SG-1 standard quadrature grid
 using 12 threads for integral computing
 -------------------------------------------------------
 OpenMP Integral computing Module                
 Release: version 1.0, May 2013, Q-Chem Inc. Pittsburgh 
 -------------------------------------------------------
 -------------------------------------------------------
 OpenMP BLAS3 based DFT computing Module                
 Release: version 1.0, May 2013, Q-Chem Inc. Pittsburgh 
 -------------------------------------------------------
 A unrestricted SCF calculation will be
 performed using DIIS
 SCF converges when DIIS error is below 1.0e-06
 Alpha HF Exchange    Energy =  -4.33279345728816
 Beta HF Exchange     Energy =  -4.33279345728816
 DFT Correlation      Energy =  -1.86356358341458
 DFT Exchange         Energy = -33.96421341794873
 One-Electron (alpha) Energy = -496.99967361465247
 One-Electron (beta)  Energy = -496.99967361465247
 Total Coulomb        Energy = 375.30646883796192
 ---------------------------------------
  Cycle       Energy         DIIS error
 ---------------------------------------
    1    -517.5011478781      2.85e-02  
 Alpha HF Exchange    Energy =  -4.45882888416884
 Beta HF Exchange     Energy =  -4.27046566209880
 DFT Correlation      Energy =  -1.88058775400325
 DFT Exchange         Energy = -34.61347115543965
 One-Electron (alpha) Energy = -512.85455092040843
 One-Electron (beta)  Energy = -487.66727231277514
 Total Coulomb        Energy = 382.90331615610694
    2    -517.1567661036      4.03e-03  
 Alpha HF Exchange    Energy =  -4.40914472102397
 Beta HF Exchange     Energy =  -4.20884716380558
 DFT Correlation      Energy =  -1.85449210605294
 DFT Exchange         Energy = -34.15243972201570
 One-Electron (alpha) Energy = -509.77380503706877
 One-Electron (beta)  Energy = -484.31261530561216
 Total Coulomb        Energy = 375.91091001673874
    3    -517.1153396097      4.77e-03  
 Alpha HF Exchange    Energy =  -4.43361347407577
 Beta HF Exchange     Energy =  -4.23989873436434
 DFT Correlation      Energy =  -1.86692709304399
 DFT Exchange         Energy = -34.37594436783897
 One-Electron (alpha) Energy = -511.45745696355982
 One-Electron (beta)  Energy = -485.94084253813162
 Total Coulomb        Energy = 379.37683967486294
    4    -517.2527490670      5.00e-04  
 Alpha HF Exchange    Energy =  -4.43608424028772
 Beta HF Exchange     Energy =  -4.24008817011487
 DFT Correlation      Energy =  -1.86734653635417
 DFT Exchange         Energy = -34.38690170023823
 One-Electron (alpha) Energy = -511.56654025567872
 One-Electron (beta)  Energy = -485.94906282301389
 Total Coulomb        Energy = 379.50678655407671
    5    -517.2541427425      1.95e-04  
 Alpha HF Exchange    Energy =  -4.43604720660834
 Beta HF Exchange     Energy =  -4.23999136025963
 DFT Correlation      Energy =  -1.86713758560588
 DFT Exchange         Energy = -34.38575313626560
 One-Electron (alpha) Energy = -511.57236512803803
 One-Electron (beta)  Energy = -485.92843198667634
 Total Coulomb        Energy = 379.49027868843370
    6    -517.2543532859      4.97e-05  
 Alpha HF Exchange    Energy =  -4.43587371749660
 Beta HF Exchange     Energy =  -4.23985005361776
 DFT Correlation      Energy =  -1.86704678344549
 DFT Exchange         Energy = -34.38427956955999
 One-Electron (alpha) Energy = -511.56191678458850
 One-Electron (beta)  Energy = -485.91165463773888
 Total Coulomb        Energy = 379.46115909190780
    7    -517.2543680254      8.76e-06  
 Alpha HF Exchange    Energy =  -4.43597949182591
 Beta HF Exchange     Energy =  -4.23988703407549
 DFT Correlation      Energy =  -1.86706241371405
 DFT Exchange         Energy = -34.38481458579243
 One-Electron (alpha) Energy = -511.56963058205037
 One-Electron (beta)  Energy = -485.91356543720917
 Total Coulomb        Energy = 379.47147641860329
    8    -517.2543686969      2.52e-06  
 Alpha HF Exchange    Energy =  -4.43596495063342
 Beta HF Exchange     Energy =  -4.23987988533694
 DFT Correlation      Energy =  -1.86705394561089
 DFT Exchange         Energy = -34.38470927236410
 One-Electron (alpha) Energy = -511.56851432864875
 One-Electron (beta)  Energy = -485.91197729193749
 Total Coulomb        Energy = 379.46863649470038
    9    -517.2543687507      6.27e-07  Convergence criterion met
 ---------------------------------------
 SCF time:   CPU 21.33s  wall 2.00s 
<S^2> =          2.003641705
 Alpha HF Exchange    Energy =  -4.43596495063342
 Beta HF Exchange     Energy =  -4.23987988533694
 DFT Correlation      Energy =  -1.86705394561089
 DFT Exchange         Energy = -34.38470927236410
 One-Electron (alpha) Energy = -511.56851432864875
 One-Electron (beta)  Energy = -485.91197729193749
 Total Coulomb        Energy = 379.46863649470038
 Nuclear repulsion Energy = 145.68509442914674
 SCF   energy in the final basis set =     -517.2543687507
 Total energy in the final basis set =     -517.2543687507
 
 --------------------------------------------------------------
 
                    Orbital Energies (a.u.)
 --------------------------------------------------------------
 
 Alpha MOs
 -- Occupied --
-88.907 -10.200 -10.182 -10.182  -7.968  -5.937  -5.936  -5.918
 -0.796  -0.708  -0.689  -0.598  -0.474  -0.447  -0.407  -0.389
 -0.371  -0.349  -0.345  -0.315  -0.269  -0.267
 -- Virtual --
  0.092   0.137   0.140   0.148   0.171   0.183   0.188   0.210
  0.213   0.254   0.298   0.337   0.361   0.362   0.498   0.510
  0.541   0.558   0.580   0.658   0.673   0.675   0.727   0.741
  0.742   0.755   0.763   0.851   0.855   0.859   0.874   0.886
  0.893   0.930   0.950   0.993   1.275   1.289   1.327   1.362
  1.526   1.593   1.668   1.681   1.825   1.842   1.900   2.041
  2.043   2.061   2.074   2.085   2.098   2.103   2.240   2.244
  2.279   2.302   2.406   2.434   2.500   2.635   2.678   2.708
  2.726   2.787   2.858   2.889   2.895   2.904   3.145   3.213
  3.295   3.326   3.418   3.472   3.491   3.558   3.857   4.324
  4.483   4.654
 
 Beta MOs
 -- Occupied --
-88.897 -10.196 -10.182 -10.182  -7.958  -5.917  -5.916  -5.913
 -0.790  -0.689  -0.632  -0.585  -0.463  -0.444  -0.406  -0.388
 -0.349  -0.348  -0.341  -0.242
 -- Virtual --
 -0.161  -0.145   0.094   0.138   0.141   0.149   0.173   0.184
  0.189   0.214   0.233   0.257   0.326   0.370   0.376   0.397
  0.499   0.511   0.552   0.567   0.582   0.667   0.682   0.685
  0.755   0.803   0.807   0.808   0.813   0.859   0.860   0.869
  0.887   0.892   0.901   0.942   0.950   0.995   1.282   1.292
  1.336   1.362   1.526   1.598   1.670   1.686   1.829   1.847
  1.904   2.042   2.044   2.064   2.075   2.089   2.099   2.104
  2.243   2.245   2.279   2.303   2.407   2.435   2.501   2.637
  2.679   2.708   2.728   2.789   2.859   2.890   2.896   2.905
  3.146   3.214   3.300   3.328   3.418   3.473   3.492   3.562
  3.890   4.326   4.483   4.659
 --------------------------------------------------------------
 
          Ground-State Mulliken Net Atomic Charges

     Atom                 Charge (a.u.)    Spin (a.u.)
  --------------------------------------------------------
      1 S                    -0.055026       1.834991
      2 C                    -0.137800       0.182372
      3 C                    -0.310655      -0.003139
      4 C                    -0.310231      -0.003109
      5 H                     0.111661      -0.000035
      6 H                     0.110778       0.010146
      7 H                     0.114232       0.001075
      8 H                     0.109657       0.001272
      9 H                     0.110640       0.010178
     10 H                     0.113908       0.001074
     11 H                     0.109913       0.001283
     12 H                     0.032923      -0.036108
  --------------------------------------------------------
  Sum of atomic charges =    -0.000000
  Sum of spin   charges =     2.000000

 -----------------------------------------------------------------
                    Cartesian Multipole Moments
 -----------------------------------------------------------------
    Charge (ESU x 10^10)
                 0.0000
    Dipole Moment (Debye)
         X      -1.3556      Y       0.0044      Z      -0.5576
       Tot       1.4658
    Quadrupole Moments (Debye-Ang)
        XX     -36.8684     XY       0.0540     YY     -35.8697
        XZ      -1.4289     YZ      -0.0997     ZZ     -33.6372
    Octopole Moments (Debye-Ang^2)
       XXX     -66.8872    XXY       0.3302    XYY     -24.9819
       YYY       0.3214    XXZ     -18.1326    XYZ      -0.2274
       YYZ     -16.2929    XZZ     -20.4037    YZZ      -0.1240
       ZZZ     -39.1478
    Hexadecapole Moments (Debye-Ang^3)
      XXXX    -647.8521   XXXY       1.8026   XXYY    -159.4405
      XYYY       1.0637   YYYY    -218.1468   XXXZ     -99.9588
      XXYZ      -0.4028   XYYZ     -37.0054   YYYZ       0.2848
      XXZZ    -131.2182   XYZZ      -0.2151   YYZZ     -63.0349
      XZZZ     -92.2533   YZZZ      -0.1054   ZZZZ    -135.7211
 -----------------------------------------------------------------
 Calculating analytic gradient of the SCF energy
 Gradient of SCF Energy
            1           2           3           4           5           6
    1  -0.0125764   0.0158167  -0.0004281  -0.0004177  -0.0005292   0.0000836
    2   0.0000522  -0.0000376  -0.0000120   0.0000225   0.0000049   0.0000545
    3  -0.0058340   0.0069824  -0.0002428  -0.0002420  -0.0001007   0.0000240
            7           8           9          10          11          12
    1   0.0000397   0.0000613   0.0000825   0.0000393   0.0000545  -0.0022262
    2  -0.0000494  -0.0000253  -0.0000552   0.0000481   0.0000223  -0.0000251
    3   0.0000436   0.0000434   0.0000286   0.0000407   0.0000463  -0.0007896
 Max gradient component =       1.582E-02
 RMS gradient           =       3.718E-03
 Gradient time:  CPU 8.17 s  wall 0.68 s
 Geometry Optimization Parameters
   NAtoms,    NIC,     NZ,  NCons,   NDum,   NFix, NCnnct, MaxDiis
       12      75       0       1       0       0       0       0

 Cartesian Hessian Update
 Hessian Updated using BFGS Update


** CONSTRAINED OPTIMIZATION IN DELOCALIZED INTERNAL COORDINATES **
   Searching for a Minimum

   Optimization Cycle:   4

                       Coordinates (Angstroms)
     ATOM                X               Y               Z
      1  S         2.5913041362   -0.0083780839    1.0025838818
      2  C        -0.1300173796    0.0006655698   -0.2600880888
      3  C        -0.8410760535   -1.2808954342    0.1656899802
      4  C        -0.8408058220    1.2826960967    0.1647123288
      5  H         0.0456803474    0.0000884355   -1.3435480244
      6  H        -1.8344159534   -1.3417772631   -0.2950553827
      7  H        -0.2785091633   -2.1712173310   -0.1307633833
      8  H        -0.9790480444   -1.3153772922    1.2519848193
      9  H        -1.8341727759    1.3434351865   -0.2960312236
     10  H        -0.2781172605    2.1727175262   -0.1324315900
     11  H        -0.9785242016    1.3180703975    1.2509822958
     12  H         0.8875991706    0.0007721923    0.1843733868
   Point Group: c1    Number of degrees of freedom:    30


   Energy is   -517.254368751

              Constraints and their Current Values
                                        Value     Constraint
   Distance(Angs):        1   2             3.000002     3.000000
 Hessian Updated using BFGS Update

   Using Lagrange Multiplier Algorithm


 29 Hessian modes will be used to form the next step
  Hessian Eigenvalues:
    -0.937142    0.044999    0.045000    0.065109    0.076767    0.082256
     0.082315    0.083143    0.083143    0.106109    0.133958    0.140678
     0.160000    0.160000    0.160028    0.162435    0.199947    0.200010
     0.219765    0.297339    0.299264    0.339733    0.340339    0.340430
     0.341850    0.341866    0.343451    0.343473    1.079662

 Minimum Search - Taking P-RFO Step
 Searching for Lamda that Maximizes Along the Constraint modes Only
 Value Taken    Lamda =   0.00000036
 Searching for Lamda that Minimizes Along All other modes
 Value Taken    Lamda =  -0.00002834
 Step Taken.  Stepsize is  0.016880

                             Maximum     Tolerance    Cnvgd?
         Gradient            0.001583       0.000300      NO
         Displacement        0.015648       0.001200      NO
         Energy change     -0.000349       0.000001      NO


 New Cartesian Coordinates Obtained by Inverse Iteration

 Displacement from previous Coordinates is:  0.010522
 ----------------------------------------------------------------
             Standard Nuclear Orientation (Angstroms)
    I     Atom           X                Y                Z
 ----------------------------------------------------------------
    1      S       2.5894217897    -0.0085321304     1.0012557883
    2      C      -0.1321688865     0.0007003848    -0.2608293949
    3      C      -0.8411856930    -1.2812786845     0.1658174113
    4      C      -0.8409830247     1.2831059824     0.1648173374
    5      H       0.0468074562     0.0000801157    -1.3436857425
    6      H      -1.8346205449    -1.3439351906    -0.2948884018
    7      H      -0.2775076797    -2.1708317299    -0.1304831327
    8      H      -0.9793602800    -1.3153385163     1.2520309440
    9      H      -1.8344399680     1.3455770136    -0.2959062668
   10      H      -0.2772245735     2.1723928255    -0.1321521338
   11      H      -0.9788652297     1.3180664738     1.2510048603
   12      H       0.8900236341     0.0007934557     0.1854277311
 ----------------------------------------------------------------
 Nuclear Repulsion Energy =   145.7013099233 hartrees
 There are       22 alpha and       20 beta electrons

                       Distance Matrix (Angstroms)
             S (  1)   C (  2)   C (  3)   C (  4)   H (  5)   H (  6)
   C (  2)  3.000000
   C (  3)  3.753253  1.525845
   C (  4)  3.759739  1.525830  2.564385
   H (  5)  3.458860  1.097548  2.170026  2.170232
   H (  6)  4.799525  2.169688  1.096854  2.846048  2.538922
   H (  7)  3.765057  2.180290  1.093998  3.512035  2.507967  1.770703
   H (  8)  3.808784  2.176795  1.095496  2.820123  3.085627  1.767837
   H (  9)  4.804872  2.169712  2.846070  1.096871  2.539153  2.689512
   H ( 10)  3.776071  2.180332  3.512077  1.094004  2.508337  3.849224
   H ( 11)  3.815090  2.176693  2.820139  1.095462  3.085695  3.195052
   H ( 12)  1.885104  1.115358  2.154340  2.154329  1.746196  3.076148
             H (  7)   H (  8)   H (  9)   H ( 10)   H ( 11)
   H (  8)  1.770822
   H (  9)  3.849225  3.194956
   H ( 10)  4.343225  3.817490  1.770695
   H ( 11)  3.817437  2.633405  1.767965  1.770677
   H ( 12)  2.485736  2.522785  3.076171  2.485793  2.522580
 
 Applying Cartesian multipole field
    Component          Value
    ---------          -----
     (2,0,0)        1.00000E-11
     (0,2,0)        2.00000E-11
     (0,0,2)       -3.00000E-11
 Nucleus-field energy     =     0.0000000047 hartrees
 Requested basis set is 6-31G(d,p)
 There are 41 shells and 104 basis functions
 A cutoff of  1.0D-14 yielded    830 shell pairs
 There are      5416 function pairs
 Smallest overlap matrix eigenvalue = 4.94E-03
 Guess from superposition of atomic densities
 Warning:  Energy on first SCF cycle will be non-variational
 SAD guess density has 42.000000 electrons

 -----------------------------------------------------------------------
  General SCF calculation program by
  Eric Jon Sundstrom, Paul Horn, Yuezhi Mao, Dmitri Zuev, Alec White,
  David Stuck, Shaama M.S., Shane Yost, Joonho Lee, David Small,
  Daniel Levine, Susi Lehtola, Hugh Burton, Evgeny Epifanovsky
 -----------------------------------------------------------------------
 Exchange:     0.2000 Hartree-Fock + 0.0800 Slater + 0.7200 B88
 Correlation:  0.1900 VWN1RPA + 0.8100 LYP
 Using SG-1 standard quadrature grid
 using 12 threads for integral computing
 -------------------------------------------------------
 OpenMP Integral computing Module                
 Release: version 1.0, May 2013, Q-Chem Inc. Pittsburgh 
 -------------------------------------------------------
 -------------------------------------------------------
 OpenMP BLAS3 based DFT computing Module                
 Release: version 1.0, May 2013, Q-Chem Inc. Pittsburgh 
 -------------------------------------------------------
 A unrestricted SCF calculation will be
 performed using DIIS
 SCF converges when DIIS error is below 1.0e-06
 Alpha HF Exchange    Energy =  -4.33266338577981
 Beta HF Exchange     Energy =  -4.33266338577981
 DFT Correlation      Energy =  -1.86355715572154
 DFT Exchange         Energy = -33.96395344359182
 One-Electron (alpha) Energy = -497.01767404550458
 One-Electron (beta)  Energy = -497.01767404550458
 Total Coulomb        Energy = 375.32618396115436
 ---------------------------------------
  Cycle       Energy         DIIS error
 ---------------------------------------
    1    -517.5006915727      2.85e-02  
 Alpha HF Exchange    Energy =  -4.45868372418622
 Beta HF Exchange     Energy =  -4.27017363579621
 DFT Correlation      Energy =  -1.88061455963224
 DFT Exchange         Energy = -34.61217893770568
 One-Electron (alpha) Energy = -512.87145493294975
 One-Electron (beta)  Energy = -487.68259423835576
 Total Coulomb        Energy = 382.91732712642550
    2    -517.1570629742      4.03e-03  
 Alpha HF Exchange    Energy =  -4.40902747570125
 Beta HF Exchange     Energy =  -4.20879334398840
 DFT Correlation      Energy =  -1.85451869109660
 DFT Exchange         Energy = -34.15190947790406
 One-Electron (alpha) Energy = -509.79315349970511
 One-Electron (beta)  Energy = -484.33460880155809
 Total Coulomb        Energy = 375.93484213265532
    3    -517.1158592293      4.76e-03  
 Alpha HF Exchange    Energy =  -4.43346512667097
 Beta HF Exchange     Energy =  -4.23969336000425
 DFT Correlation      Energy =  -1.86695060857717
 DFT Exchange         Energy = -34.37488622661785
 One-Electron (alpha) Energy = -511.47406916372694
 One-Electron (beta)  Energy = -485.95761087954355
 Total Coulomb        Energy = 379.39262210324932
    4    -517.2527433339      5.04e-04  
 Alpha HF Exchange    Energy =  -4.43593998397340
 Beta HF Exchange     Energy =  -4.23988158581415
 DFT Correlation      Energy =  -1.86737058428101
 DFT Exchange         Energy = -34.38584960675321
 One-Electron (alpha) Energy = -511.58352648697115
 One-Electron (beta)  Energy = -485.96635394289552
 Total Coulomb        Energy = 379.52345403598611
    5    -517.2541582267      1.95e-04  
 Alpha HF Exchange    Energy =  -4.43590987116117
 Beta HF Exchange     Energy =  -4.23978691138363
 DFT Correlation      Energy =  -1.86716303182959
 DFT Exchange         Energy = -34.38473785953357
 One-Electron (alpha) Energy = -511.58965319394457
 One-Electron (beta)  Energy = -485.94569738803750
 Total Coulomb        Energy = 379.50726840546173
    6    -517.2543699224      4.97e-05  
 Alpha HF Exchange    Energy =  -4.43573528694042
 Beta HF Exchange     Energy =  -4.23964488596836
 DFT Correlation      Energy =  -1.86707126840526
 DFT Exchange         Energy = -34.38325396044453
 One-Electron (alpha) Energy = -511.57913050359787
 One-Electron (beta)  Energy = -485.92876852109373
 Total Coulomb        Energy = 379.47790980292797
    7    -517.2543846955      8.87e-06  
 Alpha HF Exchange    Energy =  -4.43584232877776
 Beta HF Exchange     Energy =  -4.23968197611506
 DFT Correlation      Energy =  -1.86708710080066
 DFT Exchange         Energy = -34.38379437447496
 One-Electron (alpha) Energy = -511.58693147042902
 One-Electron (beta)  Energy = -485.93070817040791
 Total Coulomb        Energy = 379.48835010815162
    8    -517.2543853848      2.56e-06  
 Alpha HF Exchange    Energy =  -4.43582765032058
 Beta HF Exchange     Energy =  -4.23967472836031
 DFT Correlation      Energy =  -1.86707853222220
 DFT Exchange         Energy = -34.38368786139574
 One-Electron (alpha) Energy = -511.58580182667720
 One-Electron (beta)  Energy = -485.92909996345156
 Total Coulomb        Energy = 379.48547519394089
    9    -517.2543854405      6.36e-07  Convergence criterion met
 ---------------------------------------
 SCF time:   CPU 20.93s  wall 2.00s 
<S^2> =          2.003696506
 Alpha HF Exchange    Energy =  -4.43582765032058
 Beta HF Exchange     Energy =  -4.23967472836031
 DFT Correlation      Energy =  -1.86707853222220
 DFT Exchange         Energy = -34.38368786139574
 One-Electron (alpha) Energy = -511.58580182667720
 One-Electron (beta)  Energy = -485.92909996345156
 Total Coulomb        Energy = 379.48547519394089
 Nuclear repulsion Energy = 145.70130992803385
 SCF   energy in the final basis set =     -517.2543854405
 Total energy in the final basis set =     -517.2543854405
 
 --------------------------------------------------------------
 
                    Orbital Energies (a.u.)
 --------------------------------------------------------------
 
 Alpha MOs
 -- Occupied --
-88.907 -10.200 -10.183 -10.182  -7.967  -5.937  -5.935  -5.918
 -0.796  -0.708  -0.690  -0.598  -0.474  -0.447  -0.408  -0.389
 -0.371  -0.349  -0.346  -0.314  -0.268  -0.267
 -- Virtual --
  0.092   0.137   0.140   0.148   0.171   0.183   0.188   0.210
  0.212   0.254   0.298   0.337   0.361   0.362   0.498   0.509
  0.541   0.558   0.580   0.658   0.673   0.675   0.727   0.742
  0.742   0.755   0.763   0.851   0.855   0.858   0.873   0.886
[...]
     0.160000    0.160000    0.160000    0.160062    0.172212    0.199947
     0.200866    0.219444    0.297187    0.297345    0.339737    0.340205
     0.340339    0.341849    0.341854    0.343451    0.343474

 Minimum Search - Taking Simple RFO Step
 Searching for Lamda that Minimizes Along All modes
 Value Taken    Lamda =   0.00000000
 Step Taken.  Stepsize is  0.003844

                             Maximum     Tolerance    Cnvgd?
         Gradient           0.000098      0.000300     YES
         Displacement       0.001720      0.001200      NO
         Energy change     -0.000002      0.000001      NO


 New Cartesian Coordinates Obtained by Inverse Iteration

 Displacement from previous Coordinates is:  0.004104
 ----------------------------------------------------------------
             Standard Nuclear Orientation (Angstroms)
    I     Atom           X                Y                Z
 ----------------------------------------------------------------
    1      S       2.5879284348    -0.0087693026     0.9999927816
    2      C      -0.1339989060     0.0007402234    -0.2613640984
    3      C      -0.8411267505    -1.2816464164     0.1659402073
    4      C      -0.8410095055     1.2835052058     0.1649087515
    5      H       0.0486227879     0.0000925671    -1.3436149537
    6      H      -1.8345248953    -1.3466104018    -0.2947328304
    7      H      -0.2761001958    -2.1704958965    -0.1298091649
    8      H      -0.9795516518    -1.3148006875     1.2521178963
    9      H      -1.8344249414     1.3482209800    -0.2957983103
   10      H      -0.2759555032     2.1721272379    -0.1315041256
   11      H      -0.9791255244     1.3175775564     1.2510619753
   12      H       0.8891636513     0.0008589342     0.1852108712
 ----------------------------------------------------------------
 Nuclear Repulsion Energy =   145.7214820479 hartrees
 There are       22 alpha and       20 beta electrons

                       Distance Matrix (Angstroms)
             S (  1)   C (  2)   C (  3)   C (  4)   H (  5)   H (  6)
   C (  2)  3.000000
   C (  3)  3.751570  1.525495
   C (  4)  3.758318  1.525470  2.565152
   H (  5)  3.455524  1.097551  2.171006  2.171229
   H (  6)  4.798357  2.169852  1.096941  2.848833  2.541655
   H (  7)  3.761938  2.179855  1.093973  3.512279  2.508032  1.770501
   H (  8)  3.807387  2.176289  1.095465  2.820002  3.086084  1.767693
   H (  9)  4.803926  2.169871  2.848868  1.096956  2.541897  2.694832
   H ( 10)  3.773384  2.179894  3.512327  1.093982  2.508445  3.851921
   H ( 11)  3.813936  2.176174  2.820017  1.095429  3.086160  3.196731
   H ( 12)  1.884082  1.116374  2.153856  2.153855  1.744654  3.076443
             H (  7)   H (  8)   H (  9)   H ( 10)   H ( 11)
   H (  8)  1.771096
   H (  9)  3.851921  3.196645
   H ( 10)  4.342623  3.816821  1.770492
   H ( 11)  3.816766  2.632378  1.767838  1.770930
   H ( 12)  2.484323  2.522171  3.076473  2.484395  2.521962
 
 Applying Cartesian multipole field
    Component          Value
    ---------          -----
     (2,0,0)        1.00000E-11
     (0,2,0)        2.00000E-11
     (0,0,2)       -3.00000E-11
 Nucleus-field energy     =     0.0000000047 hartrees
 Requested basis set is 6-31G(d,p)
 There are 41 shells and 104 basis functions
 A cutoff of  1.0D-14 yielded    830 shell pairs
 There are      5416 function pairs
 Smallest overlap matrix eigenvalue = 4.94E-03
 Guess from superposition of atomic densities
 Warning:  Energy on first SCF cycle will be non-variational
 SAD guess density has 42.000000 electrons

 -----------------------------------------------------------------------
  General SCF calculation program by
  Eric Jon Sundstrom, Paul Horn, Yuezhi Mao, Dmitri Zuev, Alec White,
  David Stuck, Shaama M.S., Shane Yost, Joonho Lee, David Small,
  Daniel Levine, Susi Lehtola, Hugh Burton, Evgeny Epifanovsky
 -----------------------------------------------------------------------
 Exchange:     0.2000 Hartree-Fock + 0.0800 Slater + 0.7200 B88
 Correlation:  0.1900 VWN1RPA + 0.8100 LYP
 Using SG-1 standard quadrature grid
 using 12 threads for integral computing
 -------------------------------------------------------
 OpenMP Integral computing Module                
 Release: version 1.0, May 2013, Q-Chem Inc. Pittsburgh 
 -------------------------------------------------------
 -------------------------------------------------------
 OpenMP BLAS3 based DFT computing Module                
 Release: version 1.0, May 2013, Q-Chem Inc. Pittsburgh 
 -------------------------------------------------------
 A unrestricted SCF calculation will be
 performed using DIIS
 SCF converges when DIIS error is below 1.0e-06
 Alpha HF Exchange    Energy =  -4.33269257647282
 Beta HF Exchange     Energy =  -4.33269257647282
 DFT Correlation      Energy =  -1.86356735217315
 DFT Exchange         Energy = -33.96400836970874
 One-Electron (alpha) Energy = -497.03801440304665
 One-Electron (beta)  Energy = -497.03801440304665
 Total Coulomb        Energy = 375.34638203105567
 ---------------------------------------
  Cycle       Energy         DIIS error
 ---------------------------------------
    1    -517.5011255972      2.85e-02  
 Alpha HF Exchange    Energy =  -4.45867197580478
 Beta HF Exchange     Energy =  -4.27011972995413
 DFT Correlation      Energy =  -1.88063924726164
 DFT Exchange         Energy = -34.61203149659600
 One-Electron (alpha) Energy = -512.89285552733156
 One-Electron (beta)  Energy = -487.70230315435759
 Total Coulomb        Energy = 382.93800580111849
    2    -517.1571332776      4.03e-03  
 Alpha HF Exchange    Energy =  -4.40901036825824
 Beta HF Exchange     Energy =  -4.20879177312675
 DFT Correlation      Energy =  -1.85454035976950
 DFT Exchange         Energy = -34.15187710026174
 One-Electron (alpha) Energy = -509.81397896097428
 One-Electron (beta)  Energy = -484.35557345390748
 Total Coulomb        Energy = 375.95634956086030
    3    -517.1159404028      4.76e-03  
 Alpha HF Exchange    Energy =  -4.43344127036814
 Beta HF Exchange     Energy =  -4.23965740067829
 DFT Correlation      Energy =  -1.86697123602899
 DFT Exchange         Energy = -34.37473579226993
 One-Electron (alpha) Energy = -511.49449876675465
 One-Electron (beta)  Energy = -485.97718575908908
 Total Coulomb        Energy = 379.41227329037491
    4    -517.2527348822      5.05e-04  
 Alpha HF Exchange    Energy =  -4.43592112570538
 Beta HF Exchange     Energy =  -4.23984626529463
 DFT Correlation      Energy =  -1.86739296836921
 DFT Exchange         Energy = -34.38572389457484
 One-Electron (alpha) Energy = -511.60431752490422
 One-Electron (beta)  Energy = -485.98629244799156
 Total Coulomb        Energy = 379.54385188442433
    5    -517.2541602898      1.95e-04  
 Alpha HF Exchange    Energy =  -4.43589271381963
 Beta HF Exchange     Energy =  -4.23975160324710
 DFT Correlation      Energy =  -1.86718533221141
 DFT Exchange         Energy = -34.38461801776903
 One-Electron (alpha) Energy = -511.61048631558606
 One-Electron (beta)  Energy = -485.96554527644435
 Total Coulomb        Energy = 379.52762505929695
    6    -517.2543721472      4.97e-05  
 Alpha HF Exchange    Energy =  -4.43571777904520
 Beta HF Exchange     Energy =  -4.23960948793056
 DFT Correlation      Energy =  -1.86709329753480
 DFT Exchange         Energy = -34.38313137175381
 One-Electron (alpha) Energy = -511.59994349622349
 One-Electron (beta)  Energy = -485.94857157122811
 Total Coulomb        Energy = 379.49819803042271
    7    -517.2543869207      8.90e-06  
 Alpha HF Exchange    Energy =  -4.43582526217861
 Beta HF Exchange     Energy =  -4.23964664289064
 DFT Correlation      Energy =  -1.86710919680271
 DFT Exchange         Energy = -34.38367374687545
 One-Electron (alpha) Energy = -511.60777507068582
 One-Electron (beta)  Energy = -485.95052129289672
 Total Coulomb        Energy = 379.50868154346091
    8    -517.2543876162      2.57e-06  
 Alpha HF Exchange    Energy =  -4.43581055270279
 Beta HF Exchange     Energy =  -4.23963938293822
 DFT Correlation      Energy =  -1.86710059572980
 DFT Exchange         Energy = -34.38356695353617
 One-Electron (alpha) Energy = -511.60664197786105
 One-Electron (beta)  Energy = -485.94890671127575
 Total Coulomb        Energy = 379.50579644896459
    9    -517.2543876725      6.39e-07  Convergence criterion met
 ---------------------------------------
 SCF time:   CPU 21.53s  wall 2.00s 
<S^2> =          2.003712345
 Alpha HF Exchange    Energy =  -4.43581055270279
 Beta HF Exchange     Energy =  -4.23963938293822
 DFT Correlation      Energy =  -1.86710059572980
 DFT Exchange         Energy = -34.38356695353617
 One-Electron (alpha) Energy = -511.60664197786105
 One-Electron (beta)  Energy = -485.94890671127575
 Total Coulomb        Energy = 379.50579644896459
 Nuclear repulsion Energy = 145.72148205261922
 SCF   energy in the final basis set =     -517.2543876725
 Total energy in the final basis set =     -517.2543876725
 
 --------------------------------------------------------------
 
                    Orbital Energies (a.u.)
 --------------------------------------------------------------
 
 Alpha MOs
 -- Occupied --
-88.907 -10.200 -10.183 -10.183  -7.967  -5.937  -5.935  -5.918
 -0.796  -0.708  -0.690  -0.598  -0.474  -0.447  -0.408  -0.389
 -0.371  -0.350  -0.346  -0.314  -0.268  -0.267
 -- Virtual --
  0.092   0.136   0.140   0.148   0.171   0.183   0.188   0.210
  0.212   0.255   0.298   0.337   0.361   0.362   0.497   0.509
  0.540   0.558   0.580   0.659   0.673   0.675   0.727   0.742
  0.743   0.755   0.763   0.850   0.855   0.858   0.873   0.885
  0.893   0.930   0.949   0.993   1.274   1.288   1.327   1.361
  1.526   1.592   1.668   1.682   1.826   1.842   1.899   2.041
  2.043   2.059   2.074   2.082   2.097   2.103   2.240   2.243
  2.277   2.301   2.404   2.435   2.500   2.632   2.678   2.707
  2.726   2.783   2.857   2.886   2.893   2.904   3.143   3.213
  3.290   3.326   3.418   3.472   3.490   3.555   3.858   4.323
  4.482   4.654
 
 Beta MOs
 -- Occupied --
-88.896 -10.197 -10.183 -10.183  -7.957  -5.916  -5.916  -5.912
 -0.790  -0.689  -0.632  -0.585  -0.463  -0.444  -0.406  -0.388
 -0.349  -0.348  -0.341  -0.241
 -- Virtual --
 -0.161  -0.145   0.094   0.138   0.141   0.149   0.172   0.183
  0.188   0.214   0.232   0.257   0.326   0.371   0.376   0.397
  0.498   0.511   0.552   0.567   0.582   0.668   0.683   0.685
  0.754   0.803   0.808   0.808   0.813   0.859   0.860   0.868
  0.887   0.892   0.901   0.942   0.950   0.995   1.281   1.292
  1.336   1.361   1.526   1.596   1.670   1.686   1.829   1.847
  1.903   2.041   2.044   2.062   2.075   2.087   2.098   2.104
  2.242   2.244   2.277   2.302   2.406   2.435   2.501   2.634
  2.679   2.708   2.727   2.785   2.858   2.888   2.895   2.905
  3.145   3.214   3.294   3.328   3.419   3.473   3.490   3.559
  3.891   4.325   4.482   4.659
 --------------------------------------------------------------
 
          Ground-State Mulliken Net Atomic Charges

     Atom                 Charge (a.u.)    Spin (a.u.)
  --------------------------------------------------------
      1 S                    -0.056843       1.830465
      2 C                    -0.137766       0.187902
      3 C                    -0.310619      -0.003437
      4 C                    -0.310156      -0.003408
      5 H                     0.112069      -0.000140
      6 H                     0.110955       0.010501
      7 H                     0.114680       0.001131
      8 H                     0.109972       0.001341
      9 H                     0.110810       0.010535
     10 H                     0.114330       0.001131
     11 H                     0.110250       0.001353
     12 H                     0.032318      -0.037374
  --------------------------------------------------------
  Sum of atomic charges =     0.000000
  Sum of spin   charges =     2.000000

 -----------------------------------------------------------------
                    Cartesian Multipole Moments
 -----------------------------------------------------------------
    Charge (ESU x 10^10)
                 0.0000
    Dipole Moment (Debye)
         X      -1.3890      Y       0.0047      Z      -0.5689
       Tot       1.5010
    Quadrupole Moments (Debye-Ang)
        XX     -36.9495     XY       0.0579     YY     -35.8498
        XZ      -1.4719     YZ      -0.1072     ZZ     -33.6474
    Octopole Moments (Debye-Ang^2)
       XXX     -67.0344    XXY       0.3525    XYY     -24.9577
       YYY       0.3369    XXZ     -18.1887    XYZ      -0.2443
       YYZ     -16.2599    XZZ     -20.4014    YZZ      -0.1353
       ZZZ     -39.0787
    Hexadecapole Moments (Debye-Ang^3)
      XXXX    -647.6326   XXXY       1.9171   XXYY    -159.2232
      XYYY       1.1181   YYYY    -218.2355   XXXZ     -99.9116
      XXYZ      -0.4360   XYYZ     -36.8753   YYYZ       0.2947
      XXZZ    -131.1029   XYZZ      -0.2361   YYZZ     -62.9899
      XZZZ     -92.0133   YZZZ      -0.1216   ZZZZ    -135.4158
 -----------------------------------------------------------------
 Calculating analytic gradient of the SCF energy
 Gradient of SCF Energy
            1           2           3           4           5           6
    1  -0.0124556   0.0123936  -0.0000045  -0.0000048  -0.0000184  -0.0000033
    2   0.0000536  -0.0000244  -0.0000034   0.0000029   0.0000007   0.0000040
    3  -0.0057550   0.0057454   0.0000032   0.0000043  -0.0000006   0.0000024
            7           8           9          10          11          12
    1  -0.0000051   0.0000027  -0.0000032  -0.0000049   0.0000031   0.0001004
    2   0.0000001  -0.0000028  -0.0000037  -0.0000000   0.0000023  -0.0000293
    3  -0.0000084  -0.0000011   0.0000034  -0.0000070  -0.0000002   0.0000137
 Max gradient component =       1.246E-02
 RMS gradient           =       3.227E-03
 Gradient time:  CPU 8.23 s  wall 0.69 s
 Geometry Optimization Parameters
   NAtoms,    NIC,     NZ,  NCons,   NDum,   NFix, NCnnct, MaxDiis
       12      75       0       1       0       0       0       0

 Cartesian Hessian Update
 Hessian Updated using BFGS Update


** CONSTRAINED OPTIMIZATION IN DELOCALIZED INTERNAL COORDINATES **
   Searching for a Minimum

   Optimization Cycle:   7

                       Coordinates (Angstroms)
     ATOM                X               Y               Z
      1  S         2.5879284348   -0.0087693026    0.9999927816
      2  C        -0.1339989060    0.0007402234   -0.2613640984
      3  C        -0.8411267505   -1.2816464164    0.1659402073
      4  C        -0.8410095055    1.2835052058    0.1649087515
      5  H         0.0486227879    0.0000925671   -1.3436149537
      6  H        -1.8345248953   -1.3466104018   -0.2947328304
      7  H        -0.2761001958   -2.1704958965   -0.1298091649
      8  H        -0.9795516518   -1.3148006875    1.2521178963
      9  H        -1.8344249414    1.3482209800   -0.2957983103
     10  H        -0.2759555032    2.1721272379   -0.1315041256
     11  H        -0.9791255244    1.3175775564    1.2510619753
     12  H         0.8891636513    0.0008589342    0.1852108712
   Point Group: c1    Number of degrees of freedom:    30


   Energy is   -517.254387672

              Constraints and their Current Values
                                        Value     Constraint
   Distance(Angs):        1   2             3.000000     3.000000
 Hessian Updated using BFGS Update

 29 Hessian modes will be used to form the next step
  Hessian Eigenvalues:
     0.030471    0.045000    0.046871    0.072686    0.082315    0.082400
     0.083143    0.083144    0.106110    0.133957    0.147868    0.159903
     0.160000    0.160000    0.160000    0.160062    0.163600    0.197745
     0.199972    0.218743    0.296109    0.297339    0.339730    0.340302
     0.340340    0.341850    0.341862    0.343451    0.343482

 Minimum Search - Taking Simple RFO Step
 Searching for Lamda that Minimizes Along All modes
 Value Taken    Lamda =   0.00000000
 Step Taken.  Stepsize is  0.001038

                             Maximum     Tolerance    Cnvgd?
         Gradient           0.000046      0.000300     YES
         Displacement       0.000595      0.001200     YES
         Energy change     -0.000000      0.000001     YES


                       Distance Matrix (Angstroms)
             S (  1)   C (  2)   C (  3)   C (  4)   H (  5)   H (  6)
   C (  2)  3.000000
   C (  3)  3.751570  1.525495
   C (  4)  3.758318  1.525470  2.565152
   H (  5)  3.455524  1.097551  2.171006  2.171229
   H (  6)  4.798357  2.169852  1.096941  2.848833  2.541655
   H (  7)  3.761938  2.179855  1.093973  3.512279  2.508032  1.770501
   H (  8)  3.807387  2.176289  1.095465  2.820002  3.086084  1.767693
   H (  9)  4.803926  2.169871  2.848868  1.096956  2.541897  2.694832
   H ( 10)  3.773384  2.179894  3.512327  1.093982  2.508445  3.851921
   H ( 11)  3.813936  2.176174  2.820017  1.095429  3.086160  3.196731
   H ( 12)  1.884082  1.116374  2.153856  2.153855  1.744654  3.076443
             H (  7)   H (  8)   H (  9)   H ( 10)   H ( 11)
   H (  8)  1.771096
   H (  9)  3.851921  3.196645
   H ( 10)  4.342623  3.816821  1.770492
   H ( 11)  3.816766  2.632378  1.767838  1.770930
   H ( 12)  2.484323  2.522171  3.076473  2.484395  2.521962
 
 Final energy is   -517.254387672460     


 ******************************
 **  OPTIMIZATION CONVERGED  **
 ******************************

                       Coordinates (Angstroms)
     ATOM                X               Y               Z
      1  S         2.5879284348   -0.0087693026    0.9999927816
      2  C        -0.1339989060    0.0007402234   -0.2613640984
      3  C        -0.8411267505   -1.2816464164    0.1659402073
      4  C        -0.8410095055    1.2835052058    0.1649087515
      5  H         0.0486227879    0.0000925671   -1.3436149537
      6  H        -1.8345248953   -1.3466104018   -0.2947328304
      7  H        -0.2761001958   -2.1704958965   -0.1298091649
      8  H        -0.9795516518   -1.3148006875    1.2521178963
      9  H        -1.8344249414    1.3482209800   -0.2957983103
     10  H        -0.2759555032    2.1721272379   -0.1315041256
     11  H        -0.9791255244    1.3175775564    1.2510619753
     12  H         0.8891636513    0.0008589342    0.1852108712

Z-matrix Print:
$molecule
0 3
S 
H  1 1.884082
C  2 1.116374 1 177.934008
H  3 1.097551 2 104.001597 1 -171.646671 0
C  3 1.525470 2 108.234248 1 70.619713 0
H  5 1.093982 3 111.588988 2 57.060575 0
H  5 1.095429 3 111.202320 2 -63.562023 0
H  5 1.096956 3 110.608076 2 177.089186 0
C  3 1.525495 2 108.232660 1 -53.936146 0
H  9 1.093973 3 111.584611 2 -57.060650 0
H  9 1.095465 3 111.207689 2 63.579110 0
H  9 1.096941 3 110.605736 2 -177.088043 0
$end

PES scan, value:    3.0000 energy: -517.2543876725
------- Summary of potential scan: ------ 
    3.0000      -517.2543876725
----------------------------------------- 
Archival summary:
1\1\hpc0250\JobtypUnspecified\ProcedureUnspecified\6-31G**\138(3)\knomura\WedMar1315:06:012019WedMar1315:06:012019\0\\#,JobtypUnspecified,ProcedureUnspecified,6-31G**,\\0,3\S\H,1,1.88408\C,2,1.11637,1,177.934\H,3,1.09755,2,104.002,1,-171.647,0\C,3,1.52547,2,108.234,1,70.6197,0\H,5,1.09398,3,111.589,2,57.0606,0\H,5,1.09543,3,111.202,2,-63.562,0\H,5,1.09696,3,110.608,2,177.089,0\C,3,1.52549,2,108.233,1,-53.9361,0\H,9,1.09397,3,111.585,2,-57.0606,0\H,9,1.09546,3,111.208,2,63.5791,0\H,9,1.09694,3,110.606,2,-177.088,0\\\@

 Total job time:  26.25s(wall), 239.04s(cpu) 
 Wed Mar 13 15:06:01 2019

        *************************************************************
        *                                                           *
        *  Thank you very much for using Q-Chem.  Have a nice day.  *
        *                                                           *
        *************************************************************


