
Running Job 1 of 1 thiol/01/C-S.xyz.data/inputs/bond_triplet_3.5.in
qchem thiol/01/C-S.xyz.data/inputs/bond_triplet_3.5.in_11878.0 /staging/scratch/2868767/qchem11878/ 1
/usr/usc/qchem/5.1.1/exe/qcprog.exe_s thiol/01/C-S.xyz.data/inputs/bond_triplet_3.5.in_11878.0 /staging/scratch/2868767/qchem11878/
Check license passed

                  Welcome to Q-Chem
     A Quantum Leap Into The Future Of Chemistry


 Q-Chem 5.1, Q-Chem, Inc., Pleasanton, CA (2018)

 Yihan Shao,  Zhengting Gan,  E. Epifanovsky,  A. T. B. Gilbert,  M. Wormit,  
 J. Kussmann,  A. W. Lange,  A. Behn,  Jia Deng,  Xintian Feng,  D. Ghosh,  
 M. Goldey,  P. R. Horn,  L. D. Jacobson,  I. Kaliman,  T. Kus,  A. Landau,  
 Jie Liu,  E. I. Proynov,  R. M. Richard,  R. P. Steele,  E. J. Sundstrom,  
 H. L. Woodcock III,  P. M. Zimmerman,  D. Zuev,  B. Albrecht,  E. Alguire,  
 S. A. Baeppler,  D. Barton,  Z. Benda,  Y. A. Bernard,  E. J. Berquist,  
 K. B. Bravaya,  H. Burton,  D. Casanova,  Chun-Min Chang,  Yunqing Chen,  
 A. Chien,  K. D. Closser,  M. P. Coons,  S. Coriani,  S. Dasgupta,  
 A. L. Dempwolff,  M. Diedenhofen,  Hainam Do,  R. G. Edgar,  Po-Tung Fang,  
 S. Faraji,  S. Fatehi,  Qingguo Feng,  K. D. Fenk,  J. Fosso-Tande,  
 Qinghui Ge,  A. Ghysels,  G. Gidofalvi,  J. Gomes,  J. Gonthier,  A. Gunina,  
 D. Hait,  M. W. D. Hanson-Heine,  P. H. P. Harbach,  A. W. Hauser,  
 J. E. Herr,  E. G. Hohenstein,  Z. C. Holden,  Kerwin Hui,  B. C. Huynh,  
 T.-C. Jagau,  Hyunjun Ji,  B. Kaduk,  K. Khistyaev,  Jaehoon Kim,  
 P. Klunzinger,  K. Koh,  D. Kosenkov,  L. Koulias,  T. Kowalczyk,  
 C. M. Krauter,  A. Kunitsa,  Ka Un Lao,  A. Laurent,  K. V. Lawler,  
 Joonho Lee,  D. Lefrancois,  S. Lehtola,  D. S. Levine,  Yi-Pei Li,  
 You-Sheng Lin,  Fenglai Liu,  E. Livshits,  A. Luenser,  P. Manohar,  
 E. Mansoor,  S. F. Manzer,  Shan-Ping Mao,  Yuezhi Mao,  N. Mardirossian,  
 A. V. Marenich,  T. Markovich,  L. A. Martinez-Martinez,  S. A. Maurer,  
 N. J. Mayhall,  S. C. McKenzie,  J.-M. Mewes,  A. F. Morrison,  
 J. W. Mullinax,  K. Nanda,  T. S. Nguyen-Beck,  R. Olivares-Amaya,  
 J. A. Parkhill,  T. M. Perrine,  F. Plasser,  P. Pokhilko,  S. Prager,  
 A. Prociuk,  E. Ramos,  D. R. Rehn,  F. Rob,  M. Schneider,  N. Sergueev,  
 S. M. Sharada,  S. Sharma,  D. W. Small,  T. Stauch,  T. Stein,  
 Yu-Chuan Su,  A. J. W. Thom,  A. Tkatchenko,  T. Tsuchimochi,  N. M. Tubman,  
 L. Vogt,  M. L. Vidal,  O. Vydrov,  M. A. Watson,  J. Wenzel,  
 M. de Wergifosse,  T. A. Wesolowski,  A. White,  J. Witte,  A. Yamada,  
 Jun Yang,  K. Yao,  S. Yeganeh,  S. R. Yost,  Zhi-Qiang You,  A. Zech,  
 Igor Ying Zhang,  Xing Zhang,  Yan Zhao,  Ying Zhu,  B. R. Brooks,  
 G. K. L. Chan,  C. J. Cramer,  M. S. Gordon,  W. J. Hehre,  A. Klamt,  
 M. W. Schmidt,  C. D. Sherrill,  D. G. Truhlar,  A. Aspuru-Guzik,  R. Baer,  
 A. T. Bell,  N. A. Besley,  Jeng-Da Chai,  A. E. DePrince, III,  
 R. A. DiStasio Jr.,  A. Dreuw,  B. D. Dunietz,  T. R. Furlani,  
 Chao-Ping Hsu,  Yousung Jung,  Jing Kong,  D. S. Lambrecht,  WanZhen Liang,  
 C. Ochsenfeld,  V. A. Rassolov,  L. V. Slipchenko,  J. E. Subotnik,  
 T. Van Voorhis,  J. M. Herbert,  A. I. Krylov,  P. M. W. Gill,  M. Head-Gordon

 Contributors to earlier versions of Q-Chem not listed above: 
 R. D. Adamson,  B. Austin,  J. Baker,  G. J. O. Beran,  K. Brandhorst,  
 S. T. Brown,  E. F. C. Byrd,  A. K. Chakraborty,  C.-L. Cheng,  
 Siu Hung Chien,  D. M. Chipman,  D. L. Crittenden,  H. Dachsel,  
 R. J. Doerksen,  A. D. Dutoi,  L. Fusti-Molnar,  W. A. Goddard III,  
 A. Golubeva-Zadorozhnaya,  S. R. Gwaltney,  G. Hawkins,  A. Heyden,  
 S. Hirata,  G. Kedziora,  F. J. Keil,  C. Kelley,  Jihan Kim,  R. A. King,  
 R. Z. Khaliullin,  P. P. Korambath,  W. Kurlancheek,  A. M. Lee,  M. S. Lee,  
 S. V. Levchenko,  Ching Yeh Lin,  D. Liotard,  R. C. Lochan,  I. Lotan,  
 P. E. Maslen,  N. Nair,  D. P. O'Neill,  D. Neuhauser,  E. Neuscamman,  
 C. M. Oana,  R. Olson,  B. Peters,  R. Peverati,  P. A. Pieniazek,  
 Y. M. Rhee,  J. Ritchie,  M. A. Rohrdanz,  E. Rosta,  N. J. Russ,  
 H. F. Schaefer III,  N. E. Schultz,  N. Shenvi,  A. C. Simmonett,  A. Sodt,  
 D. Stuck,  K. S. Thanthiriwatte,  V. Vanovschi,  Tao Wang,  A. Warshel,  
 C. F. Williams,  Q. Wu,  X. Xu,  W. Zhang

 Please cite Q-Chem as follows:
 Y. Shao et al., Mol. Phys. 113, 184-215 (2015)
 DOI: 10.1080/00268976.2014.952696

 Q-Chem 5.1.1 for Intel X86 EM64T Linux

 Parts of Q-Chem use Armadillo 8.300.2 (Tropical Shenanigans).
 http://arma.sourceforge.net/

 Q-Chem begins on Wed Mar 13 15:02:20 2019  

Host: 
0

     Scratch files written to /staging/scratch/2868767/qchem11878//
 Aug318 |scratch|qcdevops|jenkins|workspace|build_RNUM 6013   
Processing $rem in /usr/usc/qchem/5.1.1/config/preferences.
 MEM_TOTAL  2000 
Input Ideriv = 2
Curr. Ideriv = -1
Max.  Ideriv = 2

Checking the input file for inconsistencies... 	...done.

--------------------------------------------------------------
User input:
--------------------------------------------------------------

$comment
potential surface scanner
$end

$rem
JOBTYPE  PES_SCAN
UNRESTRICTED TRUE
SYM_IGNORE  TRUE
GEOM_OPT_MAX_CYCLES 400
SCF_MAX_CYCLES 400
METHOD   B3LYP
BASIS   6-31G**
PDB_PRINT 2
SCF_CONVERGENCE 6
THRESH 14
SCF_PRINT 1
$end
$molecule
0 3
S 2.898925 0.001415 1.005202
C -0.422787 -0.000514 -0.382683
C -0.960754 -1.298373 0.126224
C -0.957276 1.298608 0.126701
H 0.045508 -0.000907 -1.366182
H -1.967784 -1.501356 -0.278371
H -0.328160 -2.145639 -0.155958
H -1.062550 -1.292586 1.218273
H -1.963520 1.504716 -0.278253
H -0.322073 2.144175 -0.154727
H -1.059650 1.292497 1.218702
H 1.630019 -0.001235 0.483480
$end
$scan
stre 1 2 3.500000 3.501000 0.100000
$end
--------------------------------------------------------------
 ----------------------------------------------------------------
             Standard Nuclear Orientation (Angstroms)
    I     Atom           X                Y                Z
 ----------------------------------------------------------------
    1      S       2.8989250000     0.0014150000     1.0052020000
    2      C      -0.4227870000    -0.0005140000    -0.3826830000
    3      C      -0.9607540000    -1.2983730000     0.1262240000
    4      C      -0.9572760000     1.2986080000     0.1267010000
    5      H       0.0455080000    -0.0009070000    -1.3661820000
    6      H      -1.9677840000    -1.5013560000    -0.2783710000
    7      H      -0.3281600000    -2.1456390000    -0.1559580000
    8      H      -1.0625500000    -1.2925860000     1.2182730000
    9      H      -1.9635200000     1.5047160000    -0.2782530000
   10      H      -0.3220730000     2.1441750000    -0.1547270000
   11      H      -1.0596500000     1.2924970000     1.2187020000
   12      H       1.6300190000    -0.0012350000     0.4834800000
 ----------------------------------------------------------------
 Nuclear Repulsion Energy =   138.5063843936 hartrees
 There are       22 alpha and       20 beta electrons
 Requested basis set is 6-31G(d,p)
 There are 41 shells and 104 basis functions

 Total QAlloc Memory Limit   2000 MB
 Mega-Array Size       188 MB
 MEM_STATIC part       192 MB
A total of 1 constraints
  
            1
    1   1.0100000
    2   1.0100000
    3   2.0100000
    4   3.5000000
    5   3.5010000
    6   0.1000000
    7   0.0000000
    8   0.0000000
    9   0.0000000
   10   0.0000000

                       Distance Matrix (Angstroms)
             S (  1)   C (  2)   C (  3)   C (  4)   H (  5)   H (  6)
   C (  2)  3.600000
   C (  3)  4.166434  1.494267
   C (  4)  4.162302  1.494279  2.596983
   H (  5)  3.710183  1.089298  2.218841  2.218787
   H (  6)  5.252689  2.156484  1.104087  3.004165  2.736426
   H (  7)  4.046259  2.159148  1.094377  3.512623  2.490812  1.765914
   H (  8)  4.172903  2.154485  1.096798  2.813698  3.094452  1.761527
   H (  9)  5.248861  2.156497  3.004405  1.104081  2.736180  3.006075
   H ( 10)  4.038773  2.159120  3.512547  1.094380  2.490806  4.001693
   H ( 11)  4.169267  2.154508  2.813520  1.096806  3.094494  3.297203
   H ( 12)  1.371978  2.228060  2.919298  2.917358  2.435554  3.971771
             H (  7)   H (  8)   H (  9)   H ( 10)   H ( 11)
   H (  8)  1.776384
   H (  9)  4.001806  3.297914
   H ( 10)  4.289818  3.774223  1.765932
   H ( 11)  3.774327  2.585085  1.761503  1.776424
   H ( 12)  2.973519  3.075294  3.970094  2.969976  3.073860
 
 A cutoff of  1.0D-14 yielded    818 shell pairs
 There are      5322 function pairs
 
 -------------------------------------------------------
 OpenMP Integral Computing Module                       
 Release: version 1.0, May 2013, Q-Chem Inc. Pittsburgh 
 -------------------------------------------------------
 Integral Job Info:
 Integral job number is                      11
 Integral operator is                         1
 short-range coefficients                     0
 long-range coefficients              100000000
 Omega coefficients                           0
 if combine SR and LR in K                    0
 Integral screening is                        0
 Integral computing path is                   2
 max size of driver memory is            800000
 size of driver memory is                593474
 size of scratch memory is             15267112
 max col of scratch BK array               1296
 max len of scratch array in speh3          155
 max len of scratch index in speh4           18
 max int batch size is                      520
 min int batch size is                       52
 fixed nKL is                                52
 max L of basis functions is                  2
 order of int derivative is                   0
 number of shells is                         41
 number of basis is                         104
 number of cartesian basis is               104
 number of contracted shell pairs           818
 number of primitive shell pairs           2832
 maxK2 (contraction) of shell pair           36
 max number of K2 of shell pair               1
 max number of CS2 of shell pair             78
 max number of PS2 of shell pair            252
 mem total for path MDJ                  513266
 -------------------------------------------------------
 Smallest overlap matrix eigenvalue = 6.43E-03

 Scale SEOQF with 1.000000e-01/1.000000e-01/1.000000e-01

 Standard Electronic Orientation quadrupole field applied
 Nucleus-field energy     =     0.0000000059 hartrees
 Guess from superposition of atomic densities
 Warning:  Energy on first SCF cycle will be non-variational
 SAD guess density has 42.000000 electrons

 -----------------------------------------------------------------------
  General SCF calculation program by
  Eric Jon Sundstrom, Paul Horn, Yuezhi Mao, Dmitri Zuev, Alec White,
  David Stuck, Shaama M.S., Shane Yost, Joonho Lee, David Small,
  Daniel Levine, Susi Lehtola, Hugh Burton, Evgeny Epifanovsky
 -----------------------------------------------------------------------
 Exchange:     0.2000 Hartree-Fock + 0.0800 Slater + 0.7200 B88
 Correlation:  0.1900 VWN1RPA + 0.8100 LYP
 Using SG-1 standard quadrature grid
 using 12 threads for integral computing
 -------------------------------------------------------
 OpenMP Integral computing Module                
 Release: version 1.0, May 2013, Q-Chem Inc. Pittsburgh 
 -------------------------------------------------------
 -------------------------------------------------------
 OpenMP BLAS3 based DFT computing Module                
 Release: version 1.0, May 2013, Q-Chem Inc. Pittsburgh 
 -------------------------------------------------------
 A unrestricted SCF calculation will be
 performed using DIIS
 SCF converges when DIIS error is below 1.0e-06
 Alpha HF Exchange    Energy =  -4.32178245276210
 Beta HF Exchange     Energy =  -4.32178245276210
 DFT Correlation      Energy =  -1.85828739786610
 DFT Exchange         Energy = -33.94874775383607
 One-Electron (alpha) Energy = -489.82515021713772
 One-Electron (beta)  Energy = -489.82515021713772
 Total Coulomb        Energy = 368.13351731496249
 ---------------------------------------
  Cycle       Energy         DIIS error
 ---------------------------------------
    1    -517.4609987770      2.83e-02  
 Alpha HF Exchange    Energy =  -4.45291330298991
 Beta HF Exchange     Energy =  -4.26919516110423
 DFT Correlation      Energy =  -1.87832616134309
 DFT Exchange         Energy = -34.58736786580772
 One-Electron (alpha) Energy = -504.98449998451139
 One-Electron (beta)  Energy = -481.39964599965947
 Total Coulomb        Energy = 375.91567860258669
    2    -517.1498854733      3.76e-03  
 Alpha HF Exchange    Energy =  -4.39615892013950
 Beta HF Exchange     Energy =  -4.21808594876114
 DFT Correlation      Energy =  -1.85030373815716
 DFT Exchange         Energy = -34.13164559608493
 One-Electron (alpha) Energy = -501.66213834991788
 One-Electron (beta)  Energy = -478.07044159577231
 Total Coulomb        Energy = 368.68033840802076
    3    -517.1420513413      3.98e-03  
 Alpha HF Exchange    Energy =  -4.42536325435863
 Beta HF Exchange     Energy =  -4.24259833727652
 DFT Correlation      Energy =  -1.86370534642523
 DFT Exchange         Energy = -34.35424869055552
 One-Electron (alpha) Energy = -503.46311729308582
 One-Electron (beta)  Energy = -479.69832678502996
 Total Coulomb        Energy = 372.30569528910621
    4    -517.2352800181      2.68e-04  
 Alpha HF Exchange    Energy =  -4.42620582540512
 Beta HF Exchange     Energy =  -4.24350924280601
 DFT Correlation      Energy =  -1.86350007511618
 DFT Exchange         Energy = -34.36010534096215
 One-Electron (alpha) Energy = -503.50307068381943
 One-Electron (beta)  Energy = -479.68133518709163
 Total Coulomb        Energy = 372.33569659436978
    5    -517.2356453613      1.56e-04  
 Alpha HF Exchange    Energy =  -4.42630642268403
 Beta HF Exchange     Energy =  -4.24313278152794
 DFT Correlation      Energy =  -1.86337926493946
 DFT Exchange         Energy = -34.35880498771810
 One-Electron (alpha) Energy = -503.50500503398791
 One-Electron (beta)  Energy = -479.66637522470904
 Total Coulomb        Energy = 372.32082376540916
    6    -517.2357955506      3.96e-05  
 Alpha HF Exchange    Energy =  -4.42620162789058
 Beta HF Exchange     Energy =  -4.24308864982062
 DFT Correlation      Energy =  -1.86329532735077
 DFT Exchange         Energy = -34.35806339990731
 One-Electron (alpha) Energy = -503.49929529456045
 One-Electron (beta)  Energy = -479.65544534973333
 Total Coulomb        Energy = 372.30319933126475
    7    -517.2358059184      1.11e-05  
 Alpha HF Exchange    Energy =  -4.42630340997373
 Beta HF Exchange     Energy =  -4.24313299206109
 DFT Correlation      Energy =  -1.86330028106535
 DFT Exchange         Energy = -34.35860267079608
 One-Electron (alpha) Energy = -503.50551374599706
 One-Electron (beta)  Energy = -479.65784538153872
 Total Coulomb        Energy = 372.31250700262763
    8    -517.2358070793      3.89e-06  
 Alpha HF Exchange    Energy =  -4.42628382176692
 Beta HF Exchange     Energy =  -4.24312031564729
 DFT Correlation      Energy =  -1.86328925392698
 DFT Exchange         Energy = -34.35846749580982
 One-Electron (alpha) Energy = -503.50394629271159
 One-Electron (beta)  Energy = -479.65635753490665
 Total Coulomb        Energy = 372.30927309983929
    9    -517.2358072154      1.05e-06  
 Alpha HF Exchange    Energy =  -4.42628610456670
 Beta HF Exchange     Energy =  -4.24312360378448
 DFT Correlation      Energy =  -1.86328968500920
 DFT Exchange         Energy = -34.35849033031474
 One-Electron (alpha) Energy = -503.50403045646794
 One-Electron (beta)  Energy = -479.65661346422718
 Total Coulomb        Energy = 372.30964201867084
   10    -517.2358072262      3.11e-07  Convergence criterion met
 ---------------------------------------
 SCF time:   CPU 23.77s  wall 2.00s 
<S^2> =          2.006170936
 Alpha HF Exchange    Energy =  -4.42628610456670
 Beta HF Exchange     Energy =  -4.24312360378448
 DFT Correlation      Energy =  -1.86328968500920
 DFT Exchange         Energy = -34.35849033031474
 One-Electron (alpha) Energy = -503.50403045646794
 One-Electron (beta)  Energy = -479.65661346422718
 Total Coulomb        Energy = 372.30964201867084
 Nuclear repulsion Energy = 138.50638439954898
 SCF   energy in the final basis set =     -517.2358072262
 Total energy in the final basis set =     -517.2358072262
 
 --------------------------------------------------------------
 
                    Orbital Energies (a.u.)
 --------------------------------------------------------------
 
 Alpha MOs
 -- Occupied --
-88.893 -10.207 -10.189 -10.189  -7.955  -5.926  -5.916  -5.907
 -0.793  -0.720  -0.700  -0.582  -0.461  -0.443  -0.417  -0.395
 -0.393  -0.364  -0.358  -0.306  -0.259  -0.200
 -- Virtual --
  0.064   0.099   0.120   0.135   0.161   0.167   0.171   0.181
  0.239   0.279   0.282   0.339   0.343   0.368   0.488   0.500
  0.546   0.571   0.583   0.662   0.697   0.702   0.712   0.737
  0.747   0.747   0.752   0.771   0.846   0.850   0.861   0.873
  0.902   0.926   0.936   1.046   1.182   1.283   1.323   1.340
  1.362   1.520   1.643   1.789   1.803   1.858   1.874   1.997
  2.034   2.039   2.064   2.067   2.097   2.099   2.120   2.125
  2.256   2.272   2.358   2.365   2.467   2.542   2.594   2.661
  2.714   2.747   2.751   2.842   2.851   2.894   2.940   3.148
  3.194   3.346   3.412   3.434   3.447   3.495   3.934   4.229
  4.475   4.583
 
 Beta MOs
 -- Occupied --
-88.888 -10.195 -10.189 -10.189  -7.949  -5.912  -5.908  -5.904
 -0.776  -0.697  -0.678  -0.562  -0.456  -0.424  -0.412  -0.389
 -0.378  -0.360  -0.353  -0.244
 -- Virtual --
 -0.164  -0.063   0.084   0.106   0.124   0.138   0.169   0.175
  0.176   0.182   0.250   0.286   0.299   0.352   0.374   0.381
  0.490   0.503   0.559   0.582   0.587   0.692   0.711   0.724
  0.737   0.757   0.763   0.783   0.807   0.812   0.851   0.855
  0.870   0.876   0.910   0.932   0.940   1.060   1.186   1.293
  1.344   1.345   1.382   1.520   1.649   1.798   1.824   1.884
  1.896   2.022   2.038   2.044   2.068   2.069   2.099   2.102
  2.126   2.127   2.269   2.275   2.360   2.375   2.485   2.557
  2.607   2.666   2.718   2.753   2.756   2.849   2.857   2.901
  2.945   3.152   3.199   3.353   3.415   3.437   3.451   3.500
  3.954   4.245   4.475   4.598
 --------------------------------------------------------------
 
          Ground-State Mulliken Net Atomic Charges

     Atom                 Charge (a.u.)    Spin (a.u.)
  --------------------------------------------------------
      1 S                    -0.098080       1.079689
      2 C                    -0.097988       0.946722
      3 C                    -0.331263      -0.070673
      4 C                    -0.331377      -0.070666
      5 H                     0.104573      -0.038539
      6 H                     0.118083       0.062484
      7 H                     0.120829       0.008756
      8 H                     0.115200       0.015747
      9 H                     0.118121       0.062471
     10 H                     0.120962       0.008775
     11 H                     0.115103       0.015721
     12 H                     0.045836      -0.020488
  --------------------------------------------------------
  Sum of atomic charges =    -0.000000
  Sum of spin   charges =     2.000000

 -----------------------------------------------------------------
                    Cartesian Multipole Moments
 -----------------------------------------------------------------
    Charge (ESU x 10^10)
                 0.0000
    Dipole Moment (Debye)
         X      -2.1491      Y      -0.0017      Z      -0.7403
       Tot       2.2730
    Quadrupole Moments (Debye-Ang)
        XX     -39.9443     XY      -0.0219     YY     -35.4251
        XZ      -2.7771     YZ       0.0517     ZZ     -33.9371
    Octopole Moments (Debye-Ang^2)
       XXX     -85.3140    XXY      -0.1294    XYY     -28.0186
       YYY      -0.0618    XXZ     -21.4642    XYZ       0.1355
       YYZ     -15.6319    XZZ     -22.9467    YZZ       0.0893
       ZZZ     -37.2129
    Hexadecapole Moments (Debye-Ang^3)
      XXXX    -858.6349   XXXY      -0.7557   XXYY    -190.8483
      XYYY      -0.3130   YYYY    -221.9457   XXXZ    -132.4126
      XXYZ       0.3343   XYYZ     -43.2867   YYYZ      -0.0211
      XXZZ    -163.9233   XYZZ       0.1996   YYZZ     -64.3360
      XZZZ    -110.8730   YZZZ       0.1518   ZZZZ    -139.4021
 -----------------------------------------------------------------
 Calculating analytic gradient of the SCF energy
 Gradient of SCF Energy
            1           2           3           4           5           6
    1   0.0006453  -0.0003800  -0.0000722  -0.0000697  -0.0001087  -0.0000115
    2   0.0000071   0.0000008  -0.0000106   0.0000115   0.0000002   0.0000169
    3   0.0002558  -0.0001443  -0.0000378  -0.0000366  -0.0000683   0.0000255
            7           8           9          10          11          12
    1  -0.0000153   0.0000235  -0.0000109  -0.0000146   0.0000236  -0.0000095
    2   0.0000000  -0.0000038  -0.0000167   0.0000001   0.0000038  -0.0000094
    3  -0.0000168   0.0000054   0.0000252  -0.0000164   0.0000056   0.0000027
 Max gradient component =       6.453E-04
 RMS gradient           =       1.376E-04
 Gradient time:  CPU 7.84 s  wall 0.66 s
 Geometry Optimization Parameters
   NAtoms,    NIC,     NZ,  NCons,   NDum,   NFix, NCnnct, MaxDiis
       12      84       0       1       0       0       0       0


** CONSTRAINED OPTIMIZATION IN DELOCALIZED INTERNAL COORDINATES **
   Searching for a Minimum

   Optimization Cycle:   1

                       Coordinates (Angstroms)
     ATOM                X               Y               Z
      1  S         2.8989250000    0.0014150000    1.0052020000
      2  C        -0.4227870000   -0.0005140000   -0.3826830000
      3  C        -0.9607540000   -1.2983730000    0.1262240000
      4  C        -0.9572760000    1.2986080000    0.1267010000
      5  H         0.0455080000   -0.0009070000   -1.3661820000
      6  H        -1.9677840000   -1.5013560000   -0.2783710000
      7  H        -0.3281600000   -2.1456390000   -0.1559580000
      8  H        -1.0625500000   -1.2925860000    1.2182730000
      9  H        -1.9635200000    1.5047160000   -0.2782530000
     10  H        -0.3220730000    2.1441750000   -0.1547270000
     11  H        -1.0596500000    1.2924970000    1.2187020000
     12  H         1.6300190000   -0.0012350000    0.4834800000
   Point Group: c1    Number of degrees of freedom:    30


   Energy is   -517.235807226

              Constraints and their Current Values
                                        Value     Constraint
   Distance(Angs):        1   2             3.600000     3.500000

 Attempting to Generate Delocalized Internal Coordinates

   Using Lagrange Multiplier Algorithm


 31 Hessian modes will be used to form the next step
  Hessian Eigenvalues:
    -0.994131    0.045000    0.045000    0.050886    0.058949    0.081388
     0.081389    0.082665    0.082665    0.084335    0.100409    0.104363
     0.121317    0.160000    0.160000    0.160000    0.160000    0.160000
     0.160000    0.172725    0.189933    0.315673    0.329851    0.329863
     0.332341    0.332348    0.340378    0.340387    0.343113    0.343117
     1.005904

 Minimum Search - Taking P-RFO Step
 Searching for Lamda that Maximizes Along the Constraint modes Only
 Value Taken    Lamda =   0.01762444
 Searching for Lamda that Minimizes Along All other modes
 Value Taken    Lamda =  -0.01747125
 Step Taken.  Stepsize is  0.185722

                             Maximum     Tolerance    Cnvgd?
         Gradient            0.188972       0.000300      NO
         Displacement        0.185713       0.001200      NO
         Energy change     *********       0.000001      NO


 New Cartesian Coordinates Obtained by Inverse Iteration

 Displacement from previous Coordinates is:  0.199294
 ----------------------------------------------------------------
             Standard Nuclear Orientation (Angstroms)
    I     Atom           X                Y                Z
 ----------------------------------------------------------------
    1      S       2.8091508446     0.0013529987     0.9889247980
    2      C      -0.4137518320    -0.0005006747    -0.3803707459
    3      C      -0.9478227620    -1.2998346063     0.1288285826
    4      C      -0.9443572724     1.3000821221     0.1292981628
    5      H       0.0485561357    -0.0009023546    -1.3717792154
    6      H      -1.9554908452    -1.5045479162    -0.2733001262
    7      H      -0.3142572245    -2.1455921691    -0.1557076830
    8      H      -1.0467752652    -1.2951797119     1.2211462563
    9      H      -1.9512384374     1.5079071176    -0.2731898812
   10      H      -0.3081966613     2.1441448306    -0.1544902631
   11      H      -1.0438859377     1.2951007569     1.2215695350
   12      H       1.5979672573    -0.0012293930     0.4814785801
 ----------------------------------------------------------------
 Nuclear Repulsion Energy =   140.1072129411 hartrees
 There are       22 alpha and       20 beta electrons

                       Distance Matrix (Angstroms)
             S (  1)   C (  2)   C (  3)   C (  4)   H (  5)   H (  6)
   C (  2)  3.501725
   C (  3)  4.067887  1.494250
   C (  4)  4.063801  1.494262  2.599919
   H (  5)  3.632329  1.093901  2.220770  2.220737
   H (  6)  5.153907  2.156521  1.104088  3.008393  2.735655
   H (  7)  3.959196  2.159118  1.094382  3.514388  2.492019  1.765903
   H (  8)  4.074689  2.154477  1.096800  2.817447  3.098091  1.761525
   H (  9)  5.150140  2.156536  3.008633  1.104082  2.735431  3.012458
   H ( 10)  3.951811  2.159090  3.514312  1.094385  2.492046  4.005078
   H ( 11)  4.071093  2.154499  2.817268  1.096808  3.098146  3.302074
   H ( 12)  1.313192  2.188561  2.879546  2.877648  2.415624  3.931504
             H (  7)   H (  8)   H (  9)   H ( 10)   H ( 11)
   H (  8)  1.776376
   H (  9)  4.005192  3.302785
   H ( 10)  4.289741  3.777145  1.765920
   H ( 11)  3.777250  2.590282  1.761500  1.776416
   H ( 12)  2.942941  3.035800  3.929870  2.939481  3.034402
 
 Applying Cartesian multipole field
    Component          Value
    ---------          -----
     (2,0,0)        1.00000E-11
     (0,2,0)        2.00000E-11
     (0,0,2)       -3.00000E-11
 Nucleus-field energy     =     0.0000000057 hartrees
 Requested basis set is 6-31G(d,p)
 There are 41 shells and 104 basis functions
 A cutoff of  1.0D-14 yielded    820 shell pairs
 There are      5334 function pairs
 Smallest overlap matrix eigenvalue = 6.36E-03
 Guess from superposition of atomic densities
 Warning:  Energy on first SCF cycle will be non-variational
 SAD guess density has 42.000000 electrons

 -----------------------------------------------------------------------
  General SCF calculation program by
  Eric Jon Sundstrom, Paul Horn, Yuezhi Mao, Dmitri Zuev, Alec White,
  David Stuck, Shaama M.S., Shane Yost, Joonho Lee, David Small,
  Daniel Levine, Susi Lehtola, Hugh Burton, Evgeny Epifanovsky
 -----------------------------------------------------------------------
 Exchange:     0.2000 Hartree-Fock + 0.0800 Slater + 0.7200 B88
 Correlation:  0.1900 VWN1RPA + 0.8100 LYP
 Using SG-1 standard quadrature grid
 using 12 threads for integral computing
 -------------------------------------------------------
 OpenMP Integral computing Module                
 Release: version 1.0, May 2013, Q-Chem Inc. Pittsburgh 
 -------------------------------------------------------
 -------------------------------------------------------
 OpenMP BLAS3 based DFT computing Module                
 Release: version 1.0, May 2013, Q-Chem Inc. Pittsburgh 
 -------------------------------------------------------
 A unrestricted SCF calculation will be
 performed using DIIS
 SCF converges when DIIS error is below 1.0e-06
 Alpha HF Exchange    Energy =  -4.32478436166124
 Beta HF Exchange     Energy =  -4.32478436166124
 DFT Correlation      Energy =  -1.85934021170186
 DFT Exchange         Energy = -33.95587779298178
 One-Electron (alpha) Energy = -491.40178717204293
 One-Electron (beta)  Energy = -491.40178717204293
 Total Coulomb        Energy = 369.67217806733493
 ---------------------------------------
  Cycle       Energy         DIIS error
 ---------------------------------------
    1    -517.4889700579      2.86e-02  
 Alpha HF Exchange    Energy =  -4.45537718262381
 Beta HF Exchange     Energy =  -4.27117987564779
 DFT Correlation      Energy =  -1.87942179183108
 DFT Exchange         Energy = -34.60280013600017
 One-Electron (alpha) Energy = -506.68531203959714
 One-Electron (beta)  Energy = -482.92066771384776
 Total Coulomb        Energy = 377.55931979309941
    2    -517.1482259996      3.76e-03  
 Alpha HF Exchange    Energy =  -4.39864357253569
 Beta HF Exchange     Energy =  -4.21986746791961
 DFT Correlation      Energy =  -1.85133372179612
 DFT Exchange         Energy = -34.14559748122623
 One-Electron (alpha) Energy = -503.33649483186679
 One-Electron (beta)  Energy = -479.56754580942845
 Total Coulomb        Energy = 370.27164148219197
    3    -517.1406284558      3.98e-03  
 Alpha HF Exchange    Energy =  -4.42762139546904
 Beta HF Exchange     Energy =  -4.24442516423346
 DFT Correlation      Energy =  -1.86473509416270
 DFT Exchange         Energy = -34.36797104915340
 One-Electron (alpha) Energy = -505.14345615862572
 One-Electron (beta)  Energy = -481.20485235572357
 Total Coulomb        Energy = 373.91219426849085
    4    -517.2336540021      2.55e-04  
 Alpha HF Exchange    Energy =  -4.42848614697446
 Beta HF Exchange     Energy =  -4.24533130550130
 DFT Correlation      Energy =  -1.86452435611414
 DFT Exchange         Energy = -34.37390861392977
 One-Electron (alpha) Energy = -505.18248153335651
 One-Electron (beta)  Energy = -481.18719766666959
 Total Coulomb        Energy = 373.94072643126066
    5    -517.2339902445      1.48e-04  
 Alpha HF Exchange    Energy =  -4.42858132768905
 Beta HF Exchange     Energy =  -4.24498081014178
 DFT Correlation      Energy =  -1.86441517515421
 DFT Exchange         Energy = -34.37271479543518
 One-Electron (alpha) Energy = -505.18555761246091
 One-Electron (beta)  Energy = -481.17458673688628
 Total Coulomb        Energy = 373.92950022719208
    6    -517.2341232838      3.94e-05  
 Alpha HF Exchange    Energy =  -4.42846418786580
 Beta HF Exchange     Energy =  -4.24493474527101
 DFT Correlation      Energy =  -1.86433150906154
 DFT Exchange         Energy = -34.37192440607929
 One-Electron (alpha) Energy = -505.17901375947031
 One-Electron (beta)  Energy = -481.16363451245604
 Total Coulomb        Energy = 373.91095682352301
    7    -517.2341333499      1.08e-05  
 Alpha HF Exchange    Energy =  -4.42855959079352
 Beta HF Exchange     Energy =  -4.24497920704879
 DFT Correlation      Energy =  -1.86433572618496
 DFT Exchange         Energy = -34.37244242613171
 One-Electron (alpha) Energy = -505.18486722458658
 One-Electron (beta)  Energy = -481.16606043232485
 Total Coulomb        Energy = 373.91989721404184
    8    -517.2341344462      3.53e-06  
 Alpha HF Exchange    Energy =  -4.42854134432470
 Beta HF Exchange     Energy =  -4.24496843120032
 DFT Correlation      Energy =  -1.86432571808745
 DFT Exchange         Energy = -34.37232085798463
 One-Electron (alpha) Energy = -505.18337964666517
 One-Electron (beta)  Energy = -481.16477872772458
 Total Coulomb        Energy = 373.91696721907971
    9    -517.2341345601      9.35e-07  Convergence criterion met
 ---------------------------------------
 SCF time:   CPU 20.07s  wall 2.00s 
<S^2> =          2.006044266
 Alpha HF Exchange    Energy =  -4.42854134432470
 Beta HF Exchange     Energy =  -4.24496843120032
 DFT Correlation      Energy =  -1.86432571808745
 DFT Exchange         Energy = -34.37232085798463
 One-Electron (alpha) Energy = -505.18337964666517
 One-Electron (beta)  Energy = -481.16477872772458
 Total Coulomb        Energy = 373.91696721907971
 Nuclear repulsion Energy = 140.10721294682406
 SCF   energy in the final basis set =     -517.2341345601
 Total energy in the final basis set =     -517.2341345601
 
 --------------------------------------------------------------
 
                    Orbital Energies (a.u.)
 --------------------------------------------------------------
 
 Alpha MOs
 -- Occupied --
-88.890 -10.206 -10.188 -10.188  -7.953  -5.925  -5.914  -5.906
 -0.793  -0.729  -0.700  -0.581  -0.461  -0.444  -0.417  -0.398
 -0.395  -0.364  -0.357  -0.307  -0.260  -0.199
 -- Virtual --
  0.080   0.100   0.120   0.135   0.161   0.167   0.171   0.181
  0.239   0.275   0.280   0.341   0.344   0.367   0.488   0.501
  0.547   0.576   0.585   0.672   0.694   0.702   0.712   0.737
  0.744   0.746   0.752   0.775   0.846   0.850   0.861   0.873
  0.903   0.926   0.937   1.066   1.222   1.283   1.332   1.339
  1.366   1.520   1.643   1.789   1.804   1.859   1.874   1.996
  2.034   2.039   2.065   2.073   2.101   2.108   2.127   2.139
  2.256   2.272   2.359   2.368   2.471   2.543   2.593   2.661
  2.714   2.750   2.823   2.843   2.862   2.900   2.939   3.148
  3.194   3.344   3.412   3.434   3.448   3.491   3.937   4.234
  4.475   4.586
 
 Beta MOs
 -- Occupied --
-88.885 -10.193 -10.189 -10.189  -7.948  -5.910  -5.907  -5.903
 -0.776  -0.697  -0.688  -0.561  -0.456  -0.424  -0.411  -0.389
 -0.382  -0.360  -0.352  -0.245
 -- Virtual --
 -0.165  -0.060   0.092   0.114   0.124   0.138   0.169   0.175
  0.176   0.182   0.250   0.287   0.293   0.355   0.373   0.381
  0.490   0.504   0.562   0.585   0.589   0.699   0.711   0.724
  0.738   0.754   0.760   0.788   0.806   0.811   0.851   0.855
  0.869   0.877   0.910   0.932   0.940   1.077   1.228   1.292
  1.345   1.354   1.386   1.520   1.650   1.799   1.825   1.885
  1.896   2.022   2.039   2.044   2.070   2.076   2.103   2.114
  2.133   2.139   2.269   2.274   2.360   2.378   2.490   2.558
  2.606   2.666   2.718   2.755   2.829   2.849   2.867   2.908
  2.943   3.153   3.199   3.350   3.415   3.437   3.452   3.497
  3.957   4.250   4.475   4.601
 --------------------------------------------------------------
 
          Ground-State Mulliken Net Atomic Charges

     Atom                 Charge (a.u.)    Spin (a.u.)
  --------------------------------------------------------
      1 S                    -0.094066       1.073782
      2 C                    -0.103037       0.950918
      3 C                    -0.330213      -0.070725
      4 C                    -0.330375      -0.070718
      5 H                     0.103358      -0.038713
      6 H                     0.117963       0.062508
      7 H                     0.120759       0.008962
      8 H                     0.114560       0.015568
      9 H                     0.118016       0.062496
     10 H                     0.120921       0.008983
     11 H                     0.114439       0.015541
     12 H                     0.047676      -0.018603
  --------------------------------------------------------
  Sum of atomic charges =    -0.000000
  Sum of spin   charges =     2.000000

 -----------------------------------------------------------------
                    Cartesian Multipole Moments
 -----------------------------------------------------------------
    Charge (ESU x 10^10)
                 0.0000
    Dipole Moment (Debye)
         X      -2.0894      Y      -0.0017      Z      -0.7291
       Tot       2.2130
    Quadrupole Moments (Debye-Ang)
        XX     -39.7130     XY      -0.0265     YY     -35.3689
        XZ      -2.7486     YZ       0.0609     ZZ     -33.9036
    Octopole Moments (Debye-Ang^2)
       XXX     -81.1834    XXY      -0.1494    XYY     -26.7360
       YYY      -0.0594    XXZ     -21.0250    XYZ       0.1536
       YYZ     -15.4007    XZZ     -21.9118    YZZ       0.1067
       ZZZ     -36.6572
    Hexadecapole Moments (Debye-Ang^3)
      XXXX    -811.2865   XXXY      -0.8235   XXYY    -182.4595
      XYYY      -0.3053   YYYY    -222.3161   XXXZ    -125.5795
      XXYZ       0.3674   XYYZ     -41.1333   YYYZ      -0.0070
      XXZZ    -156.2346   XYZZ       0.2360   YYZZ     -63.9078
      XZZZ    -105.5245   YZZZ       0.1882   ZZZZ    -137.0549
 -----------------------------------------------------------------
 Calculating analytic gradient of the SCF energy
 Gradient of SCF Energy
            1           2           3           4           5           6
    1  -0.0294836  -0.0004397   0.0002131   0.0002123   0.0010372  -0.0000074
    2  -0.0000626   0.0000067  -0.0002295   0.0002284  -0.0000042   0.0000790
    3  -0.0125173   0.0035319  -0.0001555  -0.0001504  -0.0026901  -0.0000063
            7           8           9          10          11          12
    1  -0.0000512   0.0000316  -0.0000075  -0.0000512   0.0000340   0.0285125
    2  -0.0000137   0.0000344  -0.0000786   0.0000141  -0.0000333   0.0000593
    3  -0.0000200  -0.0000551  -0.0000083  -0.0000182  -0.0000570   0.0121463
 Max gradient component =       2.948E-02
 RMS gradient           =       7.468E-03
 Gradient time:  CPU 7.79 s  wall 0.65 s
 Geometry Optimization Parameters
   NAtoms,    NIC,     NZ,  NCons,   NDum,   NFix, NCnnct, MaxDiis
       12      84       0       1       0       0       0       0

 Cartesian Hessian Update
 Hessian Updated using BFGS Update


** CONSTRAINED OPTIMIZATION IN DELOCALIZED INTERNAL COORDINATES **
   Searching for a Minimum

   Optimization Cycle:   2

                       Coordinates (Angstroms)
     ATOM                X               Y               Z
      1  S         2.8091508446    0.0013529987    0.9889247980
      2  C        -0.4137518320   -0.0005006747   -0.3803707459
      3  C        -0.9478227620   -1.2998346063    0.1288285826
      4  C        -0.9443572724    1.3000821221    0.1292981628
      5  H         0.0485561357   -0.0009023546   -1.3717792154
      6  H        -1.9554908452   -1.5045479162   -0.2733001262
      7  H        -0.3142572245   -2.1455921691   -0.1557076830
      8  H        -1.0467752652   -1.2951797119    1.2211462563
      9  H        -1.9512384374    1.5079071176   -0.2731898812
     10  H        -0.3081966613    2.1441448306   -0.1544902631
     11  H        -1.0438859377    1.2951007569    1.2215695350
     12  H         1.5979672573   -0.0012293930    0.4814785801
   Point Group: c1    Number of degrees of freedom:    30


   Energy is   -517.234134560

              Constraints and their Current Values
                                        Value     Constraint
   Distance(Angs):        1   2             3.501725     3.500000
 Hessian Updated using BFGS Update

   Using Lagrange Multiplier Algorithm


 27 Hessian modes will be used to form the next step
  Hessian Eigenvalues:
    -0.951085    0.044997    0.045000    0.052053    0.060545    0.081388
     0.081389    0.082665    0.082665    0.084335    0.100409    0.104363
     0.159988    0.160000    0.168838    0.189932    0.221235    0.315673
     0.329852    0.329865    0.332341    0.332348    0.340379    0.340389
     0.343113    0.343117    1.063385

 Minimum Search - Taking P-RFO Step
 Searching for Lamda that Maximizes Along the Constraint modes Only
 Value Taken    Lamda =   0.00019705
 Searching for Lamda that Minimizes Along All other modes
 Value Taken    Lamda =  -0.00191186
 Step Taken.  Stepsize is  0.096134

                             Maximum     Tolerance    Cnvgd?
         Gradient            0.018239       0.000300      NO
         Displacement        0.087729       0.001200      NO
         Energy change      0.001673       0.000001      NO


 New Cartesian Coordinates Obtained by Inverse Iteration

 Displacement from previous Coordinates is:  0.057837
 ----------------------------------------------------------------
             Standard Nuclear Orientation (Angstroms)
    I     Atom           X                Y                Z
 ----------------------------------------------------------------
    1      S       2.8081882599     0.0013994641     0.9931264835
    2      C      -0.4108249521    -0.0005064645    -0.3809072639
    3      C      -0.9449228434    -1.2994898038     0.1292481206
    4      C      -0.9414469574     1.2997288428     0.1297178380
    5      H       0.0494519690    -0.0009018674    -1.3706279397
    6      H      -1.9526535513    -1.5049187137    -0.2723663953
    7      H      -0.3111739444    -2.1452660584    -0.1548698841
    8      H      -1.0435968569    -1.2942836122     1.2216444260
    9      H      -1.9483879440     1.5082854092    -0.2722473654
   10      H      -0.3050913861     2.1438000986    -0.1536562796
   11      H      -1.0406994499     1.2941922963     1.2220693268
   12      H       1.5710556565    -0.0012385909     0.4712769330
 ----------------------------------------------------------------
 Nuclear Repulsion Energy =   140.0622596792 hartrees
 There are       22 alpha and       20 beta electrons

                       Distance Matrix (Angstroms)
             S (  1)   C (  2)   C (  3)   C (  4)   H (  5)   H (  6)
   C (  2)  3.500003
   C (  3)  4.065027  1.494281
   C (  4)  4.060899  1.494292  2.599221
   H (  5)  3.632901  1.091514  2.219176  2.219135
   H (  6)  5.151318  2.156913  1.104091  3.008365  2.734350
   H (  7)  3.956828  2.158939  1.094394  3.513719  2.491268  1.765872
   H (  8)  4.070290  2.154630  1.096856  2.816317  3.096364  1.761482
   H (  9)  5.147513  2.156933  3.008611  1.104084  2.734127  3.013207
   H ( 10)  3.949367  2.158906  3.513640  1.094397  2.491278  4.005209
   H ( 11)  4.066653  2.154651  2.816135  1.096865  3.096414  3.301518
   H ( 12)  1.342695  2.157329  2.851769  2.849886  2.389119  3.902638
             H (  7)   H (  8)   H (  9)   H ( 10)   H ( 11)
   H (  8)  1.776346
   H (  9)  4.005332  3.302235
   H ( 10)  4.289071  3.775879  1.765890
   H ( 11)  3.775982  2.588478  1.761453  1.776393
   H ( 12)  2.920908  3.011881  3.901022  2.917475  3.010497
 
 Applying Cartesian multipole field
    Component          Value
    ---------          -----
     (2,0,0)        1.00000E-11
     (0,2,0)        2.00000E-11
     (0,0,2)       -3.00000E-11
 Nucleus-field energy     =     0.0000000057 hartrees
 Requested basis set is 6-31G(d,p)
 There are 41 shells and 104 basis functions
 A cutoff of  1.0D-14 yielded    820 shell pairs
 There are      5334 function pairs
 Smallest overlap matrix eigenvalue = 6.34E-03
 Guess from superposition of atomic densities
 Warning:  Energy on first SCF cycle will be non-variational
 SAD guess density has 42.000000 electrons

 -----------------------------------------------------------------------
  General SCF calculation program by
  Eric Jon Sundstrom, Paul Horn, Yuezhi Mao, Dmitri Zuev, Alec White,
  David Stuck, Shaama M.S., Shane Yost, Joonho Lee, David Small,
  Daniel Levine, Susi Lehtola, Hugh Burton, Evgeny Epifanovsky
 -----------------------------------------------------------------------
 Exchange:     0.2000 Hartree-Fock + 0.0800 Slater + 0.7200 B88
 Correlation:  0.1900 VWN1RPA + 0.8100 LYP
 Using SG-1 standard quadrature grid
 using 12 threads for integral computing
 -------------------------------------------------------
 OpenMP Integral computing Module                
 Release: version 1.0, May 2013, Q-Chem Inc. Pittsburgh 
 -------------------------------------------------------
 -------------------------------------------------------
 OpenMP BLAS3 based DFT computing Module                
 Release: version 1.0, May 2013, Q-Chem Inc. Pittsburgh 
 -------------------------------------------------------
 A unrestricted SCF calculation will be
 performed using DIIS
 SCF converges when DIIS error is below 1.0e-06
 Alpha HF Exchange    Energy =  -4.32371827392274
 Beta HF Exchange     Energy =  -4.32371827392274
 DFT Correlation      Energy =  -1.85921491552119
 DFT Exchange         Energy = -33.95307611653698
 One-Electron (alpha) Energy = -491.36966976379142
 One-Electron (beta)  Energy = -491.36966976379142
 Total Coulomb        Energy = 369.65856818084308
 ---------------------------------------
  Cycle       Energy         DIIS error
 ---------------------------------------
    1    -517.4782392417      2.84e-02  
 Alpha HF Exchange    Energy =  -4.45422200556277
 Beta HF Exchange     Energy =  -4.27003843009471
 DFT Correlation      Energy =  -1.87920987058273
 DFT Exchange         Energy = -34.59517415305487
 One-Electron (alpha) Energy = -506.63782382055308
 One-Electron (beta)  Energy = -482.86809431166375
 Total Coulomb        Energy = 377.49252218014658
    2    -517.1497807265      3.76e-03  
 Alpha HF Exchange    Energy =  -4.39773004082303
 Beta HF Exchange     Energy =  -4.21896874483325
 DFT Correlation      Energy =  -1.85124812891131
 DFT Exchange         Energy = -34.14008217852901
 One-Electron (alpha) Energy = -503.31099723052228
 One-Electron (beta)  Energy = -479.53248226497976
 Total Coulomb        Energy = 370.24718953964691
    3    -517.1420593641      3.98e-03  
 Alpha HF Exchange    Energy =  -4.42664629032604
 Beta HF Exchange     Energy =  -4.24340058650580
 DFT Correlation      Energy =  -1.86459336960662
 DFT Exchange         Energy = -34.36151793214045
 One-Electron (alpha) Energy = -505.10702982096166
 One-Electron (beta)  Energy = -481.15972562323333
 Total Coulomb        Energy = 373.86576304805527
    4    -517.2348908898      2.66e-04  
 Alpha HF Exchange    Energy =  -4.42752567298015
 Beta HF Exchange     Energy =  -4.24433809193878
 DFT Correlation      Energy =  -1.86438912224443
 DFT Exchange         Energy = -34.36761068605919
 One-Electron (alpha) Energy = -505.14802331419526
 One-Electron (beta)  Energy = -481.14341105150618
 Total Coulomb        Energy = 373.89778465084680
    5    -517.2352536032      1.54e-04  
 Alpha HF Exchange    Energy =  -4.42762328705690
 Beta HF Exchange     Energy =  -4.24397264641857
 DFT Correlation      Energy =  -1.86427363150727
 DFT Exchange         Energy = -34.36635068408604
 One-Electron (alpha) Energy = -505.15048856274313
 One-Electron (beta)  Energy = -481.12959658257597
 Total Coulomb        Energy = 373.88464623921880
    6    -517.2353994703      4.00e-05  
 Alpha HF Exchange    Energy =  -4.42750787785109
 Beta HF Exchange     Energy =  -4.24392507786690
 DFT Correlation      Energy =  -1.86418806455189
 DFT Exchange         Energy = -34.36555289449382
 One-Electron (alpha) Energy = -505.14402583048314
 One-Electron (beta)  Energy = -481.11834468182059
 Total Coulomb        Energy = 373.86587485402896
    7    -517.2354098881      1.11e-05  
 Alpha HF Exchange    Energy =  -4.42760736718588
 Beta HF Exchange     Energy =  -4.24397068858547
 DFT Correlation      Energy =  -1.86419273812526
 DFT Exchange         Energy = -34.36608904106316
 One-Electron (alpha) Energy = -505.15013853043274
 One-Electron (beta)  Energy = -481.12083483635041
 Total Coulomb        Energy = 373.87516248199233
    8    -517.2354110349      3.72e-06  
 Alpha HF Exchange    Energy =  -4.42758848919371
 Beta HF Exchange     Energy =  -4.24395910892513
 DFT Correlation      Energy =  -1.86418223370302
 DFT Exchange         Energy = -34.36596113886583
 One-Electron (alpha) Energy = -505.14860794079914
 One-Electron (beta)  Energy = -481.11945269120758
 Total Coulomb        Energy = 373.87208075743496
    9    -517.2354111604      9.90e-07  Convergence criterion met
 ---------------------------------------
 SCF time:   CPU 20.18s  wall 1.00s 
<S^2> =          2.006105365
 Alpha HF Exchange    Energy =  -4.42758848919371
 Beta HF Exchange     Energy =  -4.24395910892513
 DFT Correlation      Energy =  -1.86418223370302
 DFT Exchange         Energy = -34.36596113886583
 One-Electron (alpha) Energy = -505.14860794079914
 One-Electron (beta)  Energy = -481.11945269120758
 Total Coulomb        Energy = 373.87208075743496
 Nuclear repulsion Energy = 140.06225968489983
 SCF   energy in the final basis set =     -517.2354111604
 Total energy in the final basis set =     -517.2354111604
 
 --------------------------------------------------------------
 
                    Orbital Energies (a.u.)
 --------------------------------------------------------------
 
 Alpha MOs
 -- Occupied --
-88.891 -10.208 -10.189 -10.189  -7.953  -5.925  -5.914  -5.906
 -0.793  -0.724  -0.700  -0.582  -0.462  -0.444  -0.418  -0.395
 -0.395  -0.364  -0.358  -0.306  -0.259  -0.200
 -- Virtual --
  0.076   0.099   0.120   0.135   0.160   0.166   0.171   0.181
  0.239   0.279   0.279   0.341   0.344   0.368   0.488   0.500
  0.546   0.575   0.585   0.672   0.693   0.701   0.714   0.736
  0.747   0.748   0.753   0.777   0.846   0.850   0.862   0.873
  0.902   0.926   0.936   1.063   1.206   1.282   1.335   1.339
  1.365   1.520   1.642   1.788   1.802   1.857   1.873   1.997
  2.034   2.039   2.064   2.068   2.100   2.106   2.125   2.136
  2.256   2.272   2.359   2.367   2.469   2.542   2.594   2.662
  2.714   2.750   2.793   2.842   2.855   2.896   2.939   3.148
  3.194   3.345   3.412   3.434   3.447   3.492   3.938   4.237
  4.475   4.588
 
 Beta MOs
 -- Occupied --
-88.885 -10.195 -10.190 -10.190  -7.947  -5.910  -5.906  -5.902
 -0.777  -0.698  -0.682  -0.562  -0.456  -0.425  -0.412  -0.389
 -0.378  -0.360  -0.353  -0.244
 -- Virtual --
 -0.163  -0.063   0.090   0.111   0.124   0.138   0.169   0.175
  0.176   0.182   0.250   0.286   0.296   0.355   0.374   0.381
  0.490   0.503   0.561   0.584   0.589   0.698   0.710   0.723
  0.737   0.757   0.764   0.790   0.807   0.812   0.851   0.855
  0.870   0.876   0.909   0.932   0.940   1.076   1.210   1.292
  1.344   1.356   1.385   1.520   1.648   1.797   1.824   1.884
  1.895   2.022   2.038   2.044   2.069   2.070   2.102   2.111
  2.131   2.137   2.269   2.274   2.360   2.378   2.487   2.558
  2.607   2.666   2.718   2.755   2.799   2.849   2.860   2.903
  2.943   3.152   3.199   3.352   3.415   3.437   3.451   3.498
  3.957   4.252   4.474   4.603
 --------------------------------------------------------------
 
          Ground-State Mulliken Net Atomic Charges

     Atom                 Charge (a.u.)    Spin (a.u.)
  --------------------------------------------------------
      1 S                    -0.096458       1.083030
      2 C                    -0.103530       0.943262
      3 C                    -0.329717      -0.070078
      4 C                    -0.329910      -0.070071
      5 H                     0.105296      -0.038168
      6 H                     0.118330       0.062084
      7 H                     0.121338       0.008929
      8 H                     0.115148       0.015448
      9 H                     0.118395       0.062074
     10 H                     0.121520       0.008950
     11 H                     0.115005       0.015420
     12 H                     0.044583      -0.020880
  --------------------------------------------------------
  Sum of atomic charges =    -0.000000
  Sum of spin   charges =     2.000000

 -----------------------------------------------------------------
                    Cartesian Multipole Moments
 -----------------------------------------------------------------
    Charge (ESU x 10^10)
                -0.0000
    Dipole Moment (Debye)
         X      -2.1499      Y      -0.0017      Z      -0.7544
       Tot       2.2784
    Quadrupole Moments (Debye-Ang)
        XX     -39.7959     XY      -0.0315     YY     -35.3701
        XZ      -2.7836     YZ       0.0722     ZZ     -33.9331
    Octopole Moments (Debye-Ang^2)
       XXX     -81.5843    XXY      -0.1782    XYY     -26.8839
       YYY      -0.0610    XXZ     -21.1518    XYZ       0.1810
       YYZ     -15.4850    XZZ     -22.0618    YZZ       0.1295
       ZZZ     -36.9142
    Hexadecapole Moments (Debye-Ang^3)
      XXXX    -810.5038   XXXY      -0.9547   XXYY    -182.3010
      XYYY      -0.3178   YYYY    -222.0817   XXXZ    -126.0924
      XXYZ       0.4329   XYYZ     -41.3354   YYYZ       0.0038
      XXZZ    -156.3199   XYZZ       0.2928   YYZZ     -64.0206
      XZZZ    -106.0332   YZZZ       0.2354   ZZZZ    -137.7117
 -----------------------------------------------------------------
 Calculating analytic gradient of the SCF energy
 Gradient of SCF Energy
            1           2           3           4           5           6
    1  -0.0143433  -0.0001298   0.0002019   0.0001990   0.0004846  -0.0000548
    2  -0.0000249   0.0000080  -0.0000125   0.0000099  -0.0000043  -0.0000260
    3  -0.0060951   0.0017990  -0.0002167  -0.0002121  -0.0012525   0.0000411
            7           8           9          10          11          12
    1  -0.0000336   0.0000050  -0.0000543  -0.0000334   0.0000089   0.0137500
    2  -0.0000273  -0.0000035   0.0000265   0.0000278   0.0000049   0.0000214
    3  -0.0000224   0.0000269   0.0000388  -0.0000199   0.0000246   0.0058884
 Max gradient component =       1.434E-02
 RMS gradient           =       3.620E-03
 Gradient time:  CPU 7.74 s  wall 0.65 s
 Geometry Optimization Parameters
   NAtoms,    NIC,     NZ,  NCons,   NDum,   NFix, NCnnct, MaxDiis
       12      84       0       1       0       0       0       0

 Cartesian Hessian Update
 Hessian Updated using BFGS Update


** CONSTRAINED OPTIMIZATION IN DELOCALIZED INTERNAL COORDINATES **
   Searching for a Minimum

   Optimization Cycle:   3

                       Coordinates (Angstroms)
     ATOM                X               Y               Z
      1  S         2.8081882599    0.0013994641    0.9931264835
      2  C        -0.4108249521   -0.0005064645   -0.3809072639
      3  C        -0.9449228434   -1.2994898038    0.1292481206
      4  C        -0.9414469574    1.2997288428    0.1297178380
      5  H         0.0494519690   -0.0009018674   -1.3706279397
      6  H        -1.9526535513   -1.5049187137   -0.2723663953
      7  H        -0.3111739444   -2.1452660584   -0.1548698841
      8  H        -1.0435968569   -1.2942836122    1.2216444260
      9  H        -1.9483879440    1.5082854092   -0.2722473654
     10  H        -0.3050913861    2.1438000986   -0.1536562796
     11  H        -1.0406994499    1.2941922963    1.2220693268
     12  H         1.5710556565   -0.0012385909    0.4712769330
   Point Group: c1    Number of degrees of freedom:    30


   Energy is   -517.235411160

              Constraints and their Current Values
                                        Value     Constraint
   Distance(Angs):        1   2             3.500003     3.500000
 Hessian Updated using BFGS Update

   Using Lagrange Multiplier Algorithm


 28 Hessian modes will be used to form the next step
  Hessian Eigenvalues:
    -0.923270    0.044985    0.045000    0.050837    0.058936    0.081388
     0.081390    0.082664    0.082665    0.084335    0.100409    0.104362
     0.120491    0.159999    0.160000    0.160148    0.173206    0.189935
     0.315684    0.329850    0.329863    0.332343    0.332352    0.340381
     0.340400    0.343113    0.343117    1.097491

 Minimum Search - Taking P-RFO Step
 Searching for Lamda that Maximizes Along the Constraint modes Only
 Value Taken    Lamda =   0.00000151
 Searching for Lamda that Minimizes Along All other modes
 Value Taken    Lamda =  -0.00077914
 Step Taken.  Stepsize is  0.086153

                             Maximum     Tolerance    Cnvgd?
         Gradient            0.007852       0.000300      NO
         Displacement        0.078918       0.001200      NO
         Energy change     -0.001277       0.000001      NO


 New Cartesian Coordinates Obtained by Inverse Iteration

 Displacement from previous Coordinates is:  0.049542
 ----------------------------------------------------------------
             Standard Nuclear Orientation (Angstroms)
    I     Atom           X                Y                Z
 ----------------------------------------------------------------
    1      S       2.8096994398     0.0013634693     0.9962361174
    2      C      -0.4078171209    -0.0005008646    -0.3813016887
    3      C      -0.9427357493    -1.2988284206     0.1299627894
    4      C      -0.9392810346     1.2990762215     0.1304218214
    5      H       0.0509253567    -0.0008658581    -1.3694895334
    6      H      -1.9501998070    -1.5034098056    -0.2724005450
    7      H      -0.3091669029    -2.1450123042    -0.1532207306
    8      H      -1.0418056194    -1.2925788976     1.2222065653
    9      H      -1.9459599504     1.5067701959    -0.2722909186
   10      H      -0.3031110638     2.1435549531    -0.1520360193
   11      H      -1.0389669789     1.2924971379     1.2226230531
   12      H       1.5483174307    -0.0012648270     0.4616970890
 ----------------------------------------------------------------
 Nuclear Repulsion Energy =   140.0010674060 hartrees
 There are       22 alpha and       20 beta electrons

                       Distance Matrix (Angstroms)
             S (  1)   C (  2)   C (  3)   C (  4)   H (  5)   H (  6)
   C (  2)  3.500004
   C (  3)  4.064689  1.494384
   C (  4)  4.060609  1.494395  2.597907
   H (  5)  3.634212  1.089477  2.218203  2.218128
   H (  6)  5.150769  2.156279  1.103963  3.006352  2.732351
   H (  7)  3.956704  2.158861  1.094363  3.512726  2.491253  1.766026
   H (  8)  4.069329  2.154680  1.096745  2.814104  3.095072  1.761670
   H (  9)  5.147009  2.156301  3.006601  1.103955  2.732098  3.010183
   H ( 10)  3.949317  2.158819  3.512641  1.094367  2.491200  4.003466
   H ( 11)  4.065773  2.154708  2.813918  1.096761  3.095109  3.298869
   H ( 12)  1.369972  2.130049  2.828262  2.826442  2.365466  3.877494
             H (  7)   H (  8)   H (  9)   H ( 10)   H ( 11)
   H (  8)  1.776289
   H (  9)  4.003596  3.299602
   H ( 10)  4.288572  3.773755  1.766043
   H ( 11)  3.773861  2.585078  1.761623  1.776365
   H ( 12)  2.902417  2.992424  3.875936  2.899087  2.991132
 
 Applying Cartesian multipole field
    Component          Value
    ---------          -----
     (2,0,0)        1.00000E-11
     (0,2,0)        2.00000E-11
     (0,0,2)       -3.00000E-11
 Nucleus-field energy     =     0.0000000057 hartrees
 Requested basis set is 6-31G(d,p)
 There are 41 shells and 104 basis functions
 A cutoff of  1.0D-14 yielded    820 shell pairs
 There are      5334 function pairs
 Smallest overlap matrix eigenvalue = 6.32E-03
 Guess from superposition of atomic densities
 Warning:  Energy on first SCF cycle will be non-variational
 SAD guess density has 42.000000 electrons

 -----------------------------------------------------------------------
  General SCF calculation program by
  Eric Jon Sundstrom, Paul Horn, Yuezhi Mao, Dmitri Zuev, Alec White,
  David Stuck, Shaama M.S., Shane Yost, Joonho Lee, David Small,
  Daniel Levine, Susi Lehtola, Hugh Burton, Evgeny Epifanovsky
 -----------------------------------------------------------------------
 Exchange:     0.2000 Hartree-Fock + 0.0800 Slater + 0.7200 B88
 Correlation:  0.1900 VWN1RPA + 0.8100 LYP
 Using SG-1 standard quadrature grid
 using 12 threads for integral computing
 -------------------------------------------------------
 OpenMP Integral computing Module                
 Release: version 1.0, May 2013, Q-Chem Inc. Pittsburgh 
 -------------------------------------------------------
 -------------------------------------------------------
 OpenMP BLAS3 based DFT computing Module                
 Release: version 1.0, May 2013, Q-Chem Inc. Pittsburgh 
 -------------------------------------------------------
 A unrestricted SCF calculation will be
 performed using DIIS
 SCF converges when DIIS error is below 1.0e-06
 Alpha HF Exchange    Energy =  -4.32280623562065
 Beta HF Exchange     Energy =  -4.32280623562065
 DFT Correlation      Energy =  -1.85910080982503
 DFT Exchange         Energy = -33.95063936529688
 One-Electron (alpha) Energy = -491.31869205338359
 One-Electron (beta)  Energy = -491.31869205338359
 Total Coulomb        Energy = 369.62295378372062
 ---------------------------------------
  Cycle       Energy         DIIS error
 ---------------------------------------
    1    -517.4687155578      2.83e-02  
 Alpha HF Exchange    Energy =  -4.45322171421976
 Beta HF Exchange     Energy =  -4.26904576355218
 DFT Correlation      Energy =  -1.87902920797838
 DFT Exchange         Energy = -34.58863718915971
 One-Electron (alpha) Energy = -506.57367499571700
 One-Electron (beta)  Energy = -482.80048662657669
 Total Coulomb        Energy = 377.41257159090924
    2    -517.1504564947      3.75e-03  
 Alpha HF Exchange    Energy =  -4.39692113597416
 Beta HF Exchange     Energy =  -4.21816680121365
 DFT Correlation      Energy =  -1.85117531425050
 DFT Exchange         Energy = -34.13524729247801
 One-Electron (alpha) Energy = -503.26570919345716
 One-Electron (beta)  Energy = -479.47998008948690
 Total Coulomb        Energy = 370.20351093368868
    3    -517.1426214816      3.97e-03  
 Alpha HF Exchange    Energy =  -4.42578989755672
 Beta HF Exchange     Energy =  -4.24249089015088
 DFT Correlation      Energy =  -1.86447188916045
 DFT Exchange         Energy = -34.35588754699414
 One-Electron (alpha) Energy = -505.05189443772849
 One-Electron (beta)  Energy = -481.09785373636498
 Total Coulomb        Energy = 373.80202573590765
    4    -517.2352952504      2.77e-04  
 Alpha HF Exchange    Energy =  -4.42668666169513
 Beta HF Exchange     Energy =  -4.24346035914365
 DFT Correlation      Energy =  -1.86427528164996
 DFT Exchange         Energy = -34.36214956597885
 One-Electron (alpha) Energy = -505.09516191539308
 One-Electron (beta)  Energy = -481.08314708822434
 Total Coulomb        Energy = 373.83812710159975
    5    -517.2356863589      1.60e-04  
 Alpha HF Exchange    Energy =  -4.42678633583996
 Beta HF Exchange     Energy =  -4.24308022887094
 DFT Correlation      Energy =  -1.86415333351235
 DFT Exchange         Energy = -34.36082324646772
 One-Electron (alpha) Energy = -505.09698315521808
 One-Electron (beta)  Energy = -481.06805618862171
 Total Coulomb        Energy = 373.82296982163729
    6    -517.2358452553      4.05e-05  
 Alpha HF Exchange    Energy =  -4.42667276359387
 Beta HF Exchange     Energy =  -4.24303092153749
 DFT Correlation      Energy =  -1.86406573211458
 DFT Exchange         Energy = -34.36001699797890
 One-Electron (alpha) Energy = -505.09059686653893
 One-Electron (beta)  Energy = -481.05647772762433
 Total Coulomb        Energy = 373.80393753902206
    7    -517.2358560587      1.14e-05  
 Alpha HF Exchange    Energy =  -4.42677661662588
 Beta HF Exchange     Energy =  -4.24307763516093
 DFT Correlation      Energy =  -1.86407082799989
 DFT Exchange         Energy = -34.36057193222624
 One-Electron (alpha) Energy = -505.09698625955690
 One-Electron (beta)  Energy = -481.05902437089964
 Total Coulomb        Energy = 373.81358296654537
    8    -517.2358572643      3.92e-06  
 Alpha HF Exchange    Energy =  -4.42675714581489
 Beta HF Exchange     Energy =  -4.24306519654863
 DFT Correlation      Energy =  -1.86405980543957
 DFT Exchange         Energy = -34.36043757056855
 One-Electron (alpha) Energy = -505.09541468461839
 One-Electron (beta)  Energy = -481.05753456389016
 Total Coulomb        Energy = 373.81034415276002
    9    -517.2358574025      1.05e-06  
 Alpha HF Exchange    Energy =  -4.42675925181593
 Beta HF Exchange     Energy =  -4.24306843192902
 DFT Correlation      Energy =  -1.86406017570372
 DFT Exchange         Energy = -34.36045953268869
 One-Electron (alpha) Energy = -505.09548419110223
 One-Electron (beta)  Energy = -481.05778536849931
 Total Coulomb        Energy = 373.81069212683923
   10    -517.2358574133      3.15e-07  Convergence criterion met
 ---------------------------------------
 SCF time:   CPU 23.31s  wall 2.00s 
<S^2> =          2.006192011
 Alpha HF Exchange    Energy =  -4.42675925181593
 Beta HF Exchange     Energy =  -4.24306843192902
 DFT Correlation      Energy =  -1.86406017570372
 DFT Exchange         Energy = -34.36045953268869
 One-Electron (alpha) Energy = -505.09548419110223
 One-Electron (beta)  Energy = -481.05778536849931
 Total Coulomb        Energy = 373.81069212683923
 Nuclear repulsion Energy = 140.00106741161989
 SCF   energy in the final basis set =     -517.2358574133
 Total energy in the final basis set =     -517.2358574133
 
 --------------------------------------------------------------
 
                    Orbital Energies (a.u.)
 --------------------------------------------------------------
 
 Alpha MOs
 -- Occupied --
-88.891 -10.209 -10.189 -10.189  -7.953  -5.924  -5.914  -5.905
 -0.794  -0.719  -0.701  -0.583  -0.462  -0.445  -0.418  -0.396
 -0.392  -0.365  -0.359  -0.305  -0.258  -0.201
 -- Virtual --
  0.071   0.098   0.120   0.135   0.160   0.166   0.170   0.181
  0.238   0.278   0.283   0.341   0.345   0.368   0.488   0.500
  0.545   0.574   0.584   0.672   0.693   0.700   0.715   0.736
  0.748   0.749   0.754   0.779   0.845   0.849   0.862   0.872
  0.902   0.925   0.936   1.059   1.194   1.282   1.336   1.339
  1.364   1.519   1.641   1.786   1.801   1.856   1.873   1.998
  2.033   2.038   2.064   2.064   2.100   2.104   2.124   2.135
  2.255   2.272   2.358   2.367   2.466   2.542   2.595   2.662
  2.713   2.750   2.762   2.842   2.853   2.894   2.938   3.148
  3.194   3.346   3.412   3.434   3.447   3.493   3.937   4.238
  4.474   4.589
 
 Beta MOs
 -- Occupied --
-88.885 -10.196 -10.190 -10.190  -7.947  -5.909  -5.906  -5.902
 -0.777  -0.698  -0.677  -0.563  -0.457  -0.426  -0.413  -0.390
 -0.375  -0.361  -0.354  -0.242
 -- Virtual --
 -0.162  -0.065   0.088   0.109   0.123   0.138   0.169   0.174
  0.175   0.182   0.249   0.286   0.300   0.355   0.374   0.382
  0.489   0.503   0.560   0.583   0.588   0.698   0.709   0.721
  0.737   0.760   0.767   0.792   0.808   0.813   0.850   0.855
  0.870   0.876   0.909   0.932   0.940   1.072   1.197   1.291
  1.344   1.357   1.384   1.519   1.647   1.795   1.823   1.883
  1.894   2.022   2.037   2.043   2.065   2.068   2.102   2.108
  2.130   2.135   2.268   2.274   2.360   2.377   2.484   2.558
  2.608   2.666   2.717   2.755   2.768   2.849   2.858   2.901
  2.943   3.152   3.199   3.353   3.414   3.438   3.451   3.498
  3.956   4.254   4.474   4.605
 --------------------------------------------------------------
 
          Ground-State Mulliken Net Atomic Charges

     Atom                 Charge (a.u.)    Spin (a.u.)
  --------------------------------------------------------
      1 S                    -0.099158       1.092575
      2 C                    -0.103978       0.935636
      3 C                    -0.329213      -0.069405
      4 C                    -0.329436      -0.069400
      5 H                     0.107140      -0.037665
      6 H                     0.118702       0.061600
      7 H                     0.121897       0.008894
      8 H                     0.115771       0.015299
      9 H                     0.118779       0.061592
     10 H                     0.122096       0.008915
     11 H                     0.115604       0.015272
     12 H                     0.041797      -0.023312
  --------------------------------------------------------
  Sum of atomic charges =    -0.000000
  Sum of spin   charges =     2.000000

 -----------------------------------------------------------------
                    Cartesian Multipole Moments
 -----------------------------------------------------------------
    Charge (ESU x 10^10)
                -0.0000
    Dipole Moment (Debye)
         X      -2.2124      Y      -0.0017      Z      -0.7788
       Tot       2.3455
    Quadrupole Moments (Debye-Ang)
        XX     -39.8882     XY      -0.0364     YY     -35.3725
        XZ      -2.8172     YZ       0.0833     ZZ     -33.9556
    Octopole Moments (Debye-Ang^2)
       XXX     -82.1146    XXY      -0.2058    XYY     -27.0429
       YYY      -0.0596    XXZ     -21.2820    XYZ       0.2082
       YYZ     -15.5525    XZZ     -22.2307    YZZ       0.1529
       ZZZ     -37.1314
    Hexadecapole Moments (Debye-Ang^3)
      XXXX    -811.2487   XXXY      -1.0756   XXYY    -182.3801
      XYYY      -0.3180   YYYY    -221.7329   XXXZ    -126.6314
      XXYZ       0.4994   XYYZ     -41.5194   YYYZ       0.0185
      XXZZ    -156.5705   XYZZ       0.3524   YYZZ     -64.0782
      XZZZ    -106.5044   YZZZ       0.2853   ZZZZ    -138.2005
 -----------------------------------------------------------------
 Calculating analytic gradient of the SCF energy
 Gradient of SCF Energy
            1           2           3           4           5           6
    1  -0.0025476  -0.0000597   0.0000987   0.0000973   0.0000447  -0.0000273
    2   0.0000004   0.0000071   0.0000893  -0.0000916  -0.0000022  -0.0000144
    3  -0.0011047   0.0000524  -0.0000759  -0.0000752  -0.0000066   0.0000460
            7           8           9          10          11          12
    1  -0.0000067   0.0000120  -0.0000266  -0.0000060   0.0000143   0.0024070
    2  -0.0000082  -0.0000308   0.0000146   0.0000087   0.0000313  -0.0000042
    3  -0.0000158   0.0000293   0.0000451  -0.0000147   0.0000292   0.0010908
 Max gradient component =       2.548E-03
 RMS gradient           =       6.403E-04
 Gradient time:  CPU 8.10 s  wall 0.68 s
 Geometry Optimization Parameters
   NAtoms,    NIC,     NZ,  NCons,   NDum,   NFix, NCnnct, MaxDiis
       12      84       0       1       0       0       0       0

 Cartesian Hessian Update
 Hessian Updated using BFGS Update


** CONSTRAINED OPTIMIZATION IN DELOCALIZED INTERNAL COORDINATES **
   Searching for a Minimum

   Optimization Cycle:   4

                       Coordinates (Angstroms)
     ATOM                X               Y               Z
      1  S         2.8096994398    0.0013634693    0.9962361174
      2  C        -0.4078171209   -0.0005008646   -0.3813016887
      3  C        -0.9427357493   -1.2988284206    0.1299627894
      4  C        -0.9392810346    1.2990762215    0.1304218214
      5  H         0.0509253567   -0.0008658581   -1.3694895334
      6  H        -1.9501998070   -1.5034098056   -0.2724005450
      7  H        -0.3091669029   -2.1450123042   -0.1532207306
      8  H        -1.0418056194   -1.2925788976    1.2222065653
      9  H        -1.9459599504    1.5067701959   -0.2722909186
     10  H        -0.3031110638    2.1435549531   -0.1520360193
     11  H        -1.0389669789    1.2924971379    1.2226230531
     12  H         1.5483174307   -0.0012648270    0.4616970890
   Point Group: c1    Number of degrees of freedom:    30


   Energy is   -517.235857413

              Constraints and their Current Values
                                        Value     Constraint
   Distance(Angs):        1   2             3.500004     3.500000
 Hessian Updated using BFGS Update

   Using Lagrange Multiplier Algorithm


 29 Hessian modes will be used to form the next step
  Hessian Eigenvalues:
    -0.930056    0.044923    0.045000    0.050108    0.057736    0.081385
     0.081388    0.082664    0.082665    0.084335    0.100407    0.104140
     0.104532    0.159999    0.160000    0.160006    0.160188    0.172829
     0.189935    0.315758    0.329852    0.329865    0.332343    0.332352
     0.340381    0.340401    0.343114    0.343117    1.085278

 Minimum Search - Taking P-RFO Step
 Searching for Lamda that Maximizes Along the Constraint modes Only
 Value Taken    Lamda =   0.00000098
 Searching for Lamda that Minimizes Along All other modes
 Value Taken    Lamda =  -0.00003081
 Step Taken.  Stepsize is  0.018784

                             Maximum     Tolerance    Cnvgd?
         Gradient            0.001553       0.000300      NO
         Displacement        0.017348       0.001200      NO
         Energy change     -0.000446       0.000001      NO


 New Cartesian Coordinates Obtained by Inverse Iteration

 Displacement from previous Coordinates is:  0.010618
 ----------------------------------------------------------------
             Standard Nuclear Orientation (Angstroms)
    I     Atom           X                Y                Z
 ----------------------------------------------------------------
    1      S       2.8106997304     0.0013246070     0.9963724342
    2      C      -0.4068519917    -0.0004975357    -0.3810736441
    3      C      -0.9423924442    -1.2986970917     0.1302709983
    4      C      -0.9389541704     1.2989517829     0.1307244118
    5      H       0.0516365377    -0.0008464626    -1.3693056387
    6      H      -1.9496444661    -1.5026851687    -0.2728247633
    7      H      -0.3090064793    -2.1451671936    -0.1523968270
    8      H      -1.0419873071    -1.2919403224     1.2224001451
    9      H      -1.9454239543     1.5060417266    -0.2727228027
   10      H      -0.3029729497     2.1437190360    -0.1512254306
   11      H      -1.0391852681     1.2918695423     1.2228096977
   12      H       1.5439807628    -0.0012719201     0.4593794193
 ----------------------------------------------------------------
 Nuclear Repulsion Energy =   139.9793201394 hartrees
 There are       22 alpha and       20 beta electrons

                       Distance Matrix (Angstroms)
             S (  1)   C (  2)   C (  3)   C (  4)   H (  5)   H (  6)
   C (  2)  3.500000
   C (  3)  4.065205  1.494523
   C (  4)  4.061168  1.494536  2.597651
   H (  5)  3.634401  1.089410  2.218387  2.218296
   H (  6)  5.151095  2.156037  1.103927  3.005581  2.731834
   H (  7)  3.957229  2.159045  1.094345  3.512684  2.491795  1.766063
   H (  8)  4.070236  2.154611  1.096682  2.813378  3.095137  1.761804
   H (  9)  5.147377  2.156062  3.005834  1.103919  2.731567  3.008730
   H ( 10)  3.949910  2.159001  3.512595  1.094349  2.491712  4.002821
   H ( 11)  4.066743  2.154646  2.813191  1.096698  3.095169  3.297786
   H ( 12)  1.375843  2.124173  2.823770  2.821978  2.360335  3.872439
             H (  7)   H (  8)   H (  9)   H ( 10)   H ( 11)
   H (  8)  1.776323
   H (  9)  4.002957  3.298529
   H ( 10)  4.288891  3.773161  1.766080
   H ( 11)  3.773271  2.583811  1.761748  1.776409
   H ( 12)  2.898986  2.989190  3.870906  2.895697  2.987940
 
 Applying Cartesian multipole field
    Component          Value
    ---------          -----
     (2,0,0)        1.00000E-11
     (0,2,0)        2.00000E-11
     (0,0,2)       -3.00000E-11
 Nucleus-field energy     =     0.0000000057 hartrees
 Requested basis set is 6-31G(d,p)
 There are 41 shells and 104 basis functions
 A cutoff of  1.0D-14 yielded    820 shell pairs
 There are      5334 function pairs
 Smallest overlap matrix eigenvalue = 6.32E-03
 Guess from superposition of atomic densities
 Warning:  Energy on first SCF cycle will be non-variational
 SAD guess density has 42.000000 electrons

 -----------------------------------------------------------------------
  General SCF calculation program by
  Eric Jon Sundstrom, Paul Horn, Yuezhi Mao, Dmitri Zuev, Alec White,
  David Stuck, Shaama M.S., Shane Yost, Joonho Lee, David Small,
  Daniel Levine, Susi Lehtola, Hugh Burton, Evgeny Epifanovsky
 -----------------------------------------------------------------------
 Exchange:     0.2000 Hartree-Fock + 0.0800 Slater + 0.7200 B88
 Correlation:  0.1900 VWN1RPA + 0.8100 LYP
 Using SG-1 standard quadrature grid
 using 12 threads for integral computing
 -------------------------------------------------------
 OpenMP Integral computing Module                
 Release: version 1.0, May 2013, Q-Chem Inc. Pittsburgh 
 -------------------------------------------------------
 -------------------------------------------------------
 OpenMP BLAS3 based DFT computing Module                
 Release: version 1.0, May 2013, Q-Chem Inc. Pittsburgh 
 -------------------------------------------------------
 A unrestricted SCF calculation will be
 performed using DIIS
 SCF converges when DIIS error is below 1.0e-06
 Alpha HF Exchange    Energy =  -4.32257825776580
 Beta HF Exchange     Energy =  -4.32257825776580
 DFT Correlation      Energy =  -1.85906763407945
 DFT Exchange         Energy = -33.95005142364609
 One-Electron (alpha) Energy = -491.29921251221936
 One-Electron (beta)  Energy = -491.29921251221936
 Total Coulomb        Energy = 369.60699366463939
 ---------------------------------------
  Cycle       Energy         DIIS error
 ---------------------------------------
    1    -517.4663867880      2.83e-02  
 Alpha HF Exchange    Energy =  -4.45298799094122
 Beta HF Exchange     Energy =  -4.26881526556796
 DFT Correlation      Energy =  -1.87897939697093
 DFT Exchange         Energy = -34.58710807111606
 One-Electron (alpha) Energy = -506.55106308360200
 One-Electron (beta)  Energy = -482.77731440053316
 Total Coulomb        Energy = 377.38640946323676
    2    -517.1505386005      3.75e-03  
 Alpha HF Exchange    Energy =  -4.39673873985123
 Beta HF Exchange     Energy =  -4.21797877830305
 DFT Correlation      Energy =  -1.85115129179077
 DFT Exchange         Energy = -34.13413019652580
 One-Electron (alpha) Energy = -503.24770348990717
 One-Electron (beta)  Energy = -479.46048113333052
 Total Coulomb        Energy = 370.18617515818823
    3    -517.1426883265      3.97e-03  
 Alpha HF Exchange    Energy =  -4.42559240677099
 Beta HF Exchange     Energy =  -4.24227834645617
 DFT Correlation      Energy =  -1.86443578418650
 DFT Exchange         Energy = -34.35457569732596
 One-Electron (alpha) Energy = -505.03145771234591
 One-Electron (beta)  Energy = -481.07598754676854
 Total Coulomb        Energy = 373.77970474520544
    4    -517.2353026036      2.79e-04  
 Alpha HF Exchange    Energy =  -4.42649281764199
 Beta HF Exchange     Energy =  -4.24325420830106
 DFT Correlation      Energy =  -1.86424067896061
 DFT Exchange         Energy = -34.36087129737828
 One-Electron (alpha) Energy = -505.07524347978278
 One-Electron (beta)  Energy = -481.06162797860713
 Total Coulomb        Energy = 373.81671023969585
    5    -517.2357000760      1.61e-04  
 Alpha HF Exchange    Energy =  -4.42659350454236
 Beta HF Exchange     Energy =  -4.24287113722618
 DFT Correlation      Energy =  -1.86411749857140
 DFT Exchange         Energy = -34.35953402086604
 One-Electron (alpha) Energy = -505.07695810710584
 One-Electron (beta)  Energy = -481.04626683295709
 Total Coulomb        Energy = 373.80115898006176
    6    -517.2358619762      4.06e-05  
 Alpha HF Exchange    Energy =  -4.42648023371248
 Beta HF Exchange     Energy =  -4.24282125295578
 DFT Correlation      Energy =  -1.86402933783237
 DFT Exchange         Energy = -34.35872452644853
 One-Electron (alpha) Energy = -505.07057991604364
 One-Electron (beta)  Energy = -481.03459717428632
 Total Coulomb        Energy = 373.78203941951028
    7    -517.2358728768      1.14e-05  
 Alpha HF Exchange    Energy =  -4.42658516032686
 Beta HF Exchange     Energy =  -4.24286821400136
 DFT Correlation      Energy =  -1.86403452372175
 DFT Exchange         Energy = -34.35928401081877
 One-Electron (alpha) Energy = -505.07703848235212
 One-Electron (beta)  Energy = -481.03715429151657
 Total Coulomb        Energy = 373.79177044019190
    8    -517.2358740975      3.96e-06  
 Alpha HF Exchange    Energy =  -4.42656556606224
 Beta HF Exchange     Energy =  -4.24285555992113
 DFT Correlation      Energy =  -1.86402337708032
 DFT Exchange         Energy = -34.35914813754273
 One-Electron (alpha) Energy = -505.07545839392884
 One-Electron (beta)  Energy = -481.03563790551050
 Total Coulomb        Energy = 373.78849455622208
    9    -517.2358742388      1.06e-06  
 Alpha HF Exchange    Energy =  -4.42656773441781
 Beta HF Exchange     Energy =  -4.24285876884529
 DFT Correlation      Energy =  -1.86402374609982
 DFT Exchange         Energy = -34.35917022716793
 One-Electron (alpha) Energy = -505.07553182924340
 One-Electron (beta)  Energy = -481.03588550433290
 Total Coulomb        Energy = 373.78884341523349
   10    -517.2358742499      3.17e-07  Convergence criterion met
 ---------------------------------------
 SCF time:   CPU 23.53s  wall 2.00s 
[...]
 Step Taken.  Stepsize is  0.003965

                             Maximum     Tolerance    Cnvgd?
         Gradient           0.000197      0.000300     YES
         Displacement       0.003132      0.001200      NO
         Energy change     -0.000017      0.000001      NO


 New Cartesian Coordinates Obtained by Inverse Iteration

 Displacement from previous Coordinates is:  0.003336
 ----------------------------------------------------------------
             Standard Nuclear Orientation (Angstroms)
    I     Atom           X                Y                Z
 ----------------------------------------------------------------
    1      S       2.8114040388     0.0012936478     0.9959481554
    2      C      -0.4064718239    -0.0004942587    -0.3807405674
    3      C      -0.9424322467    -1.2986390658     0.1304054871
    4      C      -0.9390061296     1.2988992563     0.1308556182
    5      H       0.0518559588    -0.0008384085    -1.3690759774
    6      H      -1.9495108246    -1.5023550426    -0.2732327280
    7      H      -0.3090620045    -2.1452027107    -0.1519701460
    8      H      -1.0425257986    -1.2917411122     1.2224736989
    9      H      -1.9453036379     1.5057063560    -0.2731389390
   10      H      -0.3030476273     2.1437648276    -0.1508018458
   11      H      -1.0397407331     1.2916794390     1.2228785011
   12      H       1.5437388287    -0.0012719283     0.4588067431
 ----------------------------------------------------------------
 Nuclear Repulsion Energy =   139.9714263064 hartrees
 There are       22 alpha and       20 beta electrons

                       Distance Matrix (Angstroms)
             S (  1)   C (  2)   C (  3)   C (  4)   H (  5)   H (  6)
   C (  2)  3.500000
   C (  3)  4.065744  1.494558
   C (  4)  4.061741  1.494572  2.597541
   H (  5)  3.634343  1.089436  2.218409  2.218315
   H (  6)  5.151513  2.155948  1.103916  3.005234  2.731464
   H (  7)  3.957584  2.159074  1.094333  3.512643  2.491968  1.766078
   H (  8)  4.071367  2.154572  1.096667  2.813141  3.095195  1.761851
   H (  9)  5.147826  2.155974  3.005487  1.103909  2.731191  3.008064
   H ( 10)  3.950320  2.159031  3.512554  1.094336  2.491881  4.002502
   H ( 11)  4.067912  2.154608  2.812955  1.096683  3.095224  3.297372
   H ( 12)  1.376773  2.123243  2.823483  2.821705  2.359422  3.871941
             H (  7)   H (  8)   H (  9)   H ( 10)   H ( 11)
   H (  8)  1.776362
   H (  9)  4.002637  3.298117
   H ( 10)  4.288972  3.772985  1.766094
   H ( 11)  3.773097  2.583422  1.761795  1.776447
   H ( 12)  2.898682  2.989525  3.870419  2.895415  2.988293
 
 Applying Cartesian multipole field
    Component          Value
    ---------          -----
     (2,0,0)        1.00000E-11
     (0,2,0)        2.00000E-11
     (0,0,2)       -3.00000E-11
 Nucleus-field energy     =     0.0000000057 hartrees
 Requested basis set is 6-31G(d,p)
 There are 41 shells and 104 basis functions
 A cutoff of  1.0D-14 yielded    820 shell pairs
 There are      5334 function pairs
 Smallest overlap matrix eigenvalue = 6.32E-03
 Guess from superposition of atomic densities
 Warning:  Energy on first SCF cycle will be non-variational
 SAD guess density has 42.000000 electrons

 -----------------------------------------------------------------------
  General SCF calculation program by
  Eric Jon Sundstrom, Paul Horn, Yuezhi Mao, Dmitri Zuev, Alec White,
  David Stuck, Shaama M.S., Shane Yost, Joonho Lee, David Small,
  Daniel Levine, Susi Lehtola, Hugh Burton, Evgeny Epifanovsky
 -----------------------------------------------------------------------
 Exchange:     0.2000 Hartree-Fock + 0.0800 Slater + 0.7200 B88
 Correlation:  0.1900 VWN1RPA + 0.8100 LYP
 Using SG-1 standard quadrature grid
 using 12 threads for integral computing
 -------------------------------------------------------
 OpenMP Integral computing Module                
 Release: version 1.0, May 2013, Q-Chem Inc. Pittsburgh 
 -------------------------------------------------------
 -------------------------------------------------------
 OpenMP BLAS3 based DFT computing Module                
 Release: version 1.0, May 2013, Q-Chem Inc. Pittsburgh 
 -------------------------------------------------------
 A unrestricted SCF calculation will be
 performed using DIIS
 SCF converges when DIIS error is below 1.0e-06
 Alpha HF Exchange    Energy =  -4.32254044577744
 Beta HF Exchange     Energy =  -4.32254044577744
 DFT Correlation      Energy =  -1.85906115718377
 DFT Exchange         Energy = -33.94995523289921
 One-Electron (alpha) Energy = -491.29168440323480
 One-Electron (beta)  Energy = -491.29168440323480
 Total Coulomb        Energy = 369.60003987995151
 ---------------------------------------
  Cycle       Energy         DIIS error
 ---------------------------------------
    1    -517.4659998961      2.83e-02  
 Alpha HF Exchange    Energy =  -4.45295136963189
 Beta HF Exchange     Energy =  -4.26877745124544
 DFT Correlation      Energy =  -1.87897020190576
 DFT Exchange         Energy = -34.58686353679112
 One-Electron (alpha) Energy = -506.54296479196904
 One-Electron (beta)  Energy = -482.76931241576676
 Total Coulomb        Energy = 377.37786569208276
    2    -517.1505477632      3.75e-03  
 Alpha HF Exchange    Energy =  -4.39671029694879
 Beta HF Exchange     Energy =  -4.21794726339580
 DFT Correlation      Energy =  -1.85114591220357
 DFT Exchange         Energy = -34.13394902060827
 One-Electron (alpha) Energy = -503.24035941282381
 One-Electron (beta)  Energy = -479.45304712327220
 Total Coulomb        Energy = 370.17903658630689
    3    -517.1426961309      3.97e-03  
 Alpha HF Exchange    Energy =  -4.42556174077956
 Beta HF Exchange     Energy =  -4.24224327552568
 DFT Correlation      Energy =  -1.86442848709275
 DFT Exchange         Energy = -34.35436559994878
 One-Electron (alpha) Energy = -505.02371880841264
 One-Electron (beta)  Energy = -481.06815561146499
 Total Coulomb        Energy = 373.77174544637336
    4    -517.2353017648      2.79e-04  
 Alpha HF Exchange    Energy =  -4.42646276962458
 Beta HF Exchange     Energy =  -4.24322007844855
 DFT Correlation      Energy =  -1.86423361201328
 DFT Exchange         Energy = -34.36066629411303
 One-Electron (alpha) Energy = -505.06759482771457
 One-Electron (beta)  Energy = -481.05385156918777
 Total Coulomb        Energy = 373.80890268612404
    5    -517.2357001529      1.61e-04  
 Alpha HF Exchange    Energy =  -4.42656362190783
 Beta HF Exchange     Energy =  -4.24283654589988
 DFT Correlation      Energy =  -1.86411025302843
 DFT Exchange         Energy = -34.35932740126445
 One-Electron (alpha) Energy = -505.06929536348440
 One-Electron (beta)  Energy = -481.03844749913139
 Total Coulomb        Energy = 373.79329184577659
    6    -517.2358625269      4.06e-05  
 Alpha HF Exchange    Energy =  -4.42645039096275
 Beta HF Exchange     Energy =  -4.24278656083216
 DFT Correlation      Energy =  -1.86402199320512
 DFT Exchange         Energy = -34.35851730414544
 One-Electron (alpha) Energy = -505.06291745993963
 One-Electron (beta)  Energy = -481.02676091856637
 Total Coulomb        Energy = 373.77415487130963
    7    -517.2358734443      1.15e-05  
 Alpha HF Exchange    Energy =  -4.42655548979630
 Beta HF Exchange     Energy =  -4.24283355813822
 DFT Correlation      Energy =  -1.86402719273962
 DFT Exchange         Energy = -34.35907750827177
 One-Electron (alpha) Energy = -505.06938791666215
 One-Electron (beta)  Energy = -481.02931915116818
 Total Coulomb        Energy = 373.78389983726413
    8    -517.2358746675      3.97e-06  
 Alpha HF Exchange    Energy =  -4.42653587682068
 Beta HF Exchange     Energy =  -4.24282086559289
 DFT Correlation      Energy =  -1.86401602591164
 DFT Exchange         Energy = -34.35894138230539
 One-Electron (alpha) Energy = -505.06780656112647
 One-Electron (beta)  Energy = -481.02779811110088
 Total Coulomb        Energy = 373.78061770160423
    9    -517.2358748092      1.06e-06  
 Alpha HF Exchange    Energy =  -4.42653805824062
 Beta HF Exchange     Energy =  -4.24282407118852
 DFT Correlation      Energy =  -1.86401639540051
 DFT Exchange         Energy = -34.35896350832397
 One-Electron (alpha) Energy = -505.06788092446141
 One-Electron (beta)  Energy = -481.02804523581796
 Total Coulomb        Energy = 373.78096706108443
   10    -517.2358748203      3.17e-07  Convergence criterion met
 ---------------------------------------
 SCF time:   CPU 23.28s  wall 2.00s 
<S^2> =          2.006217966
 Alpha HF Exchange    Energy =  -4.42653805824062
 Beta HF Exchange     Energy =  -4.24282407118852
 DFT Correlation      Energy =  -1.86401639540051
 DFT Exchange         Energy = -34.35896350832397
 One-Electron (alpha) Energy = -505.06788092446141
 One-Electron (beta)  Energy = -481.02804523581796
 Total Coulomb        Energy = 373.78096706108443
 Nuclear repulsion Energy = 139.97142631204846
 SCF   energy in the final basis set =     -517.2358748203
 Total energy in the final basis set =     -517.2358748203
 
 --------------------------------------------------------------
 
                    Orbital Energies (a.u.)
 --------------------------------------------------------------
 
 Alpha MOs
 -- Occupied --
-88.891 -10.209 -10.190 -10.190  -7.953  -5.924  -5.914  -5.905
 -0.795  -0.718  -0.701  -0.583  -0.463  -0.445  -0.418  -0.396
 -0.391  -0.365  -0.359  -0.305  -0.257  -0.202
 -- Virtual --
  0.070   0.098   0.119   0.135   0.160   0.166   0.170   0.181
  0.238   0.278   0.284   0.341   0.345   0.368   0.488   0.500
  0.544   0.574   0.584   0.672   0.693   0.700   0.716   0.736
  0.749   0.750   0.754   0.780   0.845   0.849   0.862   0.872
  0.901   0.925   0.936   1.057   1.192   1.282   1.337   1.339
  1.364   1.519   1.640   1.786   1.801   1.856   1.872   1.998
  2.033   2.038   2.063   2.063   2.099   2.103   2.124   2.134
  2.255   2.272   2.358   2.367   2.465   2.542   2.595   2.661
  2.713   2.750   2.754   2.842   2.853   2.893   2.938   3.148
  3.194   3.346   3.411   3.435   3.447   3.492   3.936   4.239
  4.474   4.590
 
 Beta MOs
 -- Occupied --
-88.885 -10.196 -10.190 -10.190  -7.947  -5.909  -5.906  -5.902
 -0.778  -0.698  -0.675  -0.563  -0.457  -0.426  -0.413  -0.390
 -0.375  -0.361  -0.354  -0.242
 -- Virtual --
 -0.162  -0.066   0.088   0.108   0.123   0.137   0.168   0.174
  0.175   0.181   0.249   0.285   0.301   0.355   0.374   0.382
  0.489   0.502   0.559   0.583   0.588   0.698   0.709   0.721
  0.737   0.761   0.768   0.793   0.809   0.814   0.850   0.855
  0.870   0.876   0.909   0.932   0.939   1.070   1.195   1.291
  1.344   1.358   1.384   1.519   1.646   1.794   1.823   1.883
  1.894   2.022   2.037   2.043   2.064   2.068   2.102   2.107
  2.129   2.135   2.268   2.274   2.359   2.377   2.483   2.558
  2.608   2.665   2.717   2.755   2.760   2.849   2.858   2.900
  2.943   3.152   3.199   3.353   3.414   3.438   3.451   3.498
  3.956   4.254   4.474   4.605
 --------------------------------------------------------------
 
          Ground-State Mulliken Net Atomic Charges

     Atom                 Charge (a.u.)    Spin (a.u.)
  --------------------------------------------------------
      1 S                    -0.099932       1.095178
      2 C                    -0.104090       0.933585
      3 C                    -0.329079      -0.069152
      4 C                    -0.329291      -0.069147
      5 H                     0.107555      -0.037495
      6 H                     0.118803       0.061435
      7 H                     0.122067       0.008878
      8 H                     0.115938       0.015201
      9 H                     0.118875       0.061427
     10 H                     0.122258       0.008899
     11 H                     0.115778       0.015174
     12 H                     0.041117      -0.023983
  --------------------------------------------------------
  Sum of atomic charges =     0.000000
  Sum of spin   charges =     2.000000

 -----------------------------------------------------------------
                    Cartesian Multipole Moments
 -----------------------------------------------------------------
    Charge (ESU x 10^10)
                -0.0000
    Dipole Moment (Debye)
         X      -2.2307      Y      -0.0016      Z      -0.7848
       Tot       2.3647
    Quadrupole Moments (Debye-Ang)
        XX     -39.9191     XY      -0.0347     YY     -35.3733
        XZ      -2.8242     YZ       0.0797     ZZ     -33.9588
    Octopole Moments (Debye-Ang^2)
       XXX     -82.3330    XXY      -0.1964    XYY     -27.1012
       YYY      -0.0570    XXZ     -21.3111    XYZ       0.1994
       YYZ     -15.5598    XZZ     -22.2871    YZZ       0.1462
       ZZZ     -37.1577
    Hexadecapole Moments (Debye-Ang^3)
      XXXX    -812.2185   XXXY      -1.0297   XXYY    -182.5314
      XYYY      -0.3058   YYYY    -221.6089   XXXZ    -126.7016
      XXYZ       0.4790   XYYZ     -41.5315   YYYZ       0.0178
      XXZZ    -156.6898   XYZZ       0.3367   YYZZ     -64.0577
      XZZZ    -106.5329   YZZZ       0.2728   ZZZZ    -138.1481
 -----------------------------------------------------------------
 Calculating analytic gradient of the SCF energy
 Gradient of SCF Energy
            1           2           3           4           5           6
    1   0.0000364  -0.0001280   0.0000389   0.0000405   0.0000526  -0.0000128
    2   0.0000051   0.0000030   0.0000086  -0.0000083   0.0000000   0.0000066
    3  -0.0000218  -0.0001403   0.0000197   0.0000194   0.0000284   0.0000280
            7           8           9          10          11          12
    1  -0.0000124   0.0000262  -0.0000125  -0.0000117   0.0000260  -0.0000432
    2  -0.0000032  -0.0000101  -0.0000061   0.0000031   0.0000100  -0.0000088
    3  -0.0000171   0.0000076   0.0000284  -0.0000175   0.0000080   0.0000572
 Max gradient component =       1.403E-04
 RMS gradient           =       3.920E-05
 Gradient time:  CPU 8.21 s  wall 0.69 s
 Geometry Optimization Parameters
   NAtoms,    NIC,     NZ,  NCons,   NDum,   NFix, NCnnct, MaxDiis
       12      84       0       1       0       0       0       0

 Cartesian Hessian Update
 Hessian Updated using BFGS Update


** CONSTRAINED OPTIMIZATION IN DELOCALIZED INTERNAL COORDINATES **
   Searching for a Minimum

   Optimization Cycle:   6

                       Coordinates (Angstroms)
     ATOM                X               Y               Z
      1  S         2.8114040388    0.0012936478    0.9959481554
      2  C        -0.4064718239   -0.0004942587   -0.3807405674
      3  C        -0.9424322467   -1.2986390658    0.1304054871
      4  C        -0.9390061296    1.2988992563    0.1308556182
      5  H         0.0518559588   -0.0008384085   -1.3690759774
      6  H        -1.9495108246   -1.5023550426   -0.2732327280
      7  H        -0.3090620045   -2.1452027107   -0.1519701460
      8  H        -1.0425257986   -1.2917411122    1.2224736989
      9  H        -1.9453036379    1.5057063560   -0.2731389390
     10  H        -0.3030476273    2.1437648276   -0.1508018458
     11  H        -1.0397407331    1.2916794390    1.2228785011
     12  H         1.5437388287   -0.0012719283    0.4588067431
   Point Group: c1    Number of degrees of freedom:    30


   Energy is   -517.235874820

              Constraints and their Current Values
                                        Value     Constraint
   Distance(Angs):        1   2             3.500000     3.500000
 Hessian Updated using BFGS Update

 27 Hessian modes will be used to form the next step
  Hessian Eigenvalues:
     0.024745    0.045000    0.049860    0.052899    0.081351    0.081389
     0.082664    0.082665    0.084334    0.100408    0.104295    0.130650
     0.159841    0.160001    0.160007    0.160196    0.175424    0.190116
     0.314803    0.329524    0.329857    0.332339    0.332347    0.340363
     0.340384    0.343114    0.343125

 Minimum Search - Taking Simple RFO Step
 Searching for Lamda that Minimizes Along All modes
 Value Taken    Lamda =   0.00000000
 Step Taken.  Stepsize is  0.003641

                             Maximum     Tolerance    Cnvgd?
         Gradient           0.000051      0.000300     YES
         Displacement       0.001751      0.001200      NO
         Energy change     -0.000001      0.000001     YES


                       Distance Matrix (Angstroms)
             S (  1)   C (  2)   C (  3)   C (  4)   H (  5)   H (  6)
   C (  2)  3.500000
   C (  3)  4.065744  1.494558
   C (  4)  4.061741  1.494572  2.597541
   H (  5)  3.634343  1.089436  2.218409  2.218315
   H (  6)  5.151513  2.155948  1.103916  3.005234  2.731464
   H (  7)  3.957584  2.159074  1.094333  3.512643  2.491968  1.766078
   H (  8)  4.071367  2.154572  1.096667  2.813141  3.095195  1.761851
   H (  9)  5.147826  2.155974  3.005487  1.103909  2.731191  3.008064
   H ( 10)  3.950320  2.159031  3.512554  1.094336  2.491881  4.002502
   H ( 11)  4.067912  2.154608  2.812955  1.096683  3.095224  3.297372
   H ( 12)  1.376773  2.123243  2.823483  2.821705  2.359422  3.871941
             H (  7)   H (  8)   H (  9)   H ( 10)   H ( 11)
   H (  8)  1.776362
   H (  9)  4.002637  3.298117
   H ( 10)  4.288972  3.772985  1.766094
   H ( 11)  3.773097  2.583422  1.761795  1.776447
   H ( 12)  2.898682  2.989525  3.870419  2.895415  2.988293
 
 Final energy is   -517.235874820300     


 ******************************
 **  OPTIMIZATION CONVERGED  **
 ******************************

                       Coordinates (Angstroms)
     ATOM                X               Y               Z
      1  S         2.8114040388    0.0012936478    0.9959481554
      2  C        -0.4064718239   -0.0004942587   -0.3807405674
      3  C        -0.9424322467   -1.2986390658    0.1304054871
      4  C        -0.9390061296    1.2988992563    0.1308556182
      5  H         0.0518559588   -0.0008384085   -1.3690759774
      6  H        -1.9495108246   -1.5023550426   -0.2732327280
      7  H        -0.3090620045   -2.1452027107   -0.1519701460
      8  H        -1.0425257986   -1.2917411122    1.2224736989
      9  H        -1.9453036379    1.5057063560   -0.2731389390
     10  H        -0.3030476273    2.1437648276   -0.1508018458
     11  H        -1.0397407331    1.2916794390    1.2228785011
     12  H         1.5437388287   -0.0012719283    0.4588067431

Z-matrix Print:
$molecule
0 3
S 
H  1 1.376773
C  2 2.123243 1 179.648151
H  3 1.089436 2 88.412512 1 21.307996 0
C  3 1.494558 2 101.176607 1 138.984124 0
H  5 1.094333 3 112.093740 2 -56.420058 0
H  5 1.096667 3 111.582319 2 65.299084 0
H  5 1.103916 3 111.246812 2 -176.068530 0
C  3 1.494572 2 101.083763 1 -96.351789 0
H  9 1.094336 3 112.088999 2 56.338764 0
H  9 1.096683 3 111.583280 2 -65.385706 0
H  9 1.103909 3 111.248256 2 175.987213 0
$end

PES scan, value:    3.5000 energy: -517.2358748203
------- Summary of potential scan: ------ 
    3.5000      -517.2358748203
----------------------------------------- 
Archival summary:
1\1\hpc0250\JobtypUnspecified\ProcedureUnspecified\6-31G**\138(3)\knomura\WedMar1315:02:382019WedMar1315:02:382019\0\\#,JobtypUnspecified,ProcedureUnspecified,6-31G**,\\0,3\S\H,1,1.37677\C,2,2.12324,1,179.648\H,3,1.08944,2,88.4125,1,21.308,0\C,3,1.49456,2,101.177,1,138.984,0\H,5,1.09433,3,112.094,2,-56.4201,0\H,5,1.09667,3,111.582,2,65.2991,0\H,5,1.10392,3,111.247,2,-176.069,0\C,3,1.49457,2,101.084,1,-96.3518,0\H,9,1.09434,3,112.089,2,56.3388,0\H,9,1.09668,3,111.583,2,-65.3857,0\H,9,1.10391,3,111.248,2,175.987,0\\\@

 Total job time:  17.85s(wall), 206.53s(cpu) 
 Wed Mar 13 15:02:38 2019

        *************************************************************
        *                                                           *
        *  Thank you very much for using Q-Chem.  Have a nice day.  *
        *                                                           *
        *************************************************************


