
Running Job 1 of 1 halogens/Bromine/03/Br_1_3.xyz.data/inputs/bond_singlet_1.1.in
qchem halogens/Bromine/03/Br_1_3.xyz.data/inputs/bond_singlet_1.1.in_31091.0 /staging/scratch/2868759/qchem31091/ 1
/usr/usc/qchem/5.1.1/exe/qcprog.exe_s halogens/Bromine/03/Br_1_3.xyz.data/inputs/bond_singlet_1.1.in_31091.0 /staging/scratch/2868759/qchem31091/
Check license passed

                  Welcome to Q-Chem
     A Quantum Leap Into The Future Of Chemistry


 Q-Chem 5.1, Q-Chem, Inc., Pleasanton, CA (2018)

 Yihan Shao,  Zhengting Gan,  E. Epifanovsky,  A. T. B. Gilbert,  M. Wormit,  
 J. Kussmann,  A. W. Lange,  A. Behn,  Jia Deng,  Xintian Feng,  D. Ghosh,  
 M. Goldey,  P. R. Horn,  L. D. Jacobson,  I. Kaliman,  T. Kus,  A. Landau,  
 Jie Liu,  E. I. Proynov,  R. M. Richard,  R. P. Steele,  E. J. Sundstrom,  
 H. L. Woodcock III,  P. M. Zimmerman,  D. Zuev,  B. Albrecht,  E. Alguire,  
 S. A. Baeppler,  D. Barton,  Z. Benda,  Y. A. Bernard,  E. J. Berquist,  
 K. B. Bravaya,  H. Burton,  D. Casanova,  Chun-Min Chang,  Yunqing Chen,  
 A. Chien,  K. D. Closser,  M. P. Coons,  S. Coriani,  S. Dasgupta,  
 A. L. Dempwolff,  M. Diedenhofen,  Hainam Do,  R. G. Edgar,  Po-Tung Fang,  
 S. Faraji,  S. Fatehi,  Qingguo Feng,  K. D. Fenk,  J. Fosso-Tande,  
 Qinghui Ge,  A. Ghysels,  G. Gidofalvi,  J. Gomes,  J. Gonthier,  A. Gunina,  
 D. Hait,  M. W. D. Hanson-Heine,  P. H. P. Harbach,  A. W. Hauser,  
 J. E. Herr,  E. G. Hohenstein,  Z. C. Holden,  Kerwin Hui,  B. C. Huynh,  
 T.-C. Jagau,  Hyunjun Ji,  B. Kaduk,  K. Khistyaev,  Jaehoon Kim,  
 P. Klunzinger,  K. Koh,  D. Kosenkov,  L. Koulias,  T. Kowalczyk,  
 C. M. Krauter,  A. Kunitsa,  Ka Un Lao,  A. Laurent,  K. V. Lawler,  
 Joonho Lee,  D. Lefrancois,  S. Lehtola,  D. S. Levine,  Yi-Pei Li,  
 You-Sheng Lin,  Fenglai Liu,  E. Livshits,  A. Luenser,  P. Manohar,  
 E. Mansoor,  S. F. Manzer,  Shan-Ping Mao,  Yuezhi Mao,  N. Mardirossian,  
 A. V. Marenich,  T. Markovich,  L. A. Martinez-Martinez,  S. A. Maurer,  
 N. J. Mayhall,  S. C. McKenzie,  J.-M. Mewes,  A. F. Morrison,  
 J. W. Mullinax,  K. Nanda,  T. S. Nguyen-Beck,  R. Olivares-Amaya,  
 J. A. Parkhill,  T. M. Perrine,  F. Plasser,  P. Pokhilko,  S. Prager,  
 A. Prociuk,  E. Ramos,  D. R. Rehn,  F. Rob,  M. Schneider,  N. Sergueev,  
 S. M. Sharada,  S. Sharma,  D. W. Small,  T. Stauch,  T. Stein,  
 Yu-Chuan Su,  A. J. W. Thom,  A. Tkatchenko,  T. Tsuchimochi,  N. M. Tubman,  
 L. Vogt,  M. L. Vidal,  O. Vydrov,  M. A. Watson,  J. Wenzel,  
 M. de Wergifosse,  T. A. Wesolowski,  A. White,  J. Witte,  A. Yamada,  
 Jun Yang,  K. Yao,  S. Yeganeh,  S. R. Yost,  Zhi-Qiang You,  A. Zech,  
 Igor Ying Zhang,  Xing Zhang,  Yan Zhao,  Ying Zhu,  B. R. Brooks,  
 G. K. L. Chan,  C. J. Cramer,  M. S. Gordon,  W. J. Hehre,  A. Klamt,  
 M. W. Schmidt,  C. D. Sherrill,  D. G. Truhlar,  A. Aspuru-Guzik,  R. Baer,  
 A. T. Bell,  N. A. Besley,  Jeng-Da Chai,  A. E. DePrince, III,  
 R. A. DiStasio Jr.,  A. Dreuw,  B. D. Dunietz,  T. R. Furlani,  
 Chao-Ping Hsu,  Yousung Jung,  Jing Kong,  D. S. Lambrecht,  WanZhen Liang,  
 C. Ochsenfeld,  V. A. Rassolov,  L. V. Slipchenko,  J. E. Subotnik,  
 T. Van Voorhis,  J. M. Herbert,  A. I. Krylov,  P. M. W. Gill,  M. Head-Gordon

 Contributors to earlier versions of Q-Chem not listed above: 
 R. D. Adamson,  B. Austin,  J. Baker,  G. J. O. Beran,  K. Brandhorst,  
 S. T. Brown,  E. F. C. Byrd,  A. K. Chakraborty,  C.-L. Cheng,  
 Siu Hung Chien,  D. M. Chipman,  D. L. Crittenden,  H. Dachsel,  
 R. J. Doerksen,  A. D. Dutoi,  L. Fusti-Molnar,  W. A. Goddard III,  
 A. Golubeva-Zadorozhnaya,  S. R. Gwaltney,  G. Hawkins,  A. Heyden,  
 S. Hirata,  G. Kedziora,  F. J. Keil,  C. Kelley,  Jihan Kim,  R. A. King,  
 R. Z. Khaliullin,  P. P. Korambath,  W. Kurlancheek,  A. M. Lee,  M. S. Lee,  
 S. V. Levchenko,  Ching Yeh Lin,  D. Liotard,  R. C. Lochan,  I. Lotan,  
 P. E. Maslen,  N. Nair,  D. P. O'Neill,  D. Neuhauser,  E. Neuscamman,  
 C. M. Oana,  R. Olson,  B. Peters,  R. Peverati,  P. A. Pieniazek,  
 Y. M. Rhee,  J. Ritchie,  M. A. Rohrdanz,  E. Rosta,  N. J. Russ,  
 H. F. Schaefer III,  N. E. Schultz,  N. Shenvi,  A. C. Simmonett,  A. Sodt,  
 D. Stuck,  K. S. Thanthiriwatte,  V. Vanovschi,  Tao Wang,  A. Warshel,  
 C. F. Williams,  Q. Wu,  X. Xu,  W. Zhang

 Please cite Q-Chem as follows:
 Y. Shao et al., Mol. Phys. 113, 184-215 (2015)
 DOI: 10.1080/00268976.2014.952696

 Q-Chem 5.1.1 for Intel X86 EM64T Linux

 Parts of Q-Chem use Armadillo 8.300.2 (Tropical Shenanigans).
 http://arma.sourceforge.net/

 Q-Chem begins on Wed Mar 13 18:39:56 2019  

Host: 
0

     Scratch files written to /staging/scratch/2868759/qchem31091//
 Aug318 |scratch|qcdevops|jenkins|workspace|build_RNUM 6013   
Processing $rem in /usr/usc/qchem/5.1.1/config/preferences.
 MEM_TOTAL  2000 
Input Ideriv = 2
Curr. Ideriv = -1
Max.  Ideriv = 2

Checking the input file for inconsistencies... 	...done.

--------------------------------------------------------------
User input:
--------------------------------------------------------------

$comment
potential surface scanner
$end

$rem
JOBTYPE  PES_SCAN
UNRESTRICTED TRUE
SYM_IGNORE  TRUE
GEOM_OPT_MAX_CYCLES 400
SCF_MAX_CYCLES 400
METHOD   B3LYP
BASIS   6-31G**
PDB_PRINT 2
SCF_CONVERGENCE 6
THRESH 14
SCF_PRINT 1
$end
$molecule
0 1
Br -0.621000 1.744900 0.138600
Br 2.339300 0.022500 -0.135100
C -0.519000 -0.151000 -0.364100
C 0.644500 -0.814800 0.353000
C -1.843800 -0.801500 0.007700
H -0.380000 -0.157800 -1.450100
H 0.570800 -0.733000 1.441800
H 0.738000 -1.869500 0.078300
H -2.034600 -0.746700 1.085500
H -2.681600 -0.314200 -0.503400
H -1.847800 -1.857900 -0.281400
$end
$scan
stre 1 3 1.100000 1.101000 0.100000
$end
--------------------------------------------------------------
 ----------------------------------------------------------------
             Standard Nuclear Orientation (Angstroms)
    I     Atom           X                Y                Z
 ----------------------------------------------------------------
    1      Br     -0.6210000000     1.7449000000     0.1386000000
    2      Br      2.3393000000     0.0225000000    -0.1351000000
    3      C      -0.5190000000    -0.1510000000    -0.3641000000
    4      C       0.6445000000    -0.8148000000     0.3530000000
    5      C      -1.8438000000    -0.8015000000     0.0077000000
    6      H      -0.3800000000    -0.1578000000    -1.4501000000
    7      H       0.5708000000    -0.7330000000     1.4418000000
    8      H       0.7380000000    -1.8695000000     0.0783000000
    9      H      -2.0346000000    -0.7467000000     1.0855000000
   10      H      -2.6816000000    -0.3142000000    -0.5034000000
   11      H      -1.8478000000    -1.8579000000    -0.2814000000
 ----------------------------------------------------------------
 Nuclear Repulsion Energy =   582.1602915164 hartrees
 There are       47 alpha and       47 beta electrons
 Requested basis set is 6-31G(d,p)
 There are 46 shells and 145 basis functions

 Total QAlloc Memory Limit   2000 MB
 Mega-Array Size       188 MB
 MEM_STATIC part       192 MB
A total of 1 constraints
  
            1
    1   1.0100000
    2   1.0100000
    3   3.0100000
    4   1.1000000
    5   1.1010000
    6   0.1000000
    7   0.0000000
    8   0.0000000
    9   0.0000000
   10   0.0000000

                       Distance Matrix (Angstroms)
             Br(  1)   Br(  2)   C (  3)   C (  4)   C (  5)   H (  6)
   Br(  2)  3.435833
   C (  3)  1.964064  2.872703
   C (  4)  2.863481  1.952347  1.519406
   C (  5)  2.827813  4.265875  1.521999  2.512180
   H (  6)  2.490445  3.025942  1.094880  2.175412  2.163849
   H (  7)  3.042812  2.486963  2.188073  1.094353  2.809204  3.098058
   H (  8)  3.861917  2.487843  2.174628  1.093890  2.794870  2.552616
   H (  9)  3.017110  4.605707  2.180193  2.778268  1.095929  3.084440
   H ( 10)  2.982973  5.045637  2.173218  3.470873  1.095716  2.493605
   H ( 11)  3.829048  4.592289  2.164730  2.775262  1.095251  2.531923
             H (  7)   H (  8)   H (  9)   H ( 10)
   H (  8)  1.782897
   H (  9)  2.629686  3.156334
   H ( 10)  3.812781  3.801447  1.769256
   H ( 11)  3.175601  2.610724  1.771461  1.768478
 
 A cutoff of  1.0D-14 yielded    989 shell pairs
 There are      9802 function pairs
 
 -------------------------------------------------------
 OpenMP Integral Computing Module                       
 Release: version 1.0, May 2013, Q-Chem Inc. Pittsburgh 
 -------------------------------------------------------
 Integral Job Info:
 Integral job number is                      11
 Integral operator is                         1
 short-range coefficients                     0
 long-range coefficients              100000000
 Omega coefficients                           0
 if combine SR and LR in K                    0
 Integral screening is                        0
 Integral computing path is                   2
 max size of driver memory is            800000
 size of driver memory is                593474
 size of scratch memory is             15267112
 max col of scratch BK array               1296
 max len of scratch array in speh3          155
 max len of scratch index in speh4           18
 max int batch size is                      520
 min int batch size is                       52
 fixed nKL is                                52
 max L of basis functions is                  2
 order of int derivative is                   0
 number of shells is                         46
 number of basis is                         145
 number of cartesian basis is               145
 number of contracted shell pairs           989
 number of primitive shell pairs           4337
 maxK2 (contraction) of shell pair           36
 max number of K2 of shell pair               1
 max number of CS2 of shell pair             68
 max number of PS2 of shell pair            408
 mem total for path MDJ                  537180
 -------------------------------------------------------
 Smallest overlap matrix eigenvalue = 7.22E-04

 Scale SEOQF with 1.000000e-01/1.000000e-01/1.000000e+00

 Standard Electronic Orientation quadrupole field applied
 Nucleus-field energy     =     0.0000000084 hartrees
 Guess from superposition of atomic densities
 Warning:  Energy on first SCF cycle will be non-variational
 SAD guess density has 93.945746 electrons

 -----------------------------------------------------------------------
  General SCF calculation program by
  Eric Jon Sundstrom, Paul Horn, Yuezhi Mao, Dmitri Zuev, Alec White,
  David Stuck, Shaama M.S., Shane Yost, Joonho Lee, David Small,
  Daniel Levine, Susi Lehtola, Hugh Burton, Evgeny Epifanovsky
 -----------------------------------------------------------------------
 Exchange:     0.2000 Hartree-Fock + 0.0800 Slater + 0.7200 B88
 Correlation:  0.1900 VWN1RPA + 0.8100 LYP
 Using SG-1 standard quadrature grid
 using 12 threads for integral computing
 -------------------------------------------------------
 OpenMP Integral computing Module                
 Release: version 1.0, May 2013, Q-Chem Inc. Pittsburgh 
 -------------------------------------------------------
 -------------------------------------------------------
 OpenMP BLAS3 based DFT computing Module                
 Release: version 1.0, May 2013, Q-Chem Inc. Pittsburgh 
 -------------------------------------------------------
 A unrestricted SCF calculation will be
 performed using DIIS
 SCF converges when DIIS error is below 1.0e-06
 Alpha HF Exchange    Energy = -19.64530092966037
 Beta HF Exchange     Energy = -19.64530092966037
 DFT Correlation      Energy =  -5.21471312224254
 DFT Exchange         Energy = -155.93577588533046
 One-Electron (alpha) Energy = -4238.50242063572750
 One-Electron (beta)  Energy = -4238.50242063572750
 Total Coulomb        Energy = 2822.06506774214540
 ---------------------------------------
  Cycle       Energy         DIIS error
 ---------------------------------------
    1   -5273.2205728714      1.84e-01  
 Alpha HF Exchange    Energy = -19.73766330899821
 Beta HF Exchange     Energy = -19.73766330899821
 DFT Correlation      Energy =  -5.26424077592262
 DFT Exchange         Energy = -157.08633972640345
 One-Electron (alpha) Energy = -4248.66448193395354
 One-Electron (beta)  Energy = -4248.66448193395445
 Total Coulomb        Energy = 2851.40423900592077
    2   -5265.5903404575      1.03e-02  
 Alpha HF Exchange    Energy = -19.60460306273609
 Beta HF Exchange     Energy = -19.60460306273606
 DFT Correlation      Energy =  -5.22939885055130
 DFT Exchange         Energy = -156.02722139788207
 One-Electron (alpha) Energy = -4233.87759960900166
 One-Electron (beta)  Energy = -4233.87759960899984
 Total Coulomb        Energy = 2820.43608175446843
    3   -5265.6246523127      3.60e-03  
 Alpha HF Exchange    Energy = -19.70990745347416
 Beta HF Exchange     Energy = -19.70990745347418
 DFT Correlation      Energy =  -5.25535165216016
 DFT Exchange         Energy = -156.85483895071891
 One-Electron (alpha) Energy = -4245.48664084124175
 One-Electron (beta)  Energy = -4245.48664084124539
 Total Coulomb        Energy = 2844.66944304636263
    4   -5265.6735526212      2.50e-03  
 Alpha HF Exchange    Energy = -19.67135795991716
 Beta HF Exchange     Energy = -19.67135795991716
 DFT Correlation      Energy =  -5.24669397842598
 DFT Exchange         Energy = -156.55379363642021
 One-Electron (alpha) Energy = -4241.44005423447106
 One-Electron (beta)  Energy = -4241.44005423447288
 Total Coulomb        Energy = 2836.15226631449286
    5   -5265.7107541643      2.24e-04  
 Alpha HF Exchange    Energy = -19.66912373419176
 Beta HF Exchange     Energy = -19.66912373419174
 DFT Correlation      Energy =  -5.24585794575398
 DFT Exchange         Energy = -156.53503174667674
 One-Electron (alpha) Energy = -4241.13722652591605
 One-Electron (beta)  Energy = -4241.13722652591423
 Total Coulomb        Energy = 2835.52206568893234
    6   -5265.7112329989      6.82e-05  
 Alpha HF Exchange    Energy = -19.66892591581666
 Beta HF Exchange     Energy = -19.66892591581667
 DFT Correlation      Energy =  -5.24586544687749
 DFT Exchange         Energy = -156.53380456747186
 One-Electron (alpha) Energy = -4241.10645797584857
 One-Electron (beta)  Energy = -4241.10645797584948
 Total Coulomb        Energy = 2835.45886464680143
    7   -5265.7112816261      2.06e-05  
 Alpha HF Exchange    Energy = -19.66893875303325
 Beta HF Exchange     Energy = -19.66893875303325
 DFT Correlation      Energy =  -5.24581956380195
 DFT Exchange         Energy = -156.53376497111083
 One-Electron (alpha) Energy = -4241.11419932442641
 One-Electron (beta)  Energy = -4241.11419932442459
 Total Coulomb        Energy = 2835.47428290785092
    8   -5265.7112862572      5.03e-06  
 Alpha HF Exchange    Energy = -19.66896011329645
 Beta HF Exchange     Energy = -19.66896011329646
 DFT Correlation      Energy =  -5.24583676764081
 DFT Exchange         Energy = -156.53396209905924
 One-Electron (alpha) Energy = -4241.11528254550922
 One-Electron (beta)  Energy = -4241.11528254550922
 Total Coulomb        Energy = 2835.47670615848074
    9   -5265.7112865010      6.36e-07  Convergence criterion met
 ---------------------------------------
 SCF time:   CPU 38.85s  wall 3.00s 
<S^2> =          0.000000000
 Alpha HF Exchange    Energy = -19.66896011329645
 Beta HF Exchange     Energy = -19.66896011329646
 DFT Correlation      Energy =  -5.24583676764081
 DFT Exchange         Energy = -156.53396209905924
 One-Electron (alpha) Energy = -4241.11528254550922
 One-Electron (beta)  Energy = -4241.11528254550922
 Total Coulomb        Energy = 2835.47670615848074
 Nuclear repulsion Energy = 582.16029152478689
 SCF   energy in the final basis set =    -5265.7112865010
 Total energy in the final basis set =    -5265.7112865010
 
 --------------------------------------------------------------
 
                    Orbital Energies (a.u.)
 --------------------------------------------------------------
 
 Alpha MOs
 -- Occupied --
*******-482.852 -62.513 -62.511 -56.334 -56.332 -56.331 -56.330
-56.328 -56.328 -10.268 -10.260 -10.206  -8.700  -8.698  -6.531
 -6.528  -6.518  -6.517  -6.515  -6.515  -2.624  -2.621  -2.620
 -2.620  -2.618  -2.618  -2.610  -2.610  -2.608  -2.608  -0.863
 -0.794  -0.744  -0.686  -0.603  -0.497  -0.461  -0.448  -0.430
 -0.388  -0.370  -0.359  -0.292  -0.286  -0.279  -0.267
 -- Virtual --
 -0.023   0.006   0.080   0.108   0.121   0.144   0.154   0.160
  0.185   0.201   0.219   0.258   0.327   0.339   0.345   0.352
  0.357   0.396   0.437   0.460   0.480   0.504   0.542   0.550
  0.582   0.607   0.616   0.635   0.679   0.703   0.715   0.769
  0.786   0.798   0.845   0.853   0.865   0.876   0.895   0.903
  0.921   0.953   1.036   1.121   1.343   1.356   1.381   1.544
  1.588   1.677   1.730   1.752   1.804   1.818   1.878   1.934
  2.021   2.041   2.054   2.077   2.101   2.158   2.232   2.255
  2.334   2.420   2.491   2.562   2.569   2.607   2.709   2.714
  2.806   2.847   2.875   3.167   3.214   3.298   3.416   3.440
  3.454   4.202   4.407   4.553   4.723   4.727   4.748   4.757
  4.797   4.810   4.828   4.855   4.980   4.992   6.300   6.316
 90.361  90.426
 
 Beta MOs
 -- Occupied --
*******-482.852 -62.513 -62.511 -56.334 -56.332 -56.331 -56.330
-56.328 -56.328 -10.268 -10.260 -10.206  -8.700  -8.698  -6.531
 -6.528  -6.518  -6.517  -6.515  -6.515  -2.624  -2.621  -2.620
 -2.620  -2.618  -2.618  -2.610  -2.610  -2.608  -2.608  -0.863
 -0.794  -0.744  -0.686  -0.603  -0.497  -0.461  -0.448  -0.430
 -0.388  -0.370  -0.359  -0.292  -0.286  -0.279  -0.267
 -- Virtual --
 -0.023   0.006   0.080   0.108   0.121   0.144   0.154   0.160
  0.185   0.201   0.219   0.258   0.327   0.339   0.345   0.352
  0.357   0.396   0.437   0.460   0.480   0.504   0.542   0.550
  0.582   0.607   0.616   0.635   0.679   0.703   0.715   0.769
  0.786   0.798   0.845   0.853   0.865   0.876   0.895   0.903
  0.921   0.953   1.036   1.121   1.343   1.356   1.381   1.544
  1.588   1.677   1.730   1.752   1.804   1.818   1.878   1.934
  2.021   2.041   2.054   2.077   2.101   2.158   2.232   2.255
  2.334   2.420   2.491   2.562   2.569   2.607   2.709   2.714
  2.806   2.847   2.875   3.167   3.214   3.298   3.416   3.440
  3.454   4.202   4.407   4.553   4.723   4.727   4.748   4.757
  4.797   4.810   4.828   4.855   4.980   4.992   6.300   6.316
 90.361  90.426
 --------------------------------------------------------------
 
          Ground-State Mulliken Net Atomic Charges

     Atom                 Charge (a.u.)    Spin (a.u.)
  --------------------------------------------------------
      1 Br                   -0.089280       0.000000
      2 Br                   -0.083767      -0.000000
      3 C                    -0.136990       0.000000
      4 C                    -0.246145      -0.000000
      5 C                    -0.321337      -0.000000
      6 H                     0.164537       0.000000
      7 H                     0.167728       0.000000
      8 H                     0.158624       0.000000
      9 H                     0.132094      -0.000000
     10 H                     0.139717       0.000000
     11 H                     0.114819       0.000000
  --------------------------------------------------------
  Sum of atomic charges =     0.000000
  Sum of spin   charges =     0.000000

 -----------------------------------------------------------------
                    Cartesian Multipole Moments
 -----------------------------------------------------------------
    Charge (ESU x 10^10)
                -0.0000
    Dipole Moment (Debye)
         X      -1.7848      Y      -2.6238      Z      -0.0000
       Tot       3.1733
    Quadrupole Moments (Debye-Ang)
        XX     -59.1552     XY       1.6414     YY     -56.3311
        XZ       0.6102     YZ      -0.3019     ZZ     -55.3965
    Octopole Moments (Debye-Ang^2)
       XXX     -63.2078    XXY     -17.7994    XYY     -17.6671
       YYY     -59.5447    XXZ      -2.3630    XYZ      -1.1307
       YYZ       1.1439    XZZ     -20.0124    YZZ     -20.9130
       ZZZ      -0.4712
    Hexadecapole Moments (Debye-Ang^3)
      XXXX    -891.5474   XXXY      51.7543   XXYY    -232.8569
      XYYY      29.1741   YYYY    -447.4341   XXXZ       8.2165
      XXYZ      -5.4575   XYYZ       3.6655   YYYZ       0.6502
      XXZZ    -169.3166   XYZZ      11.5648   YYZZ     -97.6815
      XZZZ      15.2115   YZZZ      -9.0734   ZZZZ     -95.2665
 -----------------------------------------------------------------
 Calculating analytic gradient of the SCF energy
 Gradient of SCF Energy
            1           2           3           4           5           6
    1   0.0020783  -0.0101115   0.0054665  -0.0012238   0.0068154  -0.0023336
    2  -0.0092962   0.0020987   0.0065266  -0.0009079   0.0030531  -0.0006335
    3  -0.0002651   0.0011823  -0.0018106  -0.0012328  -0.0006458  -0.0033120
            7           8           9          10          11
    1   0.0020682   0.0019929  -0.0013481  -0.0023115  -0.0010928
    2  -0.0005075  -0.0015061  -0.0004945   0.0004124   0.0012550
    3   0.0032977   0.0013166   0.0012825  -0.0006035   0.0007906
 Max gradient component =       1.011E-02
 RMS gradient           =       3.428E-03
 Gradient time:  CPU 17.43 s  wall 1.55 s
 Geometry Optimization Parameters
   NAtoms,    NIC,     NZ,  NCons,   NDum,   NFix, NCnnct, MaxDiis
       11      68       0       1       0       0       0       0


** CONSTRAINED OPTIMIZATION IN DELOCALIZED INTERNAL COORDINATES **
   Searching for a Minimum

   Optimization Cycle:   1

                       Coordinates (Angstroms)
     ATOM                X               Y               Z
      1  Br       -0.6210000000    1.7449000000    0.1386000000
      2  Br        2.3393000000    0.0225000000   -0.1351000000
      3  C        -0.5190000000   -0.1510000000   -0.3641000000
      4  C         0.6445000000   -0.8148000000    0.3530000000
      5  C        -1.8438000000   -0.8015000000    0.0077000000
      6  H        -0.3800000000   -0.1578000000   -1.4501000000
      7  H         0.5708000000   -0.7330000000    1.4418000000
      8  H         0.7380000000   -1.8695000000    0.0783000000
      9  H        -2.0346000000   -0.7467000000    1.0855000000
     10  H        -2.6816000000   -0.3142000000   -0.5034000000
     11  H        -1.8478000000   -1.8579000000   -0.2814000000
   Point Group: c1    Number of degrees of freedom:    27


   Energy is  -5265.711286501

              Constraints and their Current Values
                                        Value     Constraint
   Distance(Angs):        1   3             1.964064     1.100000

 Attempting to Generate Delocalized Internal Coordinates
**WARNING** Constraint Gradient Reduced for constraint   1

   Using Lagrange Multiplier Algorithm


 28 Hessian modes will be used to form the next step
  Hessian Eigenvalues:
    -0.920809    0.045000    0.045000    0.073951    0.082277    0.082718
     0.083155    0.083433    0.083468    0.112020    0.160000    0.160000
     0.160000    0.160000    0.160000    0.170306    0.176897    0.222607
     0.231049    0.301749    0.304238    0.341363    0.341604    0.342127
     0.342547    0.343144    0.343670    1.086001

 Minimum Search - Taking P-RFO Step
 Searching for Lamda that Maximizes Along the Constraint modes Only
 Value Taken    Lamda =   0.05287023


 ********************************************
 ** ERROR IN DETERMINING Lamda IN CONFormD **
 ********************************************


 ** Scaling Hessian by  2.349788 **


 28 Hessian modes will be used to form the next step
  Hessian Eigenvalues:
    -0.824577    0.105740    0.105740    0.173770    0.193334    0.194370
     0.195397    0.196050    0.196133    0.263223    0.375966    0.375966
     0.375966    0.375966    0.375966    0.400184    0.415671    0.523079
     0.542916    0.709045    0.714896    0.802132    0.802696    0.803927
     0.804912    0.806316    0.807551    1.212743

 Minimum Search - Taking P-RFO Step
 Searching for Lamda that Maximizes Along the Constraint modes Only
 Value Taken    Lamda =   0.06340520
 Searching for Lamda that Minimizes Along All other modes
 Value Taken    Lamda =  -0.02860077
 Step Taken.  Stepsize is  0.291010

                             Maximum     Tolerance    Cnvgd?
         Gradient            0.300000       0.000300      NO
         Displacement        0.284234       0.001200      NO
         Energy change     *********       0.000001      NO


 New Cartesian Coordinates Obtained by Inverse Iteration

 Displacement from previous Coordinates is:  0.278123
 ----------------------------------------------------------------
             Standard Nuclear Orientation (Angstroms)
    I     Atom           X                Y                Z
 ----------------------------------------------------------------
    1      Br     -0.6361859888     1.6257033311     0.1065046319
    2      Br      2.3753411380     0.0004392061    -0.1230049323
    3      C      -0.5247159996    -0.1245189224    -0.3557046561
    4      C       0.6445172496    -0.7930454950     0.3522036158
    5      C      -1.8443740359    -0.7925998521     0.0132279030
    6      H      -0.3823664113    -0.1267661533    -1.4393721625
    7      H       0.5650093244    -0.7195661204     1.4392145473
    8      H       0.7186246323    -1.8451350564     0.0651526119
    9      H      -2.0325489634    -0.7439819651     1.0908279415
   10      H      -2.6851579664    -0.3114660681    -0.4957518401
   11      H      -1.8333429787    -1.8480629043    -0.2824976604
 ----------------------------------------------------------------
 Nuclear Repulsion Energy =   590.8677459013 hartrees
 There are       47 alpha and       47 beta electrons

                       Distance Matrix (Angstroms)
             Br(  1)   Br(  2)   C (  3)   C (  4)   C (  5)   H (  6)
   Br(  2)  3.429789
   C (  3)  1.813654  2.912060
   C (  4)  2.747893  1.962446  1.521568
   C (  5)  2.704923  4.295750  1.524448  2.511869
   H (  6)  2.350598  3.058424  1.092979  2.169830  2.165837
   H (  7)  2.952842  2.497246  2.182503  1.092389  2.800696  3.087911
   H (  8)  3.726116  2.487219  2.164148  1.093061  2.771189  2.535462
   H (  9)  2.921323  4.632175  2.179392  2.777527  1.094986  3.083175
   H ( 10)  2.883336  5.083786  2.173033  3.469537  1.094289  2.495472
   H ( 11)  3.694802  4.599502  2.165287  2.766893  1.096165  2.531117
             H (  7)   H (  8)   H (  9)   H ( 10)
   H (  8)  1.782849
   H (  9)  2.620931  3.135842
   H ( 10)  3.804501  3.775247  1.769238
   H ( 11)  3.160679  2.575540  1.773330  1.769801
 
 Applying Cartesian multipole field
    Component          Value
    ---------          -----
     (2,0,0)        1.00000E-11
     (0,2,0)        2.00000E-11
     (0,0,2)       -3.00000E-10
 Nucleus-field energy     =     0.0000000080 hartrees
 Requested basis set is 6-31G(d,p)
 There are 46 shells and 145 basis functions
 A cutoff of  1.0D-14 yielded    993 shell pairs
 There are      9860 function pairs
 Smallest overlap matrix eigenvalue = 7.21E-04
 Guess from superposition of atomic densities
 Warning:  Energy on first SCF cycle will be non-variational
 SAD guess density has 93.945746 electrons

 -----------------------------------------------------------------------
  General SCF calculation program by
  Eric Jon Sundstrom, Paul Horn, Yuezhi Mao, Dmitri Zuev, Alec White,
  David Stuck, Shaama M.S., Shane Yost, Joonho Lee, David Small,
  Daniel Levine, Susi Lehtola, Hugh Burton, Evgeny Epifanovsky
 -----------------------------------------------------------------------
 Exchange:     0.2000 Hartree-Fock + 0.0800 Slater + 0.7200 B88
 Correlation:  0.1900 VWN1RPA + 0.8100 LYP
 Using SG-1 standard quadrature grid
 using 12 threads for integral computing
 -------------------------------------------------------
 OpenMP Integral computing Module                
 Release: version 1.0, May 2013, Q-Chem Inc. Pittsburgh 
 -------------------------------------------------------
 -------------------------------------------------------
 OpenMP BLAS3 based DFT computing Module                
 Release: version 1.0, May 2013, Q-Chem Inc. Pittsburgh 
 -------------------------------------------------------
 A unrestricted SCF calculation will be
 performed using DIIS
 SCF converges when DIIS error is below 1.0e-06
 Alpha HF Exchange    Energy = -19.66011835816912
 Beta HF Exchange     Energy = -19.66011835816912
 DFT Correlation      Energy =  -5.21864170541437
 DFT Exchange         Energy = -155.96542153538689
 One-Electron (alpha) Energy = -4247.14858155018374
 One-Electron (beta)  Energy = -4247.14858155018374
 Total Coulomb        Energy = 2830.54691026407227
 ---------------------------------------
  Cycle       Energy         DIIS error
 ---------------------------------------
    1   -5273.3868068841      1.84e-01  
 Alpha HF Exchange    Energy = -19.74305468449122
 Beta HF Exchange     Energy = -19.74305468449118
 DFT Correlation      Energy =  -5.26844196126428
 DFT Exchange         Energy = -157.12458785336963
 One-Electron (alpha) Energy = -4257.20166828273341
 One-Electron (beta)  Energy = -4257.20166828272886
 Total Coulomb        Energy = 2859.83290950597348
    2   -5265.5818203337      1.03e-02  
 Alpha HF Exchange    Energy = -19.61026522541643
 Beta HF Exchange     Energy = -19.61026522541646
 DFT Correlation      Energy =  -5.23268716678506
 DFT Exchange         Energy = -156.06377847921564
 One-Electron (alpha) Energy = -4242.60489617208168
 One-Electron (beta)  Energy = -4242.60489617208532
 Total Coulomb        Energy = 2829.24358067729599
    3   -5265.6154618543      3.54e-03  
 Alpha HF Exchange    Energy = -19.71552877218033
 Beta HF Exchange     Energy = -19.71552877218034
 DFT Correlation      Energy =  -5.26052593906322
 DFT Exchange         Energy = -156.89780364334513
 One-Electron (alpha) Energy = -4254.02954528048122
 One-Electron (beta)  Energy = -4254.02954528048031
 Total Coulomb        Energy = 2853.12025408705767
    4   -5265.6604776913      2.47e-03  
 Alpha HF Exchange    Energy = -19.67660192646876
 Beta HF Exchange     Energy = -19.67660192646875
 DFT Correlation      Energy =  -5.24994841719082
 DFT Exchange         Energy = -156.58752709375042
 One-Electron (alpha) Energy = -4250.05604844057507
 One-Electron (beta)  Energy = -4250.05604844057325
 Total Coulomb        Energy = 2844.73545026675993
    5   -5265.6995800689      3.19e-04  
 Alpha HF Exchange    Energy = -19.67489316877813
 Beta HF Exchange     Energy = -19.67489316877814
 DFT Correlation      Energy =  -5.25011597293150
 DFT Exchange         Energy = -156.57577298460842
 One-Electron (alpha) Energy = -4249.78119586209868
 One-Electron (beta)  Energy = -4249.78119586210050
 Total Coulomb        Energy = 2844.16969902145775
    6   -5265.7006220885      7.74e-05  
 Alpha HF Exchange    Energy = -19.67434218175205
 Beta HF Exchange     Energy = -19.67434218175204
 DFT Correlation      Energy =  -5.24977515580795
 DFT Exchange         Energy = -156.57086398355290
 One-Electron (alpha) Energy = -4249.71696850303215
 One-Electron (beta)  Energy = -4249.71696850303124
 Total Coulomb        Energy = 2844.03483259004679
    7   -5265.7006820095      1.95e-05  
 Alpha HF Exchange    Energy = -19.67437979625414
 Beta HF Exchange     Energy = -19.67437979625414
 DFT Correlation      Energy =  -5.24979047119591
 DFT Exchange         Energy = -156.57122202026812
 One-Electron (alpha) Energy = -4249.72425876633679
 One-Electron (beta)  Energy = -4249.72425876633588
 Total Coulomb        Energy = 2844.04985812014093
    8   -5265.7006855871      5.84e-06  
 Alpha HF Exchange    Energy = -19.67439927477741
 Beta HF Exchange     Energy = -19.67439927477741
 DFT Correlation      Energy =  -5.24979412906024
 DFT Exchange         Energy = -156.57136190795649
 One-Electron (alpha) Energy = -4249.72650540272207
 One-Electron (beta)  Energy = -4249.72650540272207
 Total Coulomb        Energy = 2844.05453351107053
    9   -5265.7006859716      1.24e-06  
 Alpha HF Exchange    Energy = -19.67440299216447
 Beta HF Exchange     Energy = -19.67440299216450
 DFT Correlation      Energy =  -5.24979627559117
 DFT Exchange         Energy = -156.57139357870903
 One-Electron (alpha) Energy = -4249.72683717726250
 One-Electron (beta)  Energy = -4249.72683717726341
 Total Coulomb        Energy = 2844.05523829683852
   10   -5265.7006859870      3.75e-07  Convergence criterion met
 ---------------------------------------
 SCF time:   CPU 42.35s  wall 4.00s 
<S^2> =          0.000000000
 Alpha HF Exchange    Energy = -19.67440299216447
 Beta HF Exchange     Energy = -19.67440299216450
 DFT Correlation      Energy =  -5.24979627559117
 DFT Exchange         Energy = -156.57139357870903
 One-Electron (alpha) Energy = -4249.72683717726250
 One-Electron (beta)  Energy = -4249.72683717726341
 Total Coulomb        Energy = 2844.05523829683852
 Nuclear repulsion Energy = 590.86774590936011
 SCF   energy in the final basis set =    -5265.7006859870
 Total energy in the final basis set =    -5265.7006859870
 
 --------------------------------------------------------------
 
                    Orbital Energies (a.u.)
 --------------------------------------------------------------
 
 Alpha MOs
 -- Occupied --
*******-482.854 -62.513 -62.513 -56.334 -56.334 -56.331 -56.331
-56.331 -56.330 -10.258 -10.258 -10.204  -8.702  -8.700  -6.532
 -6.531  -6.519  -6.519  -6.517  -6.517  -2.626  -2.624  -2.622
 -2.622  -2.620  -2.620  -2.612  -2.612  -2.610  -2.610  -0.880
 -0.800  -0.744  -0.686  -0.600  -0.499  -0.463  -0.450  -0.429
 -0.391  -0.372  -0.368  -0.289  -0.286  -0.278  -0.269
 -- Virtual --
 -0.014   0.034   0.081   0.109   0.123   0.144   0.154   0.162
  0.183   0.196   0.218   0.259   0.328   0.342   0.346   0.349
  0.360   0.395   0.444   0.462   0.475   0.507   0.542   0.550
  0.588   0.603   0.613   0.630   0.682   0.709   0.726   0.771
  0.800   0.817   0.851   0.854   0.867   0.888   0.902   0.911
  0.936   0.971   1.049   1.119   1.361   1.366   1.397   1.553
  1.595   1.711   1.734   1.773   1.814   1.826   1.880   1.934
  2.022   2.052   2.063   2.079   2.107   2.163   2.234   2.267
  2.342   2.420   2.500   2.563   2.580   2.616   2.710   2.716
  2.811   2.851   2.879   3.173   3.221   3.300   3.421   3.445
  3.459   4.206   4.410   4.553   4.724   4.726   4.752   4.761
  4.801   4.811   4.855   4.878   4.983   4.995   6.299   6.313
 90.360  90.432
 
 Beta MOs
 -- Occupied --
*******-482.854 -62.513 -62.513 -56.334 -56.334 -56.331 -56.331
-56.331 -56.330 -10.258 -10.258 -10.204  -8.702  -8.700  -6.532
 -6.531  -6.519  -6.519  -6.517  -6.517  -2.626  -2.624  -2.622
 -2.622  -2.620  -2.620  -2.612  -2.612  -2.610  -2.610  -0.880
 -0.800  -0.744  -0.686  -0.600  -0.499  -0.463  -0.450  -0.429
 -0.391  -0.372  -0.368  -0.289  -0.286  -0.278  -0.269
 -- Virtual --
 -0.014   0.034   0.081   0.109   0.123   0.144   0.154   0.162
  0.183   0.196   0.218   0.259   0.328   0.342   0.346   0.349
  0.360   0.395   0.444   0.462   0.475   0.507   0.542   0.550
  0.588   0.603   0.613   0.630   0.682   0.709   0.726   0.771
  0.800   0.817   0.851   0.854   0.867   0.888   0.902   0.911
  0.936   0.971   1.049   1.119   1.361   1.366   1.397   1.553
  1.595   1.711   1.734   1.773   1.814   1.826   1.880   1.934
  2.022   2.052   2.063   2.079   2.107   2.163   2.234   2.267
  2.342   2.420   2.500   2.563   2.580   2.616   2.710   2.716
  2.811   2.851   2.879   3.173   3.221   3.300   3.421   3.445
  3.459   4.206   4.410   4.553   4.724   4.726   4.752   4.761
  4.801   4.811   4.855   4.878   4.983   4.995   6.299   6.313
 90.360  90.432
 --------------------------------------------------------------
 
          Ground-State Mulliken Net Atomic Charges

     Atom                 Charge (a.u.)    Spin (a.u.)
  --------------------------------------------------------
      1 Br                   -0.063422       0.000000
      2 Br                   -0.088467       0.000000
      3 C                    -0.134802      -0.000000
      4 C                    -0.247994       0.000000
      5 C                    -0.322165       0.000000
      6 H                     0.159755       0.000000
      7 H                     0.164346      -0.000000
      8 H                     0.154792       0.000000
      9 H                     0.129683      -0.000000
     10 H                     0.137855      -0.000000
     11 H                     0.110419      -0.000000
  --------------------------------------------------------
  Sum of atomic charges =     0.000000
  Sum of spin   charges =     0.000000

 -----------------------------------------------------------------
                    Cartesian Multipole Moments
 -----------------------------------------------------------------
    Charge (ESU x 10^10)
                -0.0000
    Dipole Moment (Debye)
         X      -1.8465      Y      -2.2817      Z       0.0191
       Tot       2.9354
    Quadrupole Moments (Debye-Ang)
        XX     -59.1689     XY       1.4152     YY     -56.2232
        XZ       0.5384     YZ      -0.3318     ZZ     -55.3406
    Octopole Moments (Debye-Ang^2)
       XXX     -64.2070    XXY     -15.1031    XYY     -18.5234
       YYY     -51.6082    XXZ      -2.0928    XYZ      -0.9764
       YYZ       1.2804    XZZ     -20.5075    YZZ     -18.2883
       ZZZ       0.4079
    Hexadecapole Moments (Debye-Ang^3)
      XXXX    -910.1242   XXXY      50.5009   XXYY    -229.1141
      XYYY      28.6770   YYYY    -402.3935   XXXZ       5.9856
      XXYZ      -3.9307   XYYZ       3.0230   YYYZ       3.6394
      XXZZ    -172.7176   XYZZ      11.4824   YYZZ     -89.3946
      XZZZ      13.0947   YZZZ      -5.4786   ZZZZ     -93.7699
 -----------------------------------------------------------------
 Calculating analytic gradient of the SCF energy
 Gradient of SCF Energy
            1           2           3           4           5           6
    1   0.0054809  -0.0047717  -0.0008834  -0.0017524   0.0048828  -0.0019106
    2  -0.0798300   0.0016865   0.0526210   0.0080314   0.0126887   0.0066415
    3  -0.0183358   0.0007918   0.0125882   0.0015225   0.0020128  -0.0006527
            7           8           9          10          11
    1   0.0011565   0.0004258  -0.0012578  -0.0018335   0.0004632
    2  -0.0010183  -0.0007925  -0.0007819  -0.0001765   0.0009300
    3   0.0018478  -0.0001318   0.0006368  -0.0002059  -0.0000735
 Max gradient component =       7.983E-02
 RMS gradient           =       1.742E-02
 Gradient time:  CPU 17.76 s  wall 1.55 s
 Geometry Optimization Parameters
   NAtoms,    NIC,     NZ,  NCons,   NDum,   NFix, NCnnct, MaxDiis
       11      68       0       1       0       0       0       0

 Cartesian Hessian Update
 Hessian Updated using BFGS Update


** CONSTRAINED OPTIMIZATION IN DELOCALIZED INTERNAL COORDINATES **
   Searching for a Minimum

   Optimization Cycle:   2

                       Coordinates (Angstroms)
     ATOM                X               Y               Z
      1  Br       -0.6361859888    1.6257033311    0.1065046319
      2  Br        2.3753411380    0.0004392061   -0.1230049323
      3  C        -0.5247159996   -0.1245189224   -0.3557046561
      4  C         0.6445172496   -0.7930454950    0.3522036158
      5  C        -1.8443740359   -0.7925998521    0.0132279030
      6  H        -0.3823664113   -0.1267661533   -1.4393721625
      7  H         0.5650093244   -0.7195661204    1.4392145473
      8  H         0.7186246323   -1.8451350564    0.0651526119
      9  H        -2.0325489634   -0.7439819651    1.0908279415
     10  H        -2.6851579664   -0.3114660681   -0.4957518401
     11  H        -1.8333429787   -1.8480629043   -0.2824976604
   Point Group: c1    Number of degrees of freedom:    27


   Energy is  -5265.700685987

              Constraints and their Current Values
                                        Value     Constraint
   Distance(Angs):        1   3             1.813654     1.100000
 Hessian Updated using BFGS Update
**WARNING** Constraint Gradient Reduced for constraint   1

   Using Lagrange Multiplier Algorithm


 25 Hessian modes will be used to form the next step
  Hessian Eigenvalues:
    -0.876964    0.105544    0.105740    0.176054    0.193343    0.193878
     0.195402    0.195863    0.196155    0.263164    0.375218    0.376649
     0.399257    0.415435    0.516003    0.544703    0.708814    0.714623
     0.802065    0.802567    0.803877    0.804990    0.806127    0.807518
     1.147072

 Minimum Search - Taking P-RFO Step
 Searching for Lamda that Maximizes Along the Constraint modes Only
 Value Taken    Lamda =   0.04549851
 Searching for Lamda that Minimizes Along All other modes
 Value Taken    Lamda =  -0.04529087
 Calculated Step too Large.  Step scaled by  0.950711
 Step Taken.  Stepsize is  0.300000

                             Maximum     Tolerance    Cnvgd?
         Gradient            0.300000       0.000300      NO
         Displacement        0.272449       0.001200      NO
         Energy change      0.010601       0.000001      NO


 New Cartesian Coordinates Obtained by Inverse Iteration

 Displacement from previous Coordinates is:  0.272008
 ----------------------------------------------------------------
             Standard Nuclear Orientation (Angstroms)
    I     Atom           X                Y                Z
 ----------------------------------------------------------------
    1      Br     -0.6494665302     1.5392293911     0.0704480873
    2      Br      2.4098394985    -0.0433020441    -0.1124352645
    3      C      -0.5325525260    -0.0740875432    -0.3427150636
    4      C       0.6379802422    -0.7712189638     0.3507181452
    5      C      -1.8394144463    -0.7905699013     0.0189972276
    6      H      -0.3852889625    -0.0923367474    -1.4250330958
    7      H       0.5551417794    -0.7064637995     1.4359672284
    8      H       0.6827895005    -1.8201658354     0.0500477753
    9      H      -2.0252046855    -0.7491038575     1.0962975665
   10      H      -2.6874164802    -0.3259213249    -0.4896600909
   11      H      -1.8016073901    -1.8450593741    -0.2818325155
 ----------------------------------------------------------------
 Nuclear Repulsion Energy =   597.9718345262 hartrees
 There are       47 alpha and       47 beta electrons

                       Distance Matrix (Angstroms)
             Br(  1)   Br(  2)   C (  3)   C (  4)   C (  5)   H (  6)
   Br(  2)  3.449233
   C (  3)  1.669480  2.951550
   C (  4)  2.659745  1.970751  1.528721
   C (  5)  2.616599  4.316462  1.533646  2.499579
   H (  6)  2.228960  3.088375  1.092443  2.158994  2.165002
   H (  7)  2.891170  2.505442  2.178690  1.090331  2.783663  3.073579
   H (  8)  3.613981  2.483213  2.163356  1.092108  2.724435  2.510388
   H (  9)  2.860331  4.650678  2.180462  2.765670  1.093990  3.078600
   H ( 10)  2.818820  5.119003  2.174500  3.458726  1.092583  2.495852
   H ( 11)  3.592345  4.583810  2.179575  2.739497  1.097213  2.526836
             H (  7)   H (  8)   H (  9)   H ( 10)
   H (  8)  1.782526
   H (  9)  2.602956  3.094357
   H ( 10)  3.790387  3.725901  1.769991
   H ( 11)  3.130735  2.506590  1.774924  1.770771
 
 Applying Cartesian multipole field
    Component          Value
    ---------          -----
     (2,0,0)        1.00000E-11
     (0,2,0)        2.00000E-11
     (0,0,2)       -3.00000E-10
 Nucleus-field energy     =     0.0000000080 hartrees
 Requested basis set is 6-31G(d,p)
 There are 46 shells and 145 basis functions
 A cutoff of  1.0D-14 yielded    993 shell pairs
 There are      9857 function pairs
 Smallest overlap matrix eigenvalue = 7.21E-04
 Guess from superposition of atomic densities
 Warning:  Energy on first SCF cycle will be non-variational
 SAD guess density has 93.945746 electrons

 -----------------------------------------------------------------------
  General SCF calculation program by
  Eric Jon Sundstrom, Paul Horn, Yuezhi Mao, Dmitri Zuev, Alec White,
  David Stuck, Shaama M.S., Shane Yost, Joonho Lee, David Small,
  Daniel Levine, Susi Lehtola, Hugh Burton, Evgeny Epifanovsky
 -----------------------------------------------------------------------
 Exchange:     0.2000 Hartree-Fock + 0.0800 Slater + 0.7200 B88
 Correlation:  0.1900 VWN1RPA + 0.8100 LYP
 Using SG-1 standard quadrature grid
 using 12 threads for integral computing
 -------------------------------------------------------
 OpenMP Integral computing Module                
 Release: version 1.0, May 2013, Q-Chem Inc. Pittsburgh 
 -------------------------------------------------------
 -------------------------------------------------------
 OpenMP BLAS3 based DFT computing Module                
 Release: version 1.0, May 2013, Q-Chem Inc. Pittsburgh 
 -------------------------------------------------------
 A unrestricted SCF calculation will be
 performed using DIIS
 SCF converges when DIIS error is below 1.0e-06
 Alpha HF Exchange    Energy = -19.67728787207981
 Beta HF Exchange     Energy = -19.67728787207981
 DFT Correlation      Energy =  -5.22258347190929
 DFT Exchange         Energy = -156.00113099404925
 One-Electron (alpha) Energy = -4254.14970868834462
 One-Electron (beta)  Energy = -4254.14970868834462
 Total Coulomb        Energy = 2837.31829583127774
 ---------------------------------------
  Cycle       Energy         DIIS error
 ---------------------------------------
    1   -5273.5875772213      1.85e-01  
 Alpha HF Exchange    Energy = -19.74942992651043
 Beta HF Exchange     Energy = -19.74942992651044
 DFT Correlation      Energy =  -5.27283726265916
 DFT Exchange         Energy = -157.17247071875812
 One-Electron (alpha) Energy = -4264.19004485032110
 One-Electron (beta)  Energy = -4264.19004485032292
 Total Coulomb        Energy = 2866.80597693872051
    2   -5265.5464460621      1.03e-02  
 Alpha HF Exchange    Energy = -19.61545212637359
 Beta HF Exchange     Energy = -19.61545212637357
 DFT Correlation      Energy =  -5.23586685994123
 DFT Exchange         Energy = -156.09971926319201
 One-Electron (alpha) Energy = -4249.47466825371885
 One-Electron (beta)  Energy = -4249.47466825371612
 Total Coulomb        Energy = 2835.96976665706234
    3   -5265.5742256920      3.60e-03  
 Alpha HF Exchange    Energy = -19.72211861666973
 Beta HF Exchange     Energy = -19.72211861666974
 DFT Correlation      Energy =  -5.26556109449395
 DFT Exchange         Energy = -156.94901031586744
 One-Electron (alpha) Energy = -4261.06654447419169
 One-Electron (beta)  Energy = -4261.06654447418987
 Total Coulomb        Energy = 2860.20448393406878
    4   -5265.6155791238      2.62e-03  
 Alpha HF Exchange    Energy = -19.68326738488672
 Beta HF Exchange     Energy = -19.68326738488672
 DFT Correlation      Energy =  -5.25380676960054
 DFT Exchange         Energy = -156.63594843457707
 One-Electron (alpha) Energy = -4257.07766482044281
 One-Electron (beta)  Energy = -4257.07766482044372
 Total Coulomb        Energy = 2851.77546534029625
    5   -5265.6643197403      4.92e-04  
 Alpha HF Exchange    Energy = -19.68091084058619
 Beta HF Exchange     Energy = -19.68091084058620
 DFT Correlation      Energy =  -5.25413730347838
 DFT Exchange         Energy = -156.61994170194555
 One-Electron (alpha) Energy = -4256.75970277205124
 One-Electron (beta)  Energy = -4256.75970277205033
 Total Coulomb        Energy = 2851.11678867046476
    6   -5265.6666830260      7.45e-05  
 Alpha HF Exchange    Energy = -19.68027453252422
 Beta HF Exchange     Energy = -19.68027453252421
 DFT Correlation      Energy =  -5.25379169838659
 DFT Exchange         Energy = -156.61440525028081
 One-Electron (alpha) Energy = -4256.67707859831353
 One-Electron (beta)  Energy = -4256.67707859831171
 Total Coulomb        Energy = 2850.94433299772754
    7   -5265.6667356784      2.60e-05  
 Alpha HF Exchange    Energy = -19.68030145126531
 Beta HF Exchange     Energy = -19.68030145126533
 DFT Correlation      Energy =  -5.25379914062001
 DFT Exchange         Energy = -156.61467339064814
 One-Electron (alpha) Energy = -4256.68232628105216
 One-Electron (beta)  Energy = -4256.68232628105397
 Total Coulomb        Energy = 2850.95515132896617
    8   -5265.6667421327      6.42e-06  
 Alpha HF Exchange    Energy = -19.68033425988803
 Beta HF Exchange     Energy = -19.68033425988804
 DFT Correlation      Energy =  -5.25380707494180
 DFT Exchange         Energy = -156.61491949410657
 One-Electron (alpha) Energy = -4256.68678124762118
 One-Electron (beta)  Energy = -4256.68678124762027
 Total Coulomb        Energy = 2850.96438043847911
    9   -5265.6667426114      1.23e-06  
 Alpha HF Exchange    Energy = -19.68033743707442
 Beta HF Exchange     Energy = -19.68033743707443
 DFT Correlation      Energy =  -5.25380931113934
 DFT Exchange         Energy = -156.61494728567004
 One-Electron (alpha) Energy = -4256.68681426666535
 One-Electron (beta)  Energy = -4256.68681426666626
 Total Coulomb        Energy = 2850.96448284332155
   10   -5265.6667426268      3.76e-07  Convergence criterion met
 ---------------------------------------
 SCF time:   CPU 43.27s  wall 4.00s 
<S^2> =         -0.000000000
 Alpha HF Exchange    Energy = -19.68033743707442
 Beta HF Exchange     Energy = -19.68033743707443
 DFT Correlation      Energy =  -5.25380931113934
 DFT Exchange         Energy = -156.61494728567004
 One-Electron (alpha) Energy = -4256.68681426666535
 One-Electron (beta)  Energy = -4256.68681426666626
 Total Coulomb        Energy = 2850.96448284332155
 Nuclear repulsion Energy = 597.97183453421326
 SCF   energy in the final basis set =    -5265.6667426268
 Total energy in the final basis set =    -5265.6667426268
 
 --------------------------------------------------------------
 
                    Orbital Energies (a.u.)
 --------------------------------------------------------------
 
 Alpha MOs
 -- Occupied --
*******-482.855 -62.517 -62.513 -56.337 -56.334 -56.334 -56.334
-56.330 -56.330 -10.255 -10.250 -10.203  -8.707  -8.700  -6.537
 -6.530  -6.524  -6.524  -6.517  -6.517  -2.632  -2.627  -2.627
 -2.624  -2.620  -2.620  -2.617  -2.617  -2.610  -2.610  -0.909
 -0.803  -0.743  -0.685  -0.598  -0.504  -0.466  -0.454  -0.428
 -0.396  -0.381  -0.369  -0.287  -0.285  -0.275  -0.269
 -- Virtual --
 -0.012   0.060   0.086   0.108   0.125   0.144   0.152   0.165
  0.183   0.187   0.217   0.260   0.330   0.341   0.344   0.350
  0.372   0.397   0.453   0.463   0.475   0.511   0.540   0.562
  0.593   0.597   0.613   0.627   0.680   0.713   0.735   0.770
  0.799   0.824   0.854   0.861   0.869   0.889   0.906   0.919
  0.948   1.007   1.075   1.120   1.374   1.382   1.422   1.554
  1.596   1.728   1.743   1.791   1.805   1.847   1.883   1.935
  2.022   2.053   2.081   2.086   2.111   2.164   2.237   2.272
  2.349   2.418   2.509   2.564   2.589   2.625   2.706   2.716
  2.814   2.854   2.882   3.176   3.226   3.296   3.422   3.449
  3.463   4.207   4.412   4.558   4.724   4.725   4.753   4.763
  4.803   4.811   4.876   4.898   4.976   4.987   6.300   6.312
 90.364  90.448
 
 Beta MOs
 -- Occupied --
*******-482.855 -62.517 -62.513 -56.337 -56.334 -56.334 -56.334
-56.330 -56.330 -10.255 -10.250 -10.203  -8.707  -8.700  -6.537
 -6.530  -6.524  -6.524  -6.517  -6.517  -2.632  -2.627  -2.627
 -2.624  -2.620  -2.620  -2.617  -2.617  -2.610  -2.610  -0.909
 -0.803  -0.743  -0.685  -0.598  -0.504  -0.466  -0.454  -0.428
 -0.396  -0.381  -0.369  -0.287  -0.285  -0.275  -0.269
 -- Virtual --
 -0.012   0.060   0.086   0.108   0.125   0.144   0.152   0.165
  0.183   0.187   0.217   0.260   0.330   0.341   0.344   0.350
  0.372   0.397   0.453   0.463   0.475   0.511   0.540   0.562
  0.593   0.597   0.613   0.627   0.680   0.713   0.735   0.770
  0.799   0.824   0.854   0.861   0.869   0.889   0.906   0.919
  0.948   1.007   1.075   1.120   1.374   1.382   1.422   1.554
  1.596   1.728   1.743   1.791   1.805   1.847   1.883   1.935
  2.022   2.053   2.081   2.086   2.111   2.164   2.237   2.272
  2.349   2.418   2.509   2.564   2.589   2.625   2.706   2.716
  2.814   2.854   2.882   3.176   3.226   3.296   3.422   3.449
  3.463   4.207   4.412   4.558   4.724   4.725   4.753   4.763
  4.803   4.811   4.876   4.898   4.976   4.987   6.300   6.312
 90.364  90.448
 --------------------------------------------------------------
 
          Ground-State Mulliken Net Atomic Charges

     Atom                 Charge (a.u.)    Spin (a.u.)
  --------------------------------------------------------
      1 Br                   -0.045217       0.000000
      2 Br                   -0.094032      -0.000000
      3 C                    -0.117795       0.000000
      4 C                    -0.252753      -0.000000
      5 C                    -0.327268       0.000000
      6 H                     0.151668       0.000000
      7 H                     0.161095       0.000000
      8 H                     0.152383       0.000000
      9 H                     0.127812      -0.000000
     10 H                     0.135630      -0.000000
     11 H                     0.108478      -0.000000
  --------------------------------------------------------
  Sum of atomic charges =    -0.000000
  Sum of spin   charges =    -0.000000

 -----------------------------------------------------------------
                    Cartesian Multipole Moments
 -----------------------------------------------------------------
    Charge (ESU x 10^10)
                -0.0000
    Dipole Moment (Debye)
         X      -1.9284      Y      -2.0245      Z       0.0242
       Tot       2.7961
    Quadrupole Moments (Debye-Ang)
        XX     -59.1835     XY       1.3035     YY     -56.2232
        XZ       0.4882     YZ      -0.3977     ZZ     -55.2966
    Octopole Moments (Debye-Ang^2)
       XXX     -65.2094    XXY     -12.9283    XYY     -19.4018
       YYY     -45.0889    XXZ      -1.8052    XYZ      -0.7902
       YYZ       1.4022    XZZ     -21.0003    YZZ     -15.9938
       ZZZ       1.4811
    Hexadecapole Moments (Debye-Ang^3)
      XXXX    -926.3933   XXXY      52.7865   XXYY    -227.8246
      XYYY      32.4131   YYYY    -372.3165   XXXZ       3.8694
      XXYZ      -2.4221   XYYZ       2.5313   YYYZ       6.3158
      XXZZ    -175.7907   XYZZ      12.7032   YYZZ     -83.7811
      XZZZ      11.0539   YZZZ      -2.1964   ZZZZ     -92.4636
 -----------------------------------------------------------------
 Calculating analytic gradient of the SCF energy
 Gradient of SCF Energy
            1           2           3           4           5           6
    1   0.0129231  -0.0002295  -0.0104640  -0.0022553   0.0022207  -0.0014958
    2  -0.1921304   0.0005126   0.1507801   0.0136496   0.0176878   0.0131029
    3  -0.0486522   0.0004545   0.0398840   0.0037018   0.0042480   0.0019599
            7           8           9          10          11
    1   0.0002173  -0.0002804  -0.0008156  -0.0007232   0.0009027
    2  -0.0014092  -0.0003113  -0.0011119  -0.0008031   0.0000331
    3   0.0000834  -0.0010986  -0.0001569   0.0000910  -0.0005147
 Max gradient component =       1.921E-01
 RMS gradient           =       4.425E-02
 Gradient time:  CPU 18.05 s  wall 1.57 s
 Geometry Optimization Parameters
   NAtoms,    NIC,     NZ,  NCons,   NDum,   NFix, NCnnct, MaxDiis
       11      68       0       1       0       0       0       0

 Cartesian Hessian Update
 Hessian Updated using BFGS Update


** CONSTRAINED OPTIMIZATION IN DELOCALIZED INTERNAL COORDINATES **
   Searching for a Minimum

   Optimization Cycle:   3

                       Coordinates (Angstroms)
     ATOM                X               Y               Z
      1  Br       -0.6494665302    1.5392293911    0.0704480873
      2  Br        2.4098394985   -0.0433020441   -0.1124352645
      3  C        -0.5325525260   -0.0740875432   -0.3427150636
      4  C         0.6379802422   -0.7712189638    0.3507181452
      5  C        -1.8394144463   -0.7905699013    0.0189972276
      6  H        -0.3852889625   -0.0923367474   -1.4250330958
      7  H         0.5551417794   -0.7064637995    1.4359672284
      8  H         0.6827895005   -1.8201658354    0.0500477753
      9  H        -2.0252046855   -0.7491038575    1.0962975665
     10  H        -2.6874164802   -0.3259213249   -0.4896600909
     11  H        -1.8016073901   -1.8450593741   -0.2818325155
   Point Group: c1    Number of degrees of freedom:    27


   Energy is  -5265.666742627

              Constraints and their Current Values
                                        Value     Constraint
   Distance(Angs):        1   3             1.669480     1.100000
 Hessian Updated using BFGS Update
**WARNING** Constraint Gradient Reduced for constraint   1

   Using Lagrange Multiplier Algorithm


 26 Hessian modes will be used to form the next step
  Hessian Eigenvalues:
    -0.794311    0.105460    0.105741    0.173185    0.193272    0.194297
     0.195407    0.195570    0.196145    0.263103    0.374654    0.375973
     0.376595    0.399260    0.415711    0.512810    0.541123    0.705328
     0.713691    0.802079    0.802567    0.803893    0.805141    0.806149
     0.807499    1.280733

 Minimum Search - Taking P-RFO Step
 Searching for Lamda that Maximizes Along the Constraint modes Only
 Value Taken    Lamda =   0.07909496
 Searching for Lamda that Minimizes Along All other modes
 Value Taken    Lamda =  -0.02714407
 Calculated Step too Large.  Step scaled by  0.833729
 Step Taken.  Stepsize is  0.300000

                             Maximum     Tolerance    Cnvgd?
         Gradient            0.300000       0.000300      NO
         Displacement        0.232568       0.001200      NO
         Energy change      0.033943       0.000001      NO


 New Cartesian Coordinates Obtained by Inverse Iteration

 Displacement from previous Coordinates is:  0.251702
 ----------------------------------------------------------------
             Standard Nuclear Orientation (Angstroms)
    I     Atom           X                Y                Z
 ----------------------------------------------------------------
    1      Br     -0.6521810689     1.4872291506     0.0458644406
    2      Br      2.4257282373    -0.0914087986    -0.1131911680
    3      C      -0.5408535008    -0.0096080763    -0.3262509164
    4      C       0.6243710139    -0.7540448224     0.3496969019
    5      C      -1.8285558280    -0.7927900366     0.0220044997
    6      H      -0.3880003762    -0.0703597119    -1.4084788995
    7      H       0.5450561006    -0.6939619226     1.4345760864
    8      H       0.6359461556    -1.7999825450     0.0393568079
    9      H      -2.0157319676    -0.7575329214     1.0988891601
   10      H      -2.6859843473    -0.3516985554    -0.4898255838
   11      H      -1.7549944186    -1.8448417604    -0.2818413291
 ----------------------------------------------------------------
 Nuclear Repulsion Energy =   604.7411118797 hartrees
 There are       47 alpha and       47 beta electrons

                       Distance Matrix (Angstroms)
             Br(  1)   Br(  2)   C (  3)   C (  4)   C (  5)   H (  6)
   Br(  2)  3.462791
   C (  3)  1.546410  2.975348
   C (  4)  2.597154  1.974396  1.539104
   C (  5)  2.565719  4.313832  1.546879  2.475022
   H (  6)  2.147321  3.097625  1.094656  2.140912  2.154852
   H (  7)  2.849472  2.509100  2.179002  1.089433  2.763903  3.056540
   H (  8)  3.530591  2.479075  2.173469  1.091069  2.662425  2.477154
   H (  9)  2.829680  4.651820  2.183044  2.744348  1.093599  3.067346
   H ( 10)  2.793738  5.132174  2.178387  3.438769  1.091657  2.490744
   H ( 11)  3.525094  4.536674  2.200953  2.692593  1.097518  2.507344
             H (  7)   H (  8)   H (  9)   H ( 10)
   H (  8)  1.782745
   H (  9)  2.583479  3.039853
   H ( 10)  3.776253  3.662347  1.771427
   H ( 11)  3.092062  2.412836  1.776694  1.771857
 
 Applying Cartesian multipole field
    Component          Value
    ---------          -----
     (2,0,0)        1.00000E-11
     (0,2,0)        2.00000E-11
     (0,0,2)       -3.00000E-10
 Nucleus-field energy     =     0.0000000079 hartrees
 Requested basis set is 6-31G(d,p)
 There are 46 shells and 145 basis functions
 A cutoff of  1.0D-14 yielded    993 shell pairs
 There are      9857 function pairs
 Smallest overlap matrix eigenvalue = 7.20E-04
 Guess from superposition of atomic densities
 Warning:  Energy on first SCF cycle will be non-variational
 SAD guess density has 93.945746 electrons

 -----------------------------------------------------------------------
  General SCF calculation program by
  Eric Jon Sundstrom, Paul Horn, Yuezhi Mao, Dmitri Zuev, Alec White,
  David Stuck, Shaama M.S., Shane Yost, Joonho Lee, David Small,
  Daniel Levine, Susi Lehtola, Hugh Burton, Evgeny Epifanovsky
 -----------------------------------------------------------------------
 Exchange:     0.2000 Hartree-Fock + 0.0800 Slater + 0.7200 B88
 Correlation:  0.1900 VWN1RPA + 0.8100 LYP
 Using SG-1 standard quadrature grid
 using 12 threads for integral computing
 -------------------------------------------------------
 OpenMP Integral computing Module                
 Release: version 1.0, May 2013, Q-Chem Inc. Pittsburgh 
 -------------------------------------------------------
 -------------------------------------------------------
 OpenMP BLAS3 based DFT computing Module                
 Release: version 1.0, May 2013, Q-Chem Inc. Pittsburgh 
 -------------------------------------------------------
 A unrestricted SCF calculation will be
 performed using DIIS
 SCF converges when DIIS error is below 1.0e-06
 Alpha HF Exchange    Energy = -19.69465037336678
 Beta HF Exchange     Energy = -19.69465037336678
 DFT Correlation      Energy =  -5.22620290300941
 DFT Exchange         Energy = -156.03871539546816
 One-Electron (alpha) Energy = -4260.76713097170614
 One-Electron (beta)  Energy = -4260.76713097170614
 Total Coulomb        Energy = 2843.64100938368802
 ---------------------------------------
  Cycle       Energy         DIIS error
 ---------------------------------------
    1   -5273.8063597173      1.86e-01  
 Alpha HF Exchange    Energy = -19.75618192563259
 Beta HF Exchange     Energy = -19.75618192563257
 DFT Correlation      Energy =  -5.27708405953323
 DFT Exchange         Energy = -157.22622833939499
 One-Electron (alpha) Energy = -4270.90967667772929
 One-Electron (beta)  Energy = -4270.90967667772838
 Total Coulomb        Energy = 2873.61385487090183
    2   -5265.4800628471      1.04e-02  
 Alpha HF Exchange    Energy = -19.61966148374759
 Beta HF Exchange     Energy = -19.61966148374757
 DFT Correlation      Energy =  -5.23859750987905
 DFT Exchange         Energy = -156.13118473970016
 One-Electron (alpha) Energy = -4255.78244141229425
 One-Electron (beta)  Energy = -4255.78244141229425
 Total Coulomb        Energy = 2841.93379113036417
    3   -5265.4990850237      3.77e-03  
 Alpha HF Exchange    Energy = -19.72884058532789
 Beta HF Exchange     Energy = -19.72884058532790
 DFT Correlation      Energy =  -5.27015753996456
 DFT Exchange         Energy = -157.00351782460058
 One-Electron (alpha) Energy = -4267.82348008630197
 One-Electron (beta)  Energy = -4267.82348008630288
 Total Coulomb        Energy = 2867.09679780391161
    4   -5265.5404070163      2.83e-03  
 Alpha HF Exchange    Energy = -19.69005758071974
 Beta HF Exchange     Energy = -19.69005758071975
 DFT Correlation      Energy =  -5.25763345472483
 DFT Exchange         Energy = -156.68873933587625
 One-Electron (alpha) Energy = -4263.73985434902352
 One-Electron (beta)  Energy = -4263.73985434902352
 Total Coulomb        Energy = 2858.46296302621477
    5   -5265.6021217363      5.82e-04  
 Alpha HF Exchange    Energy = -19.68675487402983
 Beta HF Exchange     Energy = -19.68675487402983
 DFT Correlation      Energy =  -5.25787731894574
 DFT Exchange         Energy = -156.66568068533999
 One-Electron (alpha) Energy = -4263.34585934079678
 One-Electron (beta)  Energy = -4263.34585934079769
 Total Coulomb        Energy = 2857.64243666290668
    6   -5265.6052378834      8.10e-05  
 Alpha HF Exchange    Energy = -19.68610955493999
 Beta HF Exchange     Energy = -19.68610955493999
 DFT Correlation      Energy =  -5.25752004933563
 DFT Exchange         Energy = -156.66003108240363
 One-Electron (alpha) Energy = -4263.26136760418285
 One-Electron (beta)  Energy = -4263.26136760418285
 Total Coulomb        Energy = 2857.46609769513452
    7   -5265.6052958672      3.36e-05  
 Alpha HF Exchange    Energy = -19.68614447214118
 Beta HF Exchange     Energy = -19.68614447214122
 DFT Correlation      Energy =  -5.25752952233724
 DFT Exchange         Energy = -156.66037564747467
 One-Electron (alpha) Energy = -4263.26540211129304
 One-Electron (beta)  Energy = -4263.26540211129759
 Total Coulomb        Energy = 2857.47457979367437
    8   -5265.6053066554      7.19e-06  
 Alpha HF Exchange    Energy = -19.68619118637551
 Beta HF Exchange     Energy = -19.68619118637552
 DFT Correlation      Energy =  -5.25754225768234
 DFT Exchange         Energy = -156.66073046215988
 One-Electron (alpha) Energy = -4263.27202726844826
 One-Electron (beta)  Energy = -4263.27202726845007
 Total Coulomb        Energy = 2857.48829046359288
    9   -5265.6053072783      1.20e-06  
 Alpha HF Exchange    Energy = -19.68619495901076
 Beta HF Exchange     Energy = -19.68619495901077
 DFT Correlation      Energy =  -5.25754476202033
 DFT Exchange         Energy = -156.66076335658769
 One-Electron (alpha) Energy = -4263.27207944605561
 One-Electron (beta)  Energy = -4263.27207944605561
 Total Coulomb        Energy = 2857.48843774921124
   10   -5265.6053072919      3.81e-07  Convergence criterion met
 ---------------------------------------
 SCF time:   CPU 42.73s  wall 3.00s 
<S^2> =          0.000000000
 Alpha HF Exchange    Energy = -19.68619495901076
 Beta HF Exchange     Energy = -19.68619495901077
 DFT Correlation      Energy =  -5.25754476202033
 DFT Exchange         Energy = -156.66076335658769
 One-Electron (alpha) Energy = -4263.27207944605561
 One-Electron (beta)  Energy = -4263.27207944605561
 Total Coulomb        Energy = 2857.48843774921124
 Nuclear repulsion Energy = 604.74111188761685
 SCF   energy in the final basis set =    -5265.6053072919
 Total energy in the final basis set =    -5265.6053072919
 
 --------------------------------------------------------------
 
                    Orbital Energies (a.u.)
 --------------------------------------------------------------
 
 Alpha MOs
 -- Occupied --
*******-482.854 -62.520 -62.512 -56.340 -56.338 -56.338 -56.334
-56.330 -56.330 -10.253 -10.244 -10.202  -8.713  -8.699  -6.543
 -6.530  -6.530  -6.530  -6.517  -6.517  -2.639  -2.633  -2.633
 -2.623  -2.623  -2.623  -2.619  -2.619  -2.609  -2.609  -0.941
 -0.805  -0.744  -0.684  -0.595  -0.510  -0.472  -0.458  -0.426
 -0.403  -0.391  -0.368  -0.287  -0.282  -0.270  -0.266
 -- Virtual --
 -0.011   0.067   0.099   0.106   0.125   0.142   0.146   0.167
  0.178   0.186   0.215   0.258   0.330   0.338   0.345   0.350
  0.387   0.406   0.459   0.462   0.483   0.515   0.543   0.574
  0.590   0.601   0.614   0.624   0.679   0.714   0.742   0.765
  0.798   0.821   0.853   0.866   0.872   0.890   0.908   0.925
  0.954   1.026   1.096   1.177   1.383   1.400   1.443   1.555
  1.600   1.728   1.754   1.780   1.818   1.855   1.890   1.936
  2.021   2.053   2.082   2.101   2.122   2.166   2.241   2.274
  2.354   2.414   2.511   2.561   2.594   2.635   2.698   2.716
  2.815   2.857   2.881   3.176   3.227   3.287   3.419   3.451
  3.462   4.205   4.412   4.557   4.723   4.725   4.752   4.763
  4.803   4.813   4.885   4.906   4.987   4.997   6.301   6.313
 90.365  90.495
 
 Beta MOs
 -- Occupied --
*******-482.854 -62.520 -62.512 -56.340 -56.338 -56.338 -56.334
-56.330 -56.330 -10.253 -10.244 -10.202  -8.713  -8.699  -6.543
 -6.530  -6.530  -6.530  -6.517  -6.517  -2.639  -2.633  -2.633
 -2.623  -2.623  -2.623  -2.619  -2.619  -2.609  -2.609  -0.941
 -0.805  -0.744  -0.684  -0.595  -0.510  -0.472  -0.458  -0.426
 -0.403  -0.391  -0.368  -0.287  -0.282  -0.270  -0.266
 -- Virtual --
 -0.011   0.067   0.099   0.106   0.125   0.142   0.146   0.167
  0.178   0.186   0.215   0.258   0.330   0.338   0.345   0.350
  0.387   0.406   0.459   0.462   0.483   0.515   0.543   0.574
  0.590   0.601   0.614   0.624   0.679   0.714   0.742   0.765
  0.798   0.821   0.853   0.866   0.872   0.890   0.908   0.925
  0.954   1.026   1.096   1.177   1.383   1.400   1.443   1.555
  1.600   1.728   1.754   1.780   1.818   1.855   1.890   1.936
  2.021   2.053   2.082   2.101   2.122   2.166   2.241   2.274
  2.354   2.414   2.511   2.561   2.594   2.635   2.698   2.716
  2.815   2.857   2.881   3.176   3.227   3.287   3.419   3.451
  3.462   4.205   4.412   4.557   4.723   4.725   4.752   4.763
  4.803   4.813   4.885   4.906   4.987   4.997   6.301   6.313
 90.365  90.495
 --------------------------------------------------------------
 
          Ground-State Mulliken Net Atomic Charges

     Atom                 Charge (a.u.)    Spin (a.u.)
  --------------------------------------------------------
      1 Br                   -0.025408       0.000000
      2 Br                   -0.100184       0.000000
      3 C                    -0.098241      -0.000000
      4 C                    -0.259374      -0.000000
      5 C                    -0.334463      -0.000000
      6 H                     0.141014       0.000000
      7 H                     0.158267      -0.000000
      8 H                     0.151156       0.000000
      9 H                     0.125931       0.000000
     10 H                     0.132573      -0.000000
     11 H                     0.108729       0.000000
  --------------------------------------------------------
  Sum of atomic charges =     0.000000
  Sum of spin   charges =     0.000000

 -----------------------------------------------------------------
                    Cartesian Multipole Moments
 -----------------------------------------------------------------
    Charge (ESU x 10^10)
                 0.0000
    Dipole Moment (Debye)
         X      -2.0089      Y      -1.8420      Z       0.0231
       Tot       2.7256
    Quadrupole Moments (Debye-Ang)
        XX     -59.2509     XY       1.2818     YY     -56.2270
        XZ       0.4871     YZ      -0.4653     ZZ     -55.2647
    Octopole Moments (Debye-Ang^2)
       XXX     -65.8513    XXY     -11.4234    XYY     -19.9959
       YYY     -40.6538    XXZ      -1.5683    XYZ      -0.6488
       YYZ       1.5054    XZZ     -21.3008    YZZ     -14.2764
       ZZZ       2.5419
    Hexadecapole Moments (Debye-Ang^3)
      XXXX    -931.9598   XXXY      55.9703   XXYY    -226.7610
      XYYY      37.6715   YYYY    -356.0641   XXXZ       3.4618
      XXYZ      -1.4537   XYYZ       2.6632   YYYZ       7.7722
      XXZZ    -176.7797   XYZZ      14.2746   YYZZ     -80.6170
      XZZZ      10.7514   YZZZ      -0.2719   ZZZZ     -91.9436
 -----------------------------------------------------------------
 Calculating analytic gradient of the SCF energy
 Gradient of SCF Energy
            1           2           3           4           5           6
    1   0.0267776   0.0018082  -0.0250950  -0.0033736   0.0009443  -0.0011541
    2  -0.3657540  -0.0005825   0.3235989   0.0151344   0.0166443   0.0159224
    3  -0.0926677   0.0002127   0.0838679   0.0039306   0.0046611   0.0033615
            7           8           9          10          11
    1  -0.0004492  -0.0002409  -0.0001195   0.0003262   0.0005760
    2  -0.0015066  -0.0001829  -0.0011815  -0.0011972  -0.0008953
    3  -0.0010664  -0.0013043  -0.0006950   0.0001244  -0.0004247
 Max gradient component =       3.658E-01
 RMS gradient           =       8.813E-02
 Gradient time:  CPU 18.25 s  wall 1.60 s
 Geometry Optimization Parameters
   NAtoms,    NIC,     NZ,  NCons,   NDum,   NFix, NCnnct, MaxDiis
       11      68       0       1       0       0       0       0

 Cartesian Hessian Update
 Hessian Updated using BFGS Update


** CONSTRAINED OPTIMIZATION IN DELOCALIZED INTERNAL COORDINATES **
   Searching for a Minimum

   Optimization Cycle:   4

                       Coordinates (Angstroms)
     ATOM                X               Y               Z
      1  Br       -0.6521810689    1.4872291506    0.0458644406
      2  Br        2.4257282373   -0.0914087986   -0.1131911680
      3  C        -0.5408535008   -0.0096080763   -0.3262509164
      4  C         0.6243710139   -0.7540448224    0.3496969019
      5  C        -1.8285558280   -0.7927900366    0.0220044997
      6  H        -0.3880003762   -0.0703597119   -1.4084788995
      7  H         0.5450561006   -0.6939619226    1.4345760864
      8  H         0.6359461556   -1.7999825450    0.0393568079
      9  H        -2.0157319676   -0.7575329214    1.0988891601
     10  H        -2.6859843473   -0.3516985554   -0.4898255838
     11  H        -1.7549944186   -1.8448417604   -0.2818413291
   Point Group: c1    Number of degrees of freedom:    27


   Energy is  -5265.605307292

              Constraints and their Current Values
                                        Value     Constraint
   Distance(Angs):        1   3             1.546410     1.100000
 Hessian Updated using BFGS Update
**WARNING** Constraint Gradient Reduced for constraint   1

   Using Lagrange Multiplier Algorithm


 27 Hessian modes will be used to form the next step
  Hessian Eigenvalues:
    -0.655280    0.105409    0.105741    0.166728    0.193267    0.194339
     0.195389    0.195554    0.196142    0.263081    0.374506    0.375967
     0.375969    0.376384    0.399342    0.415633    0.513490    0.536783
     0.701491    0.713242    0.802092    0.802595    0.803902    0.804733
     0.806170    0.807489    1.572352

 Minimum Search - Taking P-RFO Step
 Searching for Lamda that Maximizes Along the Constraint modes Only
 Value Taken    Lamda =   0.11182083


 ********************************************
 ** ERROR IN DETERMINING Lamda IN CONFormD **
 ********************************************


 ** Scaling Hessian by  2.121660 **


 27 Hessian modes will be used to form the next step
  Hessian Eigenvalues:
    -0.448836    0.223557    0.224347    0.341939    0.410024    0.412105
     0.414529    0.414859    0.416143    0.558122    0.793879    0.797652
     0.797674    0.798279    0.847269    0.881778    1.086266    1.128134
     1.472548    1.512487    1.701750    1.702833    1.705392    1.705880
     1.710403    1.713183    2.440092

 Minimum Search - Taking P-RFO Step
 Searching for Lamda that Maximizes Along the Constraint modes Only
 Value Taken    Lamda =   0.15091273
 Searching for Lamda that Minimizes Along All other modes
 Value Taken    Lamda =  -0.01453356
 Calculated Step too Large.  Step scaled by  0.857813
 Step Taken.  Stepsize is  0.300000

                             Maximum     Tolerance    Cnvgd?
         Gradient            0.300000       0.000300      NO
         Displacement        0.408506       0.001200      NO
         Energy change      0.061435       0.000001      NO


 New Cartesian Coordinates Obtained by Inverse Iteration

 Displacement from previous Coordinates is:  0.243592
 ----------------------------------------------------------------
             Standard Nuclear Orientation (Angstroms)
    I     Atom           X                Y                Z
 ----------------------------------------------------------------
    1      Br     -0.6546611700     1.4550336927     0.0332291317
    2      Br      2.4280632741    -0.1365028200    -0.1254334326
    3      C      -0.5486185240     0.0580549762    -0.3060291401
    4      C       0.6083374575    -0.7411734721     0.3493111185
    5      C      -1.8141065774    -0.7946169561     0.0222835571
    6      H      -0.3900331530    -0.0671612761    -1.3862290519
    7      H       0.5402267189    -0.6834305679     1.4351421759
    8      H       0.5848922191    -1.7835646921     0.0315621553
    9      H      -2.0098460546    -0.7649885239     1.0980034033
   10      H      -2.6794773436    -0.3788082697    -0.4971028331
   11      H      -1.6999768469    -1.8418420909    -0.2839370840
 ----------------------------------------------------------------
 Nuclear Repulsion Energy =   611.2685936720 hartrees
 There are       47 alpha and       47 beta electrons

                       Distance Matrix (Angstroms)
             Br(  1)   Br(  2)   C (  3)   C (  4)   C (  5)   H (  6)
   Br(  2)  3.472946
   C (  3)  1.441489  2.988495
   C (  4)  2.553116  1.975452  1.551381
   C (  5)  2.530882  4.295456  1.560865  2.445003
   H (  6)  2.098087  3.088055  1.098936  2.112614  2.130982
   H (  7)  2.822436  2.509672  2.183360  1.089496  2.747984  3.034025
   H (  8)  3.467710  2.476841  2.188693  1.089997  2.594860  2.430360
   H (  9)  2.810475  4.646163  2.187211  2.723232  1.093785  3.046665
   H ( 10)  2.782824  5.126775  2.183556  3.414301  1.091570  2.475727
   H ( 11)  3.473135  4.469230  2.221649  2.634538  1.097031  2.465865
             H (  7)   H (  8)   H (  9)   H ( 10)
   H (  8)  1.783908
   H (  9)  2.573555  2.984537
   H ( 10)  3.767341  3.592901  1.772542
   H ( 11)  3.052157  2.307285  1.779155  1.773507
 
 Applying Cartesian multipole field
    Component          Value
    ---------          -----
     (2,0,0)        1.00000E-11
     (0,2,0)        2.00000E-11
     (0,0,2)       -3.00000E-10
 Nucleus-field energy     =     0.0000000078 hartrees
 Requested basis set is 6-31G(d,p)
 There are 46 shells and 145 basis functions
 A cutoff of  1.0D-14 yielded    993 shell pairs
 There are      9857 function pairs
 Smallest overlap matrix eigenvalue = 7.19E-04
 Guess from superposition of atomic densities
 Warning:  Energy on first SCF cycle will be non-variational
 SAD guess density has 93.945746 electrons

 -----------------------------------------------------------------------
  General SCF calculation program by
  Eric Jon Sundstrom, Paul Horn, Yuezhi Mao, Dmitri Zuev, Alec White,
  David Stuck, Shaama M.S., Shane Yost, Joonho Lee, David Small,
  Daniel Levine, Susi Lehtola, Hugh Burton, Evgeny Epifanovsky
 -----------------------------------------------------------------------
 Exchange:     0.2000 Hartree-Fock + 0.0800 Slater + 0.7200 B88
 Correlation:  0.1900 VWN1RPA + 0.8100 LYP
 Using SG-1 standard quadrature grid
 using 12 threads for integral computing
 -------------------------------------------------------
 OpenMP Integral computing Module                
 Release: version 1.0, May 2013, Q-Chem Inc. Pittsburgh 
 -------------------------------------------------------
 -------------------------------------------------------
 OpenMP BLAS3 based DFT computing Module                
 Release: version 1.0, May 2013, Q-Chem Inc. Pittsburgh 
 -------------------------------------------------------
 A unrestricted SCF calculation will be
 performed using DIIS
 SCF converges when DIIS error is below 1.0e-06
 Alpha HF Exchange    Energy = -19.71171122767057
 Beta HF Exchange     Energy = -19.71171122767057
 DFT Correlation      Energy =  -5.22962549916457
 DFT Exchange         Energy = -156.07793609646342
 One-Electron (alpha) Energy = -4267.08561017212833
 One-Electron (beta)  Energy = -4267.08561017212833
 Total Coulomb        Energy = 2849.59862795877007
 ---------------------------------------
  Cycle       Energy         DIIS error
 ---------------------------------------
    1   -5274.0349827566      1.88e-01  
 Alpha HF Exchange    Energy = -19.76337645031018
 Beta HF Exchange     Energy = -19.76337645031018
 DFT Correlation      Energy =  -5.28131709637513
 DFT Exchange         Energy = -157.28708824045867
 One-Electron (alpha) Energy = -4277.42587563083271
 One-Electron (beta)  Energy = -4277.42587563083180
 Total Coulomb        Energy = 2880.29942997269063
    2   -5265.3788858466      1.04e-02  
[...]
    I     Atom           X                Y                Z
 ----------------------------------------------------------------
    1      Br     -0.6024806451     1.3340389271    -0.1185208440
    2      Br      2.4285675996    -0.0134851629     0.0536932278
    3      C      -0.5691147085     0.2558533918    -0.3339346533
    4      C       0.6359633935    -0.7838870843     0.3324111660
    5      C      -1.8331820072    -0.7730999933     0.0631886441
    6      H      -0.4356349787    -0.2073022570    -1.3714236030
    7      H       0.4962535994    -0.8381734985     1.4161451501
    8      H       0.6325691448    -1.7687451770    -0.1301301991
    9      H      -1.9956617429    -0.7038215114     1.1464734844
   10      H      -2.7144266053    -0.3694923798    -0.4489951015
   11      H      -1.6780530495    -1.8108852547    -0.2381072715
 ----------------------------------------------------------------
 Nuclear Repulsion Energy =   643.5965898239 hartrees
 There are       47 alpha and       47 beta electrons

                       Distance Matrix (Angstroms)
             Br(  1)   Br(  2)   C (  3)   C (  4)   C (  5)   H (  6)
   Br(  2)  3.321556
   C (  3)  1.100000  3.034617
   C (  4)  2.494533  1.970947  1.725483
   C (  5)  2.446973  4.328928  1.677593  2.483803
   H (  6)  1.993323  3.205024  1.143990  2.093759  2.081196
   H (  7)  2.877659  2.504041  2.322646  1.094050  2.694624  3.006153
   H (  8)  3.339574  2.518003  2.363172  1.088072  2.666198  2.262736
   H (  9)  2.773813  4.609180  2.268837  2.755823  1.097591  3.003335
   H ( 10)  2.733413  5.179752  2.237557  3.465174  1.096277  2.463751
   H ( 11)  3.325914  4.492230  2.347410  2.595166  1.091715  2.323680
             H (  7)   H (  8)   H (  9)   H ( 10)
   H (  8)  1.809838
   H (  9)  2.510063  3.109884
   H ( 10)  3.742576  3.641698  1.781550
   H ( 11)  2.900057  2.313528  1.800980  1.787780
 
 Applying Cartesian multipole field
    Component          Value
    ---------          -----
     (2,0,0)        1.00000E-11
     (0,2,0)        2.00000E-11
     (0,0,2)       -3.00000E-10
 Nucleus-field energy     =     0.0000000068 hartrees
 Requested basis set is 6-31G(d,p)
 There are 46 shells and 145 basis functions
 A cutoff of  1.0D-14 yielded    996 shell pairs
 There are      9945 function pairs
 Smallest overlap matrix eigenvalue = 7.15E-04
 Guess from superposition of atomic densities
 Warning:  Energy on first SCF cycle will be non-variational
 SAD guess density has 93.945746 electrons

 -----------------------------------------------------------------------
  General SCF calculation program by
  Eric Jon Sundstrom, Paul Horn, Yuezhi Mao, Dmitri Zuev, Alec White,
  David Stuck, Shaama M.S., Shane Yost, Joonho Lee, David Small,
  Daniel Levine, Susi Lehtola, Hugh Burton, Evgeny Epifanovsky
 -----------------------------------------------------------------------
 Exchange:     0.2000 Hartree-Fock + 0.0800 Slater + 0.7200 B88
 Correlation:  0.1900 VWN1RPA + 0.8100 LYP
 Using SG-1 standard quadrature grid
 using 12 threads for integral computing
 -------------------------------------------------------
 OpenMP Integral computing Module                
 Release: version 1.0, May 2013, Q-Chem Inc. Pittsburgh 
 -------------------------------------------------------
 -------------------------------------------------------
 OpenMP BLAS3 based DFT computing Module                
 Release: version 1.0, May 2013, Q-Chem Inc. Pittsburgh 
 -------------------------------------------------------
 A unrestricted SCF calculation will be
 performed using DIIS
 SCF converges when DIIS error is below 1.0e-06
 Alpha HF Exchange    Energy = -19.76798007970658
 Beta HF Exchange     Energy = -19.76798007970658
 DFT Correlation      Energy =  -5.23859463446309
 DFT Exchange         Energy = -156.23385615298116
 One-Electron (alpha) Energy = -4297.52586928652727
 One-Electron (beta)  Energy = -4297.52586928652727
 Total Coulomb        Energy = 2877.56190907512382
 ---------------------------------------
  Cycle       Energy         DIIS error
 ---------------------------------------
    1   -5274.9016506141      1.98e-01  
 Alpha HF Exchange    Energy = -19.79663449979907
 Beta HF Exchange     Energy = -19.79663449979908
 DFT Correlation      Energy =  -5.29596390922611
 DFT Exchange         Energy = -157.60284025657450
 One-Electron (alpha) Energy = -4309.36211377470681
 One-Electron (beta)  Energy = -4309.36211377470772
 Total Coulomb        Energy = 2913.27216421293633
    2   -5264.3475466711      1.09e-02  
 Alpha HF Exchange    Energy = -19.62572853789236
 Beta HF Exchange     Energy = -19.62572853789236
 DFT Correlation      Energy =  -5.24397822248806
 DFT Exchange         Energy = -156.20918310305689
 One-Electron (alpha) Energy = -4288.70212535434348
 One-Electron (beta)  Energy = -4288.70212535434348
 Total Coulomb        Energy = 2870.29206507168146
    3   -5264.2202142076      6.37e-03  
 Alpha HF Exchange    Energy = -19.75756276425182
 Beta HF Exchange     Energy = -19.75756276425182
 DFT Correlation      Energy =  -5.28619799172606
 DFT Exchange         Energy = -157.28457097071487
 One-Electron (alpha) Energy = -4305.29790677513301
 One-Electron (beta)  Energy = -4305.29790677513483
 Total Coulomb        Energy = 2904.66532878932276
    4   -5264.4197894212      4.22e-03  
 Alpha HF Exchange    Energy = -19.72285364892587
 Beta HF Exchange     Energy = -19.72285364892589
 DFT Correlation      Energy =  -5.27334037296558
 DFT Exchange         Energy = -156.99250189209391
 One-Electron (alpha) Energy = -4300.91316515655035
 One-Electron (beta)  Energy = -4300.91316515655399
 Total Coulomb        Energy = 2895.36868904903804
    5   -5264.5726009962      7.60e-04  
 Alpha HF Exchange    Energy = -19.71368369916046
 Beta HF Exchange     Energy = -19.71368369916046
 DFT Correlation      Energy =  -5.27209751078512
 DFT Exchange         Energy = -156.92379027771955
 One-Electron (alpha) Energy = -4299.92132699051035
 One-Electron (beta)  Energy = -4299.92132699051126
 Total Coulomb        Energy = 2893.29274935417561
    6   -5264.5765699829      1.94e-04  
 Alpha HF Exchange    Energy = -19.71339659822773
 Beta HF Exchange     Energy = -19.71339659822772
 DFT Correlation      Energy =  -5.27157369677292
 DFT Exchange         Energy = -156.91999733896557
 One-Electron (alpha) Energy = -4299.90064235065256
 One-Electron (beta)  Energy = -4299.90064235064892
 Total Coulomb        Energy = 2893.24629269316074
    7   -5264.5767664096      1.13e-04  
 Alpha HF Exchange    Energy = -19.71381666901396
 Beta HF Exchange     Energy = -19.71381666901395
 DFT Correlation      Energy =  -5.27176616150543
 DFT Exchange         Energy = -156.92370569855075
 One-Electron (alpha) Energy = -4299.91642592774861
 One-Electron (beta)  Energy = -4299.91642592774861
 Total Coulomb        Energy = 2893.28246494480527
    8   -5264.5769022780      1.77e-05  
 Alpha HF Exchange    Energy = -19.71395364670637
 Beta HF Exchange     Energy = -19.71395364670635
 DFT Correlation      Energy =  -5.27179387547662
 DFT Exchange         Energy = -156.92474018189216
 One-Electron (alpha) Energy = -4299.94263738562313
 One-Electron (beta)  Energy = -4299.94263738561949
 Total Coulomb        Energy = 2893.33622064078463
    9   -5264.5769056505      5.68e-06  
 Alpha HF Exchange    Energy = -19.71395876570581
 Beta HF Exchange     Energy = -19.71395876570582
 DFT Correlation      Energy =  -5.27180344796245
 DFT Exchange         Energy = -156.92479782805668
 One-Electron (alpha) Energy = -4299.94050234586575
 One-Electron (beta)  Energy = -4299.94050234586575
 Total Coulomb        Energy = 2893.33202771613924
   10   -5264.5769059523      1.03e-06  
 Alpha HF Exchange    Energy = -19.71396046777448
 Beta HF Exchange     Energy = -19.71396046777447
 DFT Correlation      Energy =  -5.27180319307158
 DFT Exchange         Energy = -156.92480918874679
 One-Electron (alpha) Energy = -4299.94127342489446
 One-Electron (beta)  Energy = -4299.94127342489264
 Total Coulomb        Energy = 2893.33358437361812
   11   -5264.5769059628      3.13e-07  Convergence criterion met
 ---------------------------------------
 SCF time:   CPU 47.21s  wall 4.00s 
<S^2> =          0.000000000
 Alpha HF Exchange    Energy = -19.71396046777448
 Beta HF Exchange     Energy = -19.71396046777447
 DFT Correlation      Energy =  -5.27180319307158
 DFT Exchange         Energy = -156.92480918874679
 One-Electron (alpha) Energy = -4299.94127342489446
 One-Electron (beta)  Energy = -4299.94127342489264
 Total Coulomb        Energy = 2893.33358437361812
 Nuclear repulsion Energy = 643.59658983073291
 SCF   energy in the final basis set =    -5264.5769059628
 Total energy in the final basis set =    -5264.5769059628
 
 --------------------------------------------------------------
 
                    Orbital Energies (a.u.)
 --------------------------------------------------------------
 
 Alpha MOs
 -- Occupied --
*******-482.849 -62.572 -62.507 -56.389 -56.388 -56.387 -56.328
-56.325 -56.325 -10.305 -10.238 -10.195  -8.792  -8.694  -6.637
 -6.603  -6.602  -6.524  -6.512  -6.512  -2.744  -2.717  -2.717
 -2.693  -2.693  -2.617  -2.614  -2.614  -2.604  -2.604  -1.067
 -0.799  -0.731  -0.668  -0.601  -0.541  -0.534  -0.456  -0.432
 -0.415  -0.406  -0.368  -0.289  -0.276  -0.227  -0.226
 -- Virtual --
  0.002   0.049   0.059   0.079   0.129   0.132   0.138   0.166
  0.177   0.179   0.205   0.251   0.328   0.336   0.349   0.357
  0.389   0.427   0.469   0.502   0.517   0.537   0.557   0.577
  0.593   0.613   0.629   0.648   0.672   0.695   0.723   0.765
  0.809   0.825   0.853   0.884   0.895   0.906   0.920   0.956
  0.983   1.076   1.127   1.414   1.437   1.463   1.537   1.612
  1.627   1.655   1.740   1.829   1.861   1.904   1.934   2.013
  2.035   2.056   2.073   2.082   2.156   2.250   2.258   2.357
  2.393   2.414   2.468   2.510   2.566   2.576   2.654   2.699
  2.795   2.840   2.849   3.146   3.218   3.257   3.400   3.420
  3.443   4.268   4.420   4.632   4.693   4.713   4.731   4.755
  4.808   4.814   4.906   4.926   4.994   5.221   6.255   6.307
 90.361  90.536
 
 Beta MOs
 -- Occupied --
*******-482.849 -62.572 -62.507 -56.389 -56.388 -56.387 -56.328
-56.325 -56.325 -10.305 -10.238 -10.195  -8.792  -8.694  -6.637
 -6.603  -6.602  -6.524  -6.512  -6.512  -2.744  -2.717  -2.717
 -2.693  -2.693  -2.617  -2.614  -2.614  -2.604  -2.604  -1.067
 -0.799  -0.731  -0.668  -0.601  -0.541  -0.534  -0.456  -0.432
 -0.415  -0.406  -0.368  -0.289  -0.276  -0.227  -0.226
 -- Virtual --
  0.002   0.049   0.059   0.079   0.129   0.132   0.138   0.166
  0.177   0.179   0.205   0.251   0.328   0.336   0.349   0.357
  0.389   0.427   0.469   0.502   0.517   0.537   0.557   0.577
  0.593   0.613   0.629   0.648   0.672   0.695   0.723   0.765
  0.809   0.825   0.853   0.884   0.895   0.906   0.920   0.956
  0.983   1.076   1.127   1.414   1.437   1.463   1.537   1.612
  1.627   1.655   1.740   1.829   1.861   1.904   1.934   2.013
  2.035   2.056   2.073   2.082   2.156   2.250   2.258   2.357
  2.393   2.414   2.468   2.510   2.566   2.576   2.654   2.699
  2.795   2.840   2.849   3.146   3.218   3.257   3.400   3.420
  3.443   4.268   4.420   4.632   4.693   4.713   4.731   4.755
  4.808   4.814   4.906   4.926   4.994   5.221   6.255   6.307
 90.361  90.536
 --------------------------------------------------------------
 
          Ground-State Mulliken Net Atomic Charges

     Atom                 Charge (a.u.)    Spin (a.u.)
  --------------------------------------------------------
      1 Br                    0.457901       0.000000
      2 Br                   -0.133082       0.000000
      3 C                    -0.306846      -0.000000
      4 C                    -0.321784       0.000000
      5 C                    -0.386045      -0.000000
      6 H                     0.059988       0.000000
      7 H                     0.143799      -0.000000
      8 H                     0.148416       0.000000
      9 H                     0.113309       0.000000
     10 H                     0.111337       0.000000
     11 H                     0.113007       0.000000
  --------------------------------------------------------
  Sum of atomic charges =     0.000000
  Sum of spin   charges =     0.000000

 -----------------------------------------------------------------
                    Cartesian Multipole Moments
 -----------------------------------------------------------------
    Charge (ESU x 10^10)
                 0.0000
    Dipole Moment (Debye)
         X      -2.3599      Y      -0.9781      Z      -0.1331
       Tot       2.5580
    Quadrupole Moments (Debye-Ang)
        XX     -59.9229     XY       0.4274     YY     -55.7947
        XZ       0.2330     YZ      -0.5660     ZZ     -55.1848
    Octopole Moments (Debye-Ang^2)
       XXX     -70.5278    XXY      -8.9447    XYY     -20.5475
       YYY     -40.4259    XXZ      -2.0799    XYZ      -0.0677
       YYZ      -0.3024    XZZ     -23.0230    YZZ     -12.5732
       ZZZ       1.7265
    Hexadecapole Moments (Debye-Ang^3)
      XXXX    -944.6438   XXXY      35.4307   XXYY    -217.7191
      XYYY      23.0699   YYYY    -319.8665   XXXZ     -18.6876
      XXYZ       4.0541   XYYZ      -5.3828   YYYZ      19.5638
      XXZZ    -178.3994   XYZZ       7.4585   YYZZ     -72.0880
      XZZZ     -16.0597   YZZZ      12.8897   ZZZZ     -93.8050
 -----------------------------------------------------------------
 Calculating analytic gradient of the SCF energy
 Gradient of SCF Energy
            1           2           3           4           5           6
    1   0.0860945   0.0001043  -0.0858081  -0.0000584  -0.0001841  -0.0000082
    2  -2.7803169   0.0000375   2.7801883   0.0001994  -0.0000161  -0.0000011
    3  -0.5555291  -0.0000698   0.5554635   0.0001446   0.0001469   0.0000438
            7           8           9          10          11
    1  -0.0000802  -0.0001197   0.0000482   0.0000197  -0.0000081
    2  -0.0000671  -0.0000455  -0.0000596   0.0000810   0.0000001
    3  -0.0000420  -0.0000710  -0.0000126   0.0000013  -0.0000755
 Max gradient component =       2.780E+00
 RMS gradient           =       6.983E-01
 Gradient time:  CPU 18.56 s  wall 1.62 s
 Geometry Optimization Parameters
   NAtoms,    NIC,     NZ,  NCons,   NDum,   NFix, NCnnct, MaxDiis
       11      68       0       1       0       0       0       0

 Cartesian Hessian Update
 Hessian Updated using BFGS Update
**WARNING** Hereditary positive definiteness endangered


** CONSTRAINED OPTIMIZATION IN DELOCALIZED INTERNAL COORDINATES **
   Searching for a Minimum

   Optimization Cycle:  38

                       Coordinates (Angstroms)
     ATOM                X               Y               Z
      1  Br       -0.6024806451    1.3340389271   -0.1185208440
      2  Br        2.4285675996   -0.0134851629    0.0536932278
      3  C        -0.5691147085    0.2558533918   -0.3339346533
      4  C         0.6359633935   -0.7838870843    0.3324111660
      5  C        -1.8331820072   -0.7730999933    0.0631886441
      6  H        -0.4356349787   -0.2073022570   -1.3714236030
      7  H         0.4962535994   -0.8381734985    1.4161451501
      8  H         0.6325691448   -1.7687451770   -0.1301301991
      9  H        -1.9956617429   -0.7038215114    1.1464734844
     10  H        -2.7144266053   -0.3694923798   -0.4489951015
     11  H        -1.6780530495   -1.8108852547   -0.2381072715
   Point Group: c1    Number of degrees of freedom:    27


   Energy is  -5264.576905963

              Constraints and their Current Values
                                        Value     Constraint
   Distance(Angs):        1   3             1.100000     1.100000
 Hessian Updated using BFGS Update

 26 Hessian modes will be used to form the next step
  Hessian Eigenvalues:
     0.003295    0.007953    0.072080    0.115373    0.157407    0.227363
     0.305828    0.412090    0.429600    0.472129    0.484621    0.550900
     0.695744    0.761509    0.774909    0.803302    0.820488    0.842623
     0.888056    1.004031    1.073427    1.670964    1.686781    1.699818
     1.706532    1.709214

 Minimum Search - Taking Simple RFO Step
 Searching for Lamda that Minimizes Along All modes
 Value Taken    Lamda =   0.00000000
 Step Taken.  Stepsize is  0.002772

                             Maximum     Tolerance    Cnvgd?
         Gradient           0.000213      0.000300     YES
         Displacement       0.001259      0.001200      NO
         Energy change     -0.000001      0.000001     YES


                       Distance Matrix (Angstroms)
             Br(  1)   Br(  2)   C (  3)   C (  4)   C (  5)   H (  6)
   Br(  2)  3.321556
   C (  3)  1.100000  3.034617
   C (  4)  2.494533  1.970947  1.725483
   C (  5)  2.446973  4.328928  1.677593  2.483803
   H (  6)  1.993323  3.205024  1.143990  2.093759  2.081196
   H (  7)  2.877659  2.504041  2.322646  1.094050  2.694624  3.006153
   H (  8)  3.339574  2.518003  2.363172  1.088072  2.666198  2.262736
   H (  9)  2.773813  4.609180  2.268837  2.755823  1.097591  3.003335
   H ( 10)  2.733413  5.179752  2.237557  3.465174  1.096277  2.463751
   H ( 11)  3.325914  4.492230  2.347410  2.595166  1.091715  2.323680
             H (  7)   H (  8)   H (  9)   H ( 10)
   H (  8)  1.809838
   H (  9)  2.510063  3.109884
   H ( 10)  3.742576  3.641698  1.781550
   H ( 11)  2.900057  2.313528  1.800980  1.787780
 
 Final energy is   -5264.57690596280     


 ******************************
 **  OPTIMIZATION CONVERGED  **
 ******************************

                       Coordinates (Angstroms)
     ATOM                X               Y               Z
      1  Br       -0.6024806451    1.3340389271   -0.1185208440
      2  Br        2.4285675996   -0.0134851629    0.0536932278
      3  C        -0.5691147085    0.2558533918   -0.3339346533
      4  C         0.6359633935   -0.7838870843    0.3324111660
      5  C        -1.8331820072   -0.7730999933    0.0631886441
      6  H        -0.4356349787   -0.2073022570   -1.3714236030
      7  H         0.4962535994   -0.8381734985    1.4161451501
      8  H         0.6325691448   -1.7687451770   -0.1301301991
      9  H        -1.9956617429   -0.7038215114    1.1464734844
     10  H        -2.7144266053   -0.3694923798   -0.4489951015
     11  H        -1.6780530495   -1.8108852547   -0.2381072715

Z-matrix Print:
$molecule
0 1
Br
C  1 1.100000
H  2 1.143990 1 125.307865
C  2 1.677593 1 122.138943 3 -121.567715 0
H  4 1.091715 2 114.245707 1 178.108540 0
H  4 1.096277 2 105.622214 1 57.595644 0
H  4 1.097591 2 107.846372 1 -58.372752 0
C  2 1.725483 1 122.424516 3 119.069048 0
H  8 1.088072 2 112.276386 1 -169.131001 0
H  8 1.094050 2 108.859728 1 66.184193 0
Br 8 1.970947 2 110.185375 1 -49.658249 0
$end

PES scan, value:    1.1000 energy: -5264.5769059628
------- Summary of potential scan: ------ 
    1.1000     -5264.5769059628
----------------------------------------- 
Archival summary:
1\1\hpc0242\JobtypUnspecified\ProcedureUnspecified\6-31G**\r236\knomura\WedMar1318:43:442019WedMar1318:43:442019\0\\#,JobtypUnspecified,ProcedureUnspecified,6-31G**,\\0,1\Br\C,1,1.1\H,2,1.14399,1,125.308\C,2,1.67759,1,122.139,3,-121.568,0\H,4,1.09172,2,114.246,1,178.109,0\H,4,1.09628,2,105.622,1,57.5956,0\H,4,1.09759,2,107.846,1,-58.3728,0\C,2,1.72548,1,122.425,3,119.069,0\H,8,1.08807,2,112.276,1,-169.131,0\H,8,1.09405,2,108.86,1,66.1842,0\Br,8,1.97095,2,110.185,1,-49.6582,0\\\@

 Total job time:  228.27s(wall), 2612.15s(cpu) 
 Wed Mar 13 18:43:44 2019

        *************************************************************
        *                                                           *
        *  Thank you very much for using Q-Chem.  Have a nice day.  *
        *                                                           *
        *************************************************************


