
Running Job 1 of 1 halogens/Bromine/03/Br_1_3.xyz.data/inputs/bond_triplet_3.7.in
qchem halogens/Bromine/03/Br_1_3.xyz.data/inputs/bond_triplet_3.7.in_3319.0 /staging/scratch/2868759/qchem3319/ 1
/usr/usc/qchem/5.1.1/exe/qcprog.exe_s halogens/Bromine/03/Br_1_3.xyz.data/inputs/bond_triplet_3.7.in_3319.0 /staging/scratch/2868759/qchem3319/
Check license passed

                  Welcome to Q-Chem
     A Quantum Leap Into The Future Of Chemistry


 Q-Chem 5.1, Q-Chem, Inc., Pleasanton, CA (2018)

 Yihan Shao,  Zhengting Gan,  E. Epifanovsky,  A. T. B. Gilbert,  M. Wormit,  
 J. Kussmann,  A. W. Lange,  A. Behn,  Jia Deng,  Xintian Feng,  D. Ghosh,  
 M. Goldey,  P. R. Horn,  L. D. Jacobson,  I. Kaliman,  T. Kus,  A. Landau,  
 Jie Liu,  E. I. Proynov,  R. M. Richard,  R. P. Steele,  E. J. Sundstrom,  
 H. L. Woodcock III,  P. M. Zimmerman,  D. Zuev,  B. Albrecht,  E. Alguire,  
 S. A. Baeppler,  D. Barton,  Z. Benda,  Y. A. Bernard,  E. J. Berquist,  
 K. B. Bravaya,  H. Burton,  D. Casanova,  Chun-Min Chang,  Yunqing Chen,  
 A. Chien,  K. D. Closser,  M. P. Coons,  S. Coriani,  S. Dasgupta,  
 A. L. Dempwolff,  M. Diedenhofen,  Hainam Do,  R. G. Edgar,  Po-Tung Fang,  
 S. Faraji,  S. Fatehi,  Qingguo Feng,  K. D. Fenk,  J. Fosso-Tande,  
 Qinghui Ge,  A. Ghysels,  G. Gidofalvi,  J. Gomes,  J. Gonthier,  A. Gunina,  
 D. Hait,  M. W. D. Hanson-Heine,  P. H. P. Harbach,  A. W. Hauser,  
 J. E. Herr,  E. G. Hohenstein,  Z. C. Holden,  Kerwin Hui,  B. C. Huynh,  
 T.-C. Jagau,  Hyunjun Ji,  B. Kaduk,  K. Khistyaev,  Jaehoon Kim,  
 P. Klunzinger,  K. Koh,  D. Kosenkov,  L. Koulias,  T. Kowalczyk,  
 C. M. Krauter,  A. Kunitsa,  Ka Un Lao,  A. Laurent,  K. V. Lawler,  
 Joonho Lee,  D. Lefrancois,  S. Lehtola,  D. S. Levine,  Yi-Pei Li,  
 You-Sheng Lin,  Fenglai Liu,  E. Livshits,  A. Luenser,  P. Manohar,  
 E. Mansoor,  S. F. Manzer,  Shan-Ping Mao,  Yuezhi Mao,  N. Mardirossian,  
 A. V. Marenich,  T. Markovich,  L. A. Martinez-Martinez,  S. A. Maurer,  
 N. J. Mayhall,  S. C. McKenzie,  J.-M. Mewes,  A. F. Morrison,  
 J. W. Mullinax,  K. Nanda,  T. S. Nguyen-Beck,  R. Olivares-Amaya,  
 J. A. Parkhill,  T. M. Perrine,  F. Plasser,  P. Pokhilko,  S. Prager,  
 A. Prociuk,  E. Ramos,  D. R. Rehn,  F. Rob,  M. Schneider,  N. Sergueev,  
 S. M. Sharada,  S. Sharma,  D. W. Small,  T. Stauch,  T. Stein,  
 Yu-Chuan Su,  A. J. W. Thom,  A. Tkatchenko,  T. Tsuchimochi,  N. M. Tubman,  
 L. Vogt,  M. L. Vidal,  O. Vydrov,  M. A. Watson,  J. Wenzel,  
 M. de Wergifosse,  T. A. Wesolowski,  A. White,  J. Witte,  A. Yamada,  
 Jun Yang,  K. Yao,  S. Yeganeh,  S. R. Yost,  Zhi-Qiang You,  A. Zech,  
 Igor Ying Zhang,  Xing Zhang,  Yan Zhao,  Ying Zhu,  B. R. Brooks,  
 G. K. L. Chan,  C. J. Cramer,  M. S. Gordon,  W. J. Hehre,  A. Klamt,  
 M. W. Schmidt,  C. D. Sherrill,  D. G. Truhlar,  A. Aspuru-Guzik,  R. Baer,  
 A. T. Bell,  N. A. Besley,  Jeng-Da Chai,  A. E. DePrince, III,  
 R. A. DiStasio Jr.,  A. Dreuw,  B. D. Dunietz,  T. R. Furlani,  
 Chao-Ping Hsu,  Yousung Jung,  Jing Kong,  D. S. Lambrecht,  WanZhen Liang,  
 C. Ochsenfeld,  V. A. Rassolov,  L. V. Slipchenko,  J. E. Subotnik,  
 T. Van Voorhis,  J. M. Herbert,  A. I. Krylov,  P. M. W. Gill,  M. Head-Gordon

 Contributors to earlier versions of Q-Chem not listed above: 
 R. D. Adamson,  B. Austin,  J. Baker,  G. J. O. Beran,  K. Brandhorst,  
 S. T. Brown,  E. F. C. Byrd,  A. K. Chakraborty,  C.-L. Cheng,  
 Siu Hung Chien,  D. M. Chipman,  D. L. Crittenden,  H. Dachsel,  
 R. J. Doerksen,  A. D. Dutoi,  L. Fusti-Molnar,  W. A. Goddard III,  
 A. Golubeva-Zadorozhnaya,  S. R. Gwaltney,  G. Hawkins,  A. Heyden,  
 S. Hirata,  G. Kedziora,  F. J. Keil,  C. Kelley,  Jihan Kim,  R. A. King,  
 R. Z. Khaliullin,  P. P. Korambath,  W. Kurlancheek,  A. M. Lee,  M. S. Lee,  
 S. V. Levchenko,  Ching Yeh Lin,  D. Liotard,  R. C. Lochan,  I. Lotan,  
 P. E. Maslen,  N. Nair,  D. P. O'Neill,  D. Neuhauser,  E. Neuscamman,  
 C. M. Oana,  R. Olson,  B. Peters,  R. Peverati,  P. A. Pieniazek,  
 Y. M. Rhee,  J. Ritchie,  M. A. Rohrdanz,  E. Rosta,  N. J. Russ,  
 H. F. Schaefer III,  N. E. Schultz,  N. Shenvi,  A. C. Simmonett,  A. Sodt,  
 D. Stuck,  K. S. Thanthiriwatte,  V. Vanovschi,  Tao Wang,  A. Warshel,  
 C. F. Williams,  Q. Wu,  X. Xu,  W. Zhang

 Please cite Q-Chem as follows:
 Y. Shao et al., Mol. Phys. 113, 184-215 (2015)
 DOI: 10.1080/00268976.2014.952696

 Q-Chem 5.1.1 for Intel X86 EM64T Linux

 Parts of Q-Chem use Armadillo 8.300.2 (Tropical Shenanigans).
 http://arma.sourceforge.net/

 Q-Chem begins on Wed Mar 13 21:04:36 2019  

Host: 
0

     Scratch files written to /staging/scratch/2868759/qchem3319//
 Aug318 |scratch|qcdevops|jenkins|workspace|build_RNUM 6013   
Processing $rem in /usr/usc/qchem/5.1.1/config/preferences.
 MEM_TOTAL  2000 
Input Ideriv = 2
Curr. Ideriv = -1
Max.  Ideriv = 2

Checking the input file for inconsistencies... 	...done.

--------------------------------------------------------------
User input:
--------------------------------------------------------------

$comment
potential surface scanner
$end

$rem
JOBTYPE  PES_SCAN
UNRESTRICTED TRUE
SYM_IGNORE  TRUE
GEOM_OPT_MAX_CYCLES 400
SCF_MAX_CYCLES 400
METHOD   B3LYP
BASIS   6-31G**
PDB_PRINT 2
SCF_CONVERGENCE 6
THRESH 14
SCF_PRINT 1
$end
$molecule
0 3
Br 1.040494 2.453573 -1.410559
Br 0.305070 1.553319 1.307051
C -0.535487 -0.845690 -0.375594
C 0.554104 -0.814069 0.467068
C -1.885059 -1.343625 -0.000541
H -0.413745 -0.421921 -1.370436
H 0.509037 -1.284259 1.444802
H 1.536640 -0.570713 0.080327
H -1.914661 -1.747550 1.014198
H -2.623125 -0.535205 -0.082347
H -2.208474 -2.122863 -0.703164
$end
$scan
stre 1 3 3.700000 3.701000 0.100000
$end
--------------------------------------------------------------
 ----------------------------------------------------------------
             Standard Nuclear Orientation (Angstroms)
    I     Atom           X                Y                Z
 ----------------------------------------------------------------
    1      Br      1.0404940000     2.4535730000    -1.4105590000
    2      Br      0.3050700000     1.5533190000     1.3070510000
    3      C      -0.5354870000    -0.8456900000    -0.3755940000
    4      C       0.5541040000    -0.8140690000     0.4670680000
    5      C      -1.8850590000    -1.3436250000    -0.0005410000
    6      H      -0.4137450000    -0.4219210000    -1.3704360000
    7      H       0.5090370000    -1.2842590000     1.4448020000
    8      H       1.5366400000    -0.5707130000     0.0803270000
    9      H      -1.9146610000    -1.7475500000     1.0141980000
   10      H      -2.6231250000    -0.5352050000    -0.0823470000
   11      H      -2.2084740000    -2.1228630000    -0.7031640000
 ----------------------------------------------------------------
 Nuclear Repulsion Energy =   536.8272709559 hartrees
 There are       48 alpha and       46 beta electrons
 Requested basis set is 6-31G(d,p)
 There are 46 shells and 145 basis functions

 Total QAlloc Memory Limit   2000 MB
 Mega-Array Size       188 MB
 MEM_STATIC part       192 MB
A total of 1 constraints
  
            1
    1   1.0100000
    2   1.0100000
    3   3.0100000
    4   3.7000000
    5   3.7010000
    6   0.1000000
    7   0.0000000
    8   0.0000000
    9   0.0000000
   10   0.0000000

                       Distance Matrix (Angstroms)
             Br(  1)   Br(  2)   C (  3)   C (  4)   C (  5)   H (  6)
   Br(  2)  2.955793
   C (  3)  3.800001  3.048454
   C (  4)  3.799940  2.524305  1.377784
   C (  5)  4.996571  3.859889  1.486590  2.539410
   H (  6)  3.222559  3.403998  1.088169  2.113512  2.211541
   H (  7)  4.733595  2.848232  2.144112  1.085851  2.797184  3.085566
   H (  8)  3.408109  2.744655  2.139436  1.083590  3.508840  2.435334
   H (  9)  5.679949  3.988572  2.155689  2.695466  1.092578  3.113924
   H ( 10)  4.911114  3.855734  2.130875  3.236419  1.097714  2.559954
   H ( 11)  5.656851  4.886019  2.130108  3.273259  1.097947  2.561154
             H (  7)   H (  8)   H (  9)   H ( 10)
   H (  8)  1.851191
   H (  9)  2.504869  3.764112
   H ( 10)  3.564226  4.163096  1.781604
   H ( 11)  3.563970  4.129032  1.782279  1.754425
 
 A cutoff of  1.0D-14 yielded    937 shell pairs
 There are      9265 function pairs
 
 -------------------------------------------------------
 OpenMP Integral Computing Module                       
 Release: version 1.0, May 2013, Q-Chem Inc. Pittsburgh 
 -------------------------------------------------------
 Integral Job Info:
 Integral job number is                      11
 Integral operator is                         1
 short-range coefficients                     0
 long-range coefficients              100000000
 Omega coefficients                           0
 if combine SR and LR in K                    0
 Integral screening is                        0
 Integral computing path is                   2
 max size of driver memory is            800000
 size of driver memory is                593474
 size of scratch memory is             15267112
 max col of scratch BK array               1296
 max len of scratch array in speh3          155
 max len of scratch index in speh4           18
 max int batch size is                      520
 min int batch size is                       52
 fixed nKL is                                52
 max L of basis functions is                  2
 order of int derivative is                   0
 number of shells is                         46
 number of basis is                         145
 number of cartesian basis is               145
 number of contracted shell pairs           937
 number of primitive shell pairs           3960
 maxK2 (contraction) of shell pair           36
 max number of K2 of shell pair               1
 max number of CS2 of shell pair             70
 max number of PS2 of shell pair            420
 mem total for path MDJ                  530316
 -------------------------------------------------------
 Smallest overlap matrix eigenvalue = 7.23E-04

 Scale SEOQF with 1.000000e-01/1.000000e-01/1.000000e-01

 Standard Electronic Orientation quadrupole field applied
 Nucleus-field energy     =     0.0000000115 hartrees
 Guess from superposition of atomic densities
 Warning:  Energy on first SCF cycle will be non-variational
 SAD guess density has 93.945746 electrons

 -----------------------------------------------------------------------
  General SCF calculation program by
  Eric Jon Sundstrom, Paul Horn, Yuezhi Mao, Dmitri Zuev, Alec White,
  David Stuck, Shaama M.S., Shane Yost, Joonho Lee, David Small,
  Daniel Levine, Susi Lehtola, Hugh Burton, Evgeny Epifanovsky
 -----------------------------------------------------------------------
 Exchange:     0.2000 Hartree-Fock + 0.0800 Slater + 0.7200 B88
 Correlation:  0.1900 VWN1RPA + 0.8100 LYP
 Using SG-1 standard quadrature grid
 using 12 threads for integral computing
 -------------------------------------------------------
 OpenMP Integral computing Module                
 Release: version 1.0, May 2013, Q-Chem Inc. Pittsburgh 
 -------------------------------------------------------
 -------------------------------------------------------
 OpenMP BLAS3 based DFT computing Module                
 Release: version 1.0, May 2013, Q-Chem Inc. Pittsburgh 
 -------------------------------------------------------
 A unrestricted SCF calculation will be
 performed using DIIS
 SCF converges when DIIS error is below 1.0e-06
 Alpha HF Exchange    Energy = -19.60288563939727
 Beta HF Exchange     Energy = -19.60288563939727
 DFT Correlation      Energy =  -5.19452051132214
 DFT Exchange         Energy = -155.85863833558466
 One-Electron (alpha) Energy = -4193.18657761177292
 One-Electron (beta)  Energy = -4193.18657761177292
 Total Coulomb        Energy = 2776.98476473900064
 ---------------------------------------
  Cycle       Energy         DIIS error
 ---------------------------------------
    1   -5272.8200496429      1.83e-01  
 Alpha HF Exchange    Energy = -19.84031233252874
 Beta HF Exchange     Energy = -19.61609555782236
 DFT Correlation      Energy =  -5.24242967841696
 DFT Exchange         Energy = -157.04504826103511
 One-Electron (alpha) Energy = -4231.00190211067820
 One-Electron (beta)  Energy = -4177.38330742499511
 Total Coulomb        Energy = 2807.80921137185624
    2   -5265.4926130262      1.04e-02  
 Alpha HF Exchange    Energy = -19.69376565448991
 Beta HF Exchange     Energy = -19.48980164749112
 DFT Correlation      Energy =  -5.20386636506405
 DFT Exchange         Energy = -155.95817394759436
 One-Electron (alpha) Energy = -4215.05742800036933
 One-Electron (beta)  Energy = -4158.75126951846505
 Total Coulomb        Energy = 2772.01925312462481
    3   -5265.3077810415      4.86e-03  
 Alpha HF Exchange    Energy = -19.80180933709525
 Beta HF Exchange     Energy = -19.59743243883116
 DFT Correlation      Energy =  -5.22574804773743
 DFT Exchange         Energy = -156.77150894360688
 One-Electron (alpha) Energy = -4227.58350236584101
 One-Electron (beta)  Energy = -4174.02009721004652
 Total Coulomb        Energy = 2800.88144279126436
    4   -5265.2913845845      5.03e-03  
 Alpha HF Exchange    Energy = -19.78389459387208
 Beta HF Exchange     Energy = -19.55971486876109
 DFT Correlation      Energy =  -5.22672029941729
 DFT Exchange         Energy = -156.58906403162661
 One-Electron (alpha) Energy = -4225.43794977133257
 One-Electron (beta)  Energy = -4171.01693799447457
 Total Coulomb        Energy = 2795.16570289239644
    5   -5265.6213076997      1.05e-03  
 Alpha HF Exchange    Energy = -19.76729119455617
 Beta HF Exchange     Energy = -19.54370044091549
 DFT Correlation      Energy =  -5.22249286863344
 DFT Exchange         Energy = -156.46088484717527
 One-Electron (alpha) Energy = -4223.33785208134486
 One-Electron (beta)  Energy = -4168.23064734403397
 Total Coulomb        Energy = 2790.10561060080818
    6   -5265.6299872085      5.27e-04  
 Alpha HF Exchange    Energy = -19.76792491966451
 Beta HF Exchange     Energy = -19.54571042632924
 DFT Correlation      Energy =  -5.22190883063061
 DFT Exchange         Energy = -156.46541364142652
 One-Electron (alpha) Energy = -4223.52729808516324
 One-Electron (beta)  Energy = -4168.67253944432650
 Total Coulomb        Energy = 2790.73928837198446
    7   -5265.6342360082      2.36e-04  
 Alpha HF Exchange    Energy = -19.76875231990874
 Beta HF Exchange     Energy = -19.54633888596634
 DFT Correlation      Energy =  -5.22225179437338
 DFT Exchange         Energy = -156.47141970191649
 One-Electron (alpha) Energy = -4223.53641669225544
 One-Electron (beta)  Energy = -4168.41189497398773
 Total Coulomb        Energy = 2790.49445405479855
    8   -5265.6353493462      9.36e-05  
 Alpha HF Exchange    Energy = -19.76850068414429
 Beta HF Exchange     Energy = -19.54645024445552
 DFT Correlation      Energy =  -5.22201626866550
 DFT Exchange         Energy = -156.46932239841104
 One-Electron (alpha) Energy = -4223.55137286970603
 One-Electron (beta)  Energy = -4168.43278529928648
 Total Coulomb        Energy = 2790.52760043702528
    9   -5265.6355763603      2.77e-05  
 Alpha HF Exchange    Energy = -19.76857433282026
 Beta HF Exchange     Energy = -19.54676188306705
 DFT Correlation      Energy =  -5.22193259642489
 DFT Exchange         Energy = -156.47007818723532
 One-Electron (alpha) Energy = -4223.54483865934253
 One-Electron (beta)  Energy = -4168.40065405303903
 Total Coulomb        Energy = 2790.48994832821199
   10   -5265.6356204163      1.54e-05  
 Alpha HF Exchange    Energy = -19.76862427354014
 Beta HF Exchange     Energy = -19.54683712412671
 DFT Correlation      Energy =  -5.22192165219395
 DFT Exchange         Energy = -156.47048085711148
 One-Electron (alpha) Energy = -4223.55082000108632
 One-Electron (beta)  Energy = -4168.40223775215418
 Total Coulomb        Energy = 2790.49802508870243
   11   -5265.6356256041      7.78e-06  
 Alpha HF Exchange    Energy = -19.76864084484210
 Beta HF Exchange     Energy = -19.54685659620066
 DFT Correlation      Energy =  -5.22192004155219
 DFT Exchange         Energy = -156.47058107253628
 One-Electron (alpha) Energy = -4223.55127724930480
 One-Electron (beta)  Energy = -4168.40776074753649
 Total Coulomb        Energy = 2790.50413886757406
   12   -5265.6356267170      3.30e-06  
 Alpha HF Exchange    Energy = -19.76863867517111
 Beta HF Exchange     Energy = -19.54686501538768
 DFT Correlation      Energy =  -5.22191935705004
 DFT Exchange         Energy = -156.47059538652204
 One-Electron (alpha) Energy = -4223.55091625367731
 One-Electron (beta)  Energy = -4168.40887646276133
 Total Coulomb        Energy = 2790.50491324780432
   13   -5265.6356269354      1.46e-06  
 Alpha HF Exchange    Energy = -19.76863827259753
 Beta HF Exchange     Energy = -19.54686803744424
 DFT Correlation      Energy =  -5.22191553194517
 DFT Exchange         Energy = -156.47059612694127
 One-Electron (alpha) Energy = -4223.55022338356775
 One-Electron (beta)  Energy = -4168.40987908835177
 Total Coulomb        Energy = 2790.50522249175674
   14   -5265.6356269817      5.54e-07  Convergence criterion met
 ---------------------------------------
 SCF time:   CPU 54.71s  wall 4.00s 
<S^2> =          2.010579112
 Alpha HF Exchange    Energy = -19.76863827259753
 Beta HF Exchange     Energy = -19.54686803744424
 DFT Correlation      Energy =  -5.22191553194517
 DFT Exchange         Energy = -156.47059612694127
 One-Electron (alpha) Energy = -4223.55022338356775
 One-Electron (beta)  Energy = -4168.40987908835177
 Total Coulomb        Energy = 2790.50522249175674
 Nuclear repulsion Energy = 536.82727096737676
 SCF   energy in the final basis set =    -5265.6356269817
 Total energy in the final basis set =    -5265.6356269817
 
 --------------------------------------------------------------
 
                    Orbital Energies (a.u.)
 --------------------------------------------------------------
 
 Alpha MOs
 -- Occupied --
*******-482.830 -62.528 -62.487 -56.350 -56.348 -56.345 -56.310
-56.305 -56.305 -10.263 -10.257 -10.223  -8.716  -8.674  -6.544
 -6.538  -6.531  -6.506  -6.491  -6.491  -2.638  -2.637  -2.632
 -2.628  -2.627  -2.598  -2.595  -2.594  -2.583  -2.583  -0.848
 -0.779  -0.734  -0.727  -0.609  -0.517  -0.473  -0.458  -0.417
 -0.400  -0.374  -0.352  -0.305  -0.270  -0.262  -0.262  -0.254
 -- Virtual --
 -0.047   0.076   0.097   0.111   0.138   0.139   0.152   0.207
  0.238   0.254   0.304   0.321   0.340   0.357   0.373   0.378
  0.406   0.446   0.494   0.497   0.514   0.530   0.553   0.565
  0.574   0.587   0.610   0.634   0.639   0.648   0.658   0.676
  0.706   0.741   0.794   0.823   0.844   0.847   0.864   0.884
  0.914   0.982   1.141   1.217   1.249   1.294   1.355   1.451
  1.575   1.739   1.765   1.770   1.816   1.846   1.873   1.964
  2.001   2.048   2.062   2.072   2.138   2.251   2.318   2.332
  2.420   2.445   2.488   2.585   2.618   2.650   2.778   2.822
  2.826   2.929   3.141   3.241   3.378   3.386   3.425   3.567
  4.157   4.371   4.526   4.665   4.694   4.703   4.732   4.744
  4.746   4.748   4.751   4.846   4.874   6.264   6.314  90.232
 90.359
 
 Beta MOs
 -- Occupied --
*******-482.828 -62.527 -62.486 -56.346 -56.345 -56.344 -56.306
-56.304 -56.304 -10.257 -10.256 -10.223  -8.712  -8.671  -6.537
 -6.533  -6.529  -6.498  -6.490  -6.489  -2.632  -2.631  -2.628
 -2.625  -2.624  -2.593  -2.590  -2.590  -2.582  -2.582  -0.835
 -0.752  -0.723  -0.695  -0.601  -0.514  -0.470  -0.447  -0.414
 -0.398  -0.337  -0.307  -0.293  -0.256  -0.252
 -- Virtual --
 -0.171  -0.156  -0.018   0.078   0.099   0.113   0.141   0.141
  0.156   0.215   0.242   0.264   0.308   0.329   0.352   0.366
  0.384   0.391   0.423   0.452   0.504   0.515   0.537   0.553
  0.570   0.585   0.589   0.605   0.626   0.642   0.646   0.675
  0.677   0.688   0.716   0.754   0.797   0.828   0.848   0.864
  0.874   0.888   0.918   0.993   1.145   1.224   1.261   1.300
  1.371   1.454   1.578   1.751   1.772   1.783   1.826   1.853
  1.885   1.973   2.004   2.051   2.065   2.074   2.148   2.254
  2.320   2.339   2.426   2.454   2.492   2.592   2.622   2.654
  2.781   2.824   2.829   2.931   3.143   3.243   3.381   3.389
  3.426   3.569   4.168   4.373   4.533   4.675   4.702   4.714
  4.742   4.748   4.751   4.755   4.761   4.855   4.887   6.277
  6.327  90.237  90.365
 --------------------------------------------------------------
 
          Ground-State Mulliken Net Atomic Charges

     Atom                 Charge (a.u.)    Spin (a.u.)
  --------------------------------------------------------
      1 Br                   -0.263425       0.716825
      2 Br                   -0.092723       0.804407
      3 C                     0.028725       0.462163
      4 C                    -0.252186       0.024836
      5 C                    -0.363925      -0.032465
      6 H                     0.162623      -0.020430
      7 H                     0.154745      -0.001338
      8 H                     0.185913       0.001034
      9 H                     0.131495       0.000394
     10 H                     0.162953       0.025643
     11 H                     0.145805       0.018932
  --------------------------------------------------------
  Sum of atomic charges =    -0.000000
  Sum of spin   charges =     2.000000

 -----------------------------------------------------------------
                    Cartesian Multipole Moments
 -----------------------------------------------------------------
    Charge (ESU x 10^10)
                 0.0000
    Dipole Moment (Debye)
         X      -2.1041      Y      -5.4239      Z       0.9191
       Tot       5.8899
    Quadrupole Moments (Debye-Ang)
        XX     -55.1042     XY      -1.8716     YY     -63.3054
        XZ       1.9362     YZ       2.4313     ZZ     -57.5202
    Octopole Moments (Debye-Ang^2)
       XXX     -44.8030    XXY     -64.3535    XYY     -22.1579
       YYY    -186.5331    XXZ       2.0909    XYZ       1.4583
       YYZ      12.0949    XZZ     -13.8423    YZZ     -61.3536
       ZZZ       4.4420
    Hexadecapole Moments (Debye-Ang^3)
      XXXX    -392.0699   XXXY    -231.7940   XXYY    -266.1272
      XYYY    -239.3616   YYYY   -1202.4158   XXXZ      55.7176
      XXYZ      32.8567   XYYZ      24.8304   YYYZ     116.3867
      XXZZ    -153.6149   XYZZ     -73.9004   YYZZ    -275.7299
      XZZZ      47.9356   YZZZ      81.5919   ZZZZ    -501.8972
 -----------------------------------------------------------------
 Calculating analytic gradient of the SCF energy
 Gradient of SCF Energy
            1           2           3           4           5           6
    1  -0.0001219  -0.0000401   0.0000051   0.0000199   0.0000224   0.0000073
    2  -0.0000412  -0.0000716   0.0000450   0.0001836  -0.0000187   0.0000252
    3   0.0001298   0.0000755  -0.0001067   0.0000745  -0.0000178  -0.0000018
            7           8           9          10          11
    1   0.0000078   0.0000381   0.0000289   0.0000011   0.0000312
    2  -0.0000263   0.0000233  -0.0000704  -0.0000403  -0.0000086
    3  -0.0000291  -0.0000407  -0.0000393   0.0000101  -0.0000545
 Max gradient component =       1.836E-04
 RMS gradient           =       6.007E-05
 Gradient time:  CPU 15.27 s  wall 1.37 s
 Geometry Optimization Parameters
   NAtoms,    NIC,     NZ,  NCons,   NDum,   NFix, NCnnct, MaxDiis
       11      72       0       1       0       0       0       0


** CONSTRAINED OPTIMIZATION IN DELOCALIZED INTERNAL COORDINATES **
   Searching for a Minimum

   Optimization Cycle:   1

                       Coordinates (Angstroms)
     ATOM                X               Y               Z
      1  Br        1.0404940000    2.4535730000   -1.4105590000
      2  Br        0.3050700000    1.5533190000    1.3070510000
      3  C        -0.5354870000   -0.8456900000   -0.3755940000
      4  C         0.5541040000   -0.8140690000    0.4670680000
      5  C        -1.8850590000   -1.3436250000   -0.0005410000
      6  H        -0.4137450000   -0.4219210000   -1.3704360000
      7  H         0.5090370000   -1.2842590000    1.4448020000
      8  H         1.5366400000   -0.5707130000    0.0803270000
      9  H        -1.9146610000   -1.7475500000    1.0141980000
     10  H        -2.6231250000   -0.5352050000   -0.0823470000
     11  H        -2.2084740000   -2.1228630000   -0.7031640000
   Point Group: c1    Number of degrees of freedom:    27


   Energy is  -5265.635626982

              Constraints and their Current Values
                                        Value     Constraint
   Distance(Angs):        1   3             3.800001     3.700000

 Attempting to Generate Delocalized Internal Coordinates

   Using Lagrange Multiplier Algorithm


 28 Hessian modes will be used to form the next step
  Hessian Eigenvalues:
    -0.995227    0.034427    0.041223    0.045000    0.045000    0.045043
     0.065896    0.067090    0.085020    0.092244    0.092946    0.095524
     0.113825    0.143708    0.159802    0.160000    0.160000    0.160000
     0.220052    0.333035    0.338260    0.339101    0.339362    0.345164
     0.350251    0.352965    0.494158    1.004796

 Minimum Search - Taking P-RFO Step
 Searching for Lamda that Maximizes Along the Constraint modes Only
 Value Taken    Lamda =   0.01773553
 Searching for Lamda that Minimizes Along All other modes
 Value Taken    Lamda =  -0.01736118
 Step Taken.  Stepsize is  0.185718

                             Maximum     Tolerance    Cnvgd?
         Gradient            0.188974       0.000300      NO
         Displacement        0.185714       0.001200      NO
         Energy change     *********       0.000001      NO


 New Cartesian Coordinates Obtained by Inverse Iteration

 Displacement from previous Coordinates is:  0.199560
 ----------------------------------------------------------------
             Standard Nuclear Orientation (Angstroms)
    I     Atom           X                Y                Z
 ----------------------------------------------------------------
    1      Br      1.0019445990     2.3726493102    -1.4188765053
    2      Br      0.2878389712     1.5448895702     1.3215527808
    3      C      -0.5286457845    -0.8313398262    -0.3726865737
    4      C       0.5591010626    -0.8108859952     0.4699782683
    5      C      -1.8787984807    -1.3329395590    -0.0046572744
    6      H      -0.4059831499    -0.3954940053    -1.3621870441
    7      H       0.5199782429    -1.2886306460     1.4443020766
    8      H       1.5372089606    -0.5615825230     0.0823685528
    9      H      -1.9093486870    -1.7491483453     1.0050763620
   10      H      -2.6163116201    -0.5231321155    -0.0771488393
   11      H      -2.2021901141    -2.1033888649    -0.7169168038
 ----------------------------------------------------------------
 Nuclear Repulsion Energy =   540.1482982986 hartrees
 There are       48 alpha and       46 beta electrons

                       Distance Matrix (Angstroms)
             Br(  1)   Br(  2)   C (  3)   C (  4)   C (  5)   H (  6)
   Br(  2)  2.950438
   C (  3)  3.701725  3.030439
   C (  4)  3.728107  2.519611  1.376116
   C (  5)  4.902049  3.838626  1.486593  2.537947
   H (  6)  3.106138  3.383628  1.088172  2.112053  2.211533
   H (  7)  4.672799  2.845662  2.147132  1.085853  2.802780  3.087309
   H (  8)  3.339156  2.744764  2.132510  1.081244  3.503095  2.426999
   H (  9)  5.598249  3.972213  2.155677  2.694422  1.092577  3.113908
   H ( 10)  4.824683  3.829774  2.130888  3.235026  1.097711  2.559915
   H ( 11)  5.549247  4.864724  2.130107  3.271699  1.097947  2.561179
             H (  7)   H (  8)   H (  9)   H ( 10)
   H (  8)  1.848843
   H (  9)  2.511299  3.760381
   H ( 10)  3.568909  4.156760  1.781607
   H ( 11)  3.570000  4.123000  1.782275  1.754426
 
 Applying Cartesian multipole field
    Component          Value
    ---------          -----
     (2,0,0)        1.00000E-11
     (0,2,0)        2.00000E-11
     (0,0,2)       -3.00000E-11
 Nucleus-field energy     =     0.0000000101 hartrees
 Requested basis set is 6-31G(d,p)
 There are 46 shells and 145 basis functions
 A cutoff of  1.0D-14 yielded    940 shell pairs
 There are      9349 function pairs
 Smallest overlap matrix eigenvalue = 7.23E-04
 Guess from superposition of atomic densities
 Warning:  Energy on first SCF cycle will be non-variational
 SAD guess density has 93.945746 electrons

 -----------------------------------------------------------------------
  General SCF calculation program by
  Eric Jon Sundstrom, Paul Horn, Yuezhi Mao, Dmitri Zuev, Alec White,
  David Stuck, Shaama M.S., Shane Yost, Joonho Lee, David Small,
  Daniel Levine, Susi Lehtola, Hugh Burton, Evgeny Epifanovsky
 -----------------------------------------------------------------------
 Exchange:     0.2000 Hartree-Fock + 0.0800 Slater + 0.7200 B88
 Correlation:  0.1900 VWN1RPA + 0.8100 LYP
 Using SG-1 standard quadrature grid
 using 12 threads for integral computing
 -------------------------------------------------------
 OpenMP Integral computing Module                
 Release: version 1.0, May 2013, Q-Chem Inc. Pittsburgh 
 -------------------------------------------------------
 -------------------------------------------------------
 OpenMP BLAS3 based DFT computing Module                
 Release: version 1.0, May 2013, Q-Chem Inc. Pittsburgh 
 -------------------------------------------------------
 A unrestricted SCF calculation will be
 performed using DIIS
 SCF converges when DIIS error is below 1.0e-06
 Alpha HF Exchange    Energy = -19.60375237653162
 Beta HF Exchange     Energy = -19.60375237653162
 DFT Correlation      Energy =  -5.19513746741107
 DFT Exchange         Energy = -155.86022978774037
 One-Electron (alpha) Energy = -4196.50337658233548
 One-Electron (beta)  Energy = -4196.50337658233548
 Total Coulomb        Energy = 2780.28793806342583
 ---------------------------------------
  Cycle       Energy         DIIS error
 ---------------------------------------
    1   -5272.8333888008      1.83e-01  
 Alpha HF Exchange    Energy = -19.84071203402556
 Beta HF Exchange     Energy = -19.61637653475274
 DFT Correlation      Energy =  -5.24297506207817
 DFT Exchange         Energy = -157.04753518566065
 One-Electron (alpha) Energy = -4234.38014239829772
 One-Electron (beta)  Energy = -4180.57573148187657
 Total Coulomb        Energy = 2811.06158552741226
    2   -5265.4935888606      1.04e-02  
 Alpha HF Exchange    Energy = -19.69438598064127
 Beta HF Exchange     Energy = -19.48384191735015
 DFT Correlation      Energy =  -5.20561153883674
 DFT Exchange         Energy = -155.94994189897506
 One-Electron (alpha) Energy = -4218.47943235920229
 One-Electron (beta)  Energy = -4162.41370241757068
 Total Coulomb        Energy = 2775.71126040499030
    3   -5265.3673573989      4.67e-03  
 Alpha HF Exchange    Energy = -19.80437657626834
 Beta HF Exchange     Energy = -19.59580228397705
 DFT Correlation      Energy =  -5.22742477058497
 DFT Exchange         Energy = -156.78037241256462
 One-Electron (alpha) Energy = -4231.11514253470614
 One-Electron (beta)  Energy = -4177.02254065087163
 Total Coulomb        Energy = 2804.04132439692921
    4   -5265.3560365234      4.61e-03  
 Alpha HF Exchange    Energy = -19.78275982792709
 Beta HF Exchange     Energy = -19.55794450168415
 DFT Correlation      Energy =  -5.22705264189862
 DFT Exchange         Energy = -156.57997255795104
 One-Electron (alpha) Energy = -4228.61446223270650
 One-Electron (beta)  Energy = -4173.86423416086382
 Total Coulomb        Energy = 2797.85538399119378
    5   -5265.6227436232      1.06e-03  
 Alpha HF Exchange    Energy = -19.76766685809110
 Beta HF Exchange     Energy = -19.54381463513430
 DFT Correlation      Energy =  -5.22309913871238
 DFT Exchange         Energy = -156.46299004414624
 One-Electron (alpha) Energy = -4226.72703506519520
 One-Electron (beta)  Energy = -4171.41360869783512
 Total Coulomb        Energy = 2793.36023811824089
    6   -5265.6296780122      5.39e-04  
 Alpha HF Exchange    Energy = -19.76790101582881
 Beta HF Exchange     Energy = -19.54562199921743
 DFT Correlation      Energy =  -5.22238197178934
 DFT Exchange         Energy = -156.46474532853074
 One-Electron (alpha) Energy = -4226.86655055636584
 One-Electron (beta)  Energy = -4171.83589565941747
 Total Coulomb        Energy = 2793.92054300824020
    7   -5265.6342552142      2.24e-04  
 Alpha HF Exchange    Energy = -19.76899136171925
 Beta HF Exchange     Energy = -19.54669137852458
 DFT Correlation      Energy =  -5.22276231939310
 DFT Exchange         Energy = -156.47310382567278
 One-Electron (alpha) Energy = -4226.90088082647799
 One-Electron (beta)  Energy = -4171.65296871587452
 Total Coulomb        Energy = 2793.78180739796926
    8   -5265.6352927210      8.37e-05  
 Alpha HF Exchange    Energy = -19.76898213292612
 Beta HF Exchange     Energy = -19.54701816223353
 DFT Correlation      Energy =  -5.22261048116585
 DFT Exchange         Energy = -156.47290429298727
 One-Electron (alpha) Energy = -4226.93421256372130
 One-Electron (beta)  Energy = -4171.69458916618714
 Total Coulomb        Energy = 2793.85650889197768
    9   -5265.6355095986      2.27e-05  
 Alpha HF Exchange    Energy = -19.76891301473811
 Beta HF Exchange     Energy = -19.54721347796094
 DFT Correlation      Energy =  -5.22252172271475
 DFT Exchange         Energy = -156.47273198478405
 One-Electron (alpha) Energy = -4226.91454446943226
 One-Electron (beta)  Energy = -4171.66151747232561
 Total Coulomb        Energy = 2793.80359810238315
   10   -5265.6355457309      1.27e-05  
 Alpha HF Exchange    Energy = -19.76897678279867
 Beta HF Exchange     Energy = -19.54729193047977
 DFT Correlation      Energy =  -5.22250352918275
 DFT Exchange         Energy = -156.47318136536936
 One-Electron (alpha) Energy = -4226.92142708058873
 One-Electron (beta)  Energy = -4171.67013660343218
 Total Coulomb        Energy = 2793.81966925348070
   11   -5265.6355497297      6.08e-06  
 Alpha HF Exchange    Energy = -19.76898349931371
 Beta HF Exchange     Energy = -19.54731341335609
 DFT Correlation      Energy =  -5.22250765419903
 DFT Exchange         Energy = -156.47327821670820
 One-Electron (alpha) Energy = -4226.92087220120447
 One-Electron (beta)  Energy = -4171.67104211934929
 Total Coulomb        Energy = 2793.82014820235054
   12   -5265.6355505931      1.76e-06  
 Alpha HF Exchange    Energy = -19.76898601842329
 Beta HF Exchange     Energy = -19.54732025551004
 DFT Correlation      Energy =  -5.22250398128384
 DFT Exchange         Energy = -156.47329873778642
 One-Electron (alpha) Energy = -4226.92099139474522
 One-Electron (beta)  Energy = -4171.67395254111761
 Total Coulomb        Energy = 2793.82320387741720
   13   -5265.6355507428      1.27e-06  
 Alpha HF Exchange    Energy = -19.76898273861444
 Beta HF Exchange     Energy = -19.54732046488440
 DFT Correlation      Energy =  -5.22250283839356
 DFT Exchange         Energy = -156.47328673140973
 One-Electron (alpha) Energy = -4226.92016402331865
 One-Electron (beta)  Energy = -4171.67334611929164
 Total Coulomb        Energy = 2793.82175383121785
   14   -5265.6355507760      4.61e-07  Convergence criterion met
 ---------------------------------------
 SCF time:   CPU 54.57s  wall 5.00s 
<S^2> =          2.010278423
 Alpha HF Exchange    Energy = -19.76898273861444
 Beta HF Exchange     Energy = -19.54732046488440
 DFT Correlation      Energy =  -5.22250283839356
 DFT Exchange         Energy = -156.47328673140973
 One-Electron (alpha) Energy = -4226.92016402331865
 One-Electron (beta)  Energy = -4171.67334611929164
 Total Coulomb        Energy = 2793.82175383121785
 Nuclear repulsion Energy = 540.14829830867848
 SCF   energy in the final basis set =    -5265.6355507760
 Total energy in the final basis set =    -5265.6355507760
 
 --------------------------------------------------------------
 
                    Orbital Energies (a.u.)
 --------------------------------------------------------------
 
 Alpha MOs
 -- Occupied --
*******-482.830 -62.528 -62.487 -56.350 -56.348 -56.345 -56.310
-56.305 -56.305 -10.262 -10.256 -10.222  -8.716  -8.674  -6.544
 -6.538  -6.531  -6.507  -6.491  -6.491  -2.638  -2.637  -2.632
 -2.628  -2.627  -2.599  -2.595  -2.595  -2.583  -2.583  -0.849
 -0.780  -0.733  -0.727  -0.609  -0.517  -0.474  -0.458  -0.416
 -0.400  -0.375  -0.352  -0.306  -0.270  -0.263  -0.262  -0.253
 -- Virtual --
 -0.047   0.077   0.098   0.112   0.138   0.139   0.153   0.208
  0.238   0.255   0.304   0.321   0.341   0.357   0.373   0.378
  0.409   0.446   0.495   0.498   0.513   0.528   0.552   0.565
  0.574   0.587   0.610   0.632   0.638   0.648   0.660   0.677
  0.712   0.743   0.795   0.824   0.848   0.851   0.869   0.886
  0.917   0.985   1.143   1.218   1.250   1.295   1.357   1.450
  1.576   1.740   1.767   1.772   1.816   1.849   1.874   1.964
  2.002   2.049   2.063   2.073   2.139   2.254   2.319   2.334
  2.421   2.447   2.489   2.587   2.619   2.651   2.779   2.823
  2.826   2.932   3.141   3.247   3.379   3.386   3.425   3.571
  4.159   4.371   4.527   4.665   4.694   4.703   4.734   4.744
  4.747   4.749   4.753   4.848   4.875   6.264   6.316  90.235
 90.363
 
 Beta MOs
 -- Occupied --
*******-482.828 -62.527 -62.486 -56.346 -56.345 -56.344 -56.306
-56.304 -56.304 -10.256 -10.255 -10.222  -8.712  -8.671  -6.537
 -6.533  -6.529  -6.498  -6.490  -6.489  -2.632  -2.631  -2.628
 -2.625  -2.624  -2.593  -2.590  -2.590  -2.583  -2.583  -0.835
 -0.752  -0.723  -0.696  -0.601  -0.513  -0.470  -0.447  -0.413
 -0.398  -0.338  -0.308  -0.293  -0.257  -0.252
 -- Virtual --
 -0.170  -0.156  -0.018   0.079   0.099   0.114   0.142   0.142
  0.158   0.216   0.242   0.265   0.308   0.330   0.353   0.366
  0.384   0.389   0.426   0.452   0.506   0.515   0.535   0.552
  0.570   0.584   0.589   0.605   0.625   0.641   0.646   0.676
  0.678   0.688   0.722   0.757   0.798   0.829   0.851   0.871
  0.876   0.890   0.921   0.996   1.146   1.226   1.262   1.302
  1.372   1.453   1.578   1.752   1.776   1.783   1.827   1.856
  1.886   1.973   2.004   2.053   2.066   2.076   2.149   2.257
  2.321   2.341   2.426   2.457   2.494   2.594   2.623   2.656
  2.781   2.825   2.830   2.934   3.144   3.249   3.382   3.389
  3.426   3.574   4.170   4.374   4.533   4.674   4.702   4.715
  4.744   4.748   4.753   4.755   4.762   4.857   4.888   6.277
  6.329  90.240  90.369
 --------------------------------------------------------------
 
          Ground-State Mulliken Net Atomic Charges

     Atom                 Charge (a.u.)    Spin (a.u.)
  --------------------------------------------------------
      1 Br                   -0.266369       0.711996
      2 Br                   -0.091508       0.805526
      3 C                     0.029136       0.461431
      4 C                    -0.251894       0.029928
      5 C                    -0.363919      -0.032445
      6 H                     0.164062      -0.020502
      7 H                     0.154729      -0.001549
      8 H                     0.186039       0.000757
      9 H                     0.131094       0.000396
     10 H                     0.162988       0.025625
     11 H                     0.145642       0.018838
  --------------------------------------------------------
  Sum of atomic charges =    -0.000000
  Sum of spin   charges =     2.000000

 -----------------------------------------------------------------
                    Cartesian Multipole Moments
 -----------------------------------------------------------------
    Charge (ESU x 10^10)
                 0.0000
    Dipole Moment (Debye)
         X      -2.0433      Y      -5.3229      Z       0.9390
       Tot       5.7784
    Quadrupole Moments (Debye-Ang)
        XX     -55.0451     XY      -1.7372     YY     -62.9201
        XZ       1.9280     YZ       2.3680     ZZ     -57.5802
    Octopole Moments (Debye-Ang^2)
       XXX     -41.7082    XXY     -62.4527    XYY     -20.5811
       YYY    -180.5243    XXZ       1.9437    XYZ       1.3200
       YYZ      11.8008    XZZ     -12.8585    YZZ     -59.9477
       ZZZ       4.0771
    Hexadecapole Moments (Debye-Ang^3)
      XXXX    -380.6865   XXXY    -218.7942   XXYY    -255.2494
      XYYY    -225.4167   YYYY   -1147.9038   XXXZ      53.8643
      XXYZ      30.7833   XYYZ      24.0051   YYYZ     109.8172
      XXZZ    -152.9482   XYZZ     -69.9590   YYZZ    -269.1495
      XZZZ      46.2107   YZZZ      75.9631   ZZZZ    -508.4937
 -----------------------------------------------------------------
 Calculating analytic gradient of the SCF energy
 Gradient of SCF Energy
            1           2           3           4           5           6
    1  -0.0001126  -0.0001572   0.0020141  -0.0003627   0.0000820  -0.0003366
    2  -0.0006078  -0.0003424   0.0010703   0.0002690   0.0000179  -0.0000883
    3   0.0005740  -0.0002574   0.0007023  -0.0011234  -0.0000839  -0.0001190
            7           8           9          10          11
    1   0.0004817  -0.0016850   0.0000659  -0.0000129   0.0000232
    2   0.0002073  -0.0004088  -0.0000615  -0.0000397  -0.0000159
    3   0.0001556   0.0002232  -0.0000540   0.0000304  -0.0000478
 Max gradient component =       2.014E-03
 RMS gradient           =       5.930E-04
 Gradient time:  CPU 15.33 s  wall 1.37 s
 Geometry Optimization Parameters
   NAtoms,    NIC,     NZ,  NCons,   NDum,   NFix, NCnnct, MaxDiis
       11      72       0       1       0       0       0       0

 Cartesian Hessian Update
 Hessian Updated using BFGS Update


** CONSTRAINED OPTIMIZATION IN DELOCALIZED INTERNAL COORDINATES **
   Searching for a Minimum

   Optimization Cycle:   2

                       Coordinates (Angstroms)
     ATOM                X               Y               Z
      1  Br        1.0019445990    2.3726493102   -1.4188765053
      2  Br        0.2878389712    1.5448895702    1.3215527808
      3  C        -0.5286457845   -0.8313398262   -0.3726865737
      4  C         0.5591010626   -0.8108859952    0.4699782683
      5  C        -1.8787984807   -1.3329395590   -0.0046572744
      6  H        -0.4059831499   -0.3954940053   -1.3621870441
      7  H         0.5199782429   -1.2886306460    1.4443020766
      8  H         1.5372089606   -0.5615825230    0.0823685528
      9  H        -1.9093486870   -1.7491483453    1.0050763620
     10  H        -2.6163116201   -0.5231321155   -0.0771488393
     11  H        -2.2021901141   -2.1033888649   -0.7169168038
   Point Group: c1    Number of degrees of freedom:    27


   Energy is  -5265.635550776

              Constraints and their Current Values
                                        Value     Constraint
   Distance(Angs):        1   3             3.701725     3.700000
 Hessian Updated using BFGS Update

   Using Lagrange Multiplier Algorithm


 27 Hessian modes will be used to form the next step
  Hessian Eigenvalues:
    -0.998382    0.034724    0.042899    0.044999    0.045015    0.045362
     0.066954    0.069112    0.085404    0.092269    0.092974    0.095546
     0.115174    0.143735    0.159993    0.160000    0.162066    0.221078
     0.338226    0.339101    0.339361    0.345162    0.350234    0.352777
     0.354429    0.523365    1.001865

 Minimum Search - Taking P-RFO Step
 Searching for Lamda that Maximizes Along the Constraint modes Only
 Value Taken    Lamda =   0.00000229
 Searching for Lamda that Minimizes Along All other modes
 Value Taken    Lamda =  -0.00003672
 Step Taken.  Stepsize is  0.016324

                             Maximum     Tolerance    Cnvgd?
         Gradient            0.003259       0.000300      NO
         Displacement        0.007070       0.001200      NO
         Energy change      0.000076       0.000001      NO


 New Cartesian Coordinates Obtained by Inverse Iteration

 Displacement from previous Coordinates is:  0.026394
 ----------------------------------------------------------------
             Standard Nuclear Orientation (Angstroms)
    I     Atom           X                Y                Z
 ----------------------------------------------------------------
    1      Br      0.9927553343     2.3728533813    -1.4230797458
    2      Br      0.2905696362     1.5458429668     1.3238056495
    3      C      -0.5279001500    -0.8323040450    -0.3720930132
    4      C       0.5608481187    -0.8125851039     0.4715117042
    5      C      -1.8792668143    -1.3320868423    -0.0054552146
    6      H      -0.4025249413    -0.3954025946    -1.3607614709
    7      H       0.5194973098    -1.2915956116     1.4450666703
    8      H       1.5412093271    -0.5626993473     0.0845613467
    9      H      -1.9118742398    -1.7484458416     1.0041702502
   10      H      -2.6152156942    -0.5208986995    -0.0786087484
   11      H      -2.2033038866    -2.1016812622    -0.7183124280
 ----------------------------------------------------------------
 Nuclear Repulsion Energy =   539.7859266035 hartrees
 There are       48 alpha and       46 beta electrons

                       Distance Matrix (Angstroms)
             Br(  1)   Br(  2)   C (  3)   C (  4)   C (  5)   H (  6)
   Br(  2)  2.953369
   C (  3)  3.700000  3.033405
   C (  4)  3.731359  2.522229  1.377473
   C (  5)  4.897423  3.841563  1.486741  2.539988
   H (  6)  3.100634  3.384629  1.088148  2.111718  2.212464
   H (  7)  4.677438  2.849240  2.147105  1.085804  2.803520  3.086415
   H (  8)  3.345333  2.746958  2.135985  1.083181  3.507095  2.427972
   H (  9)  5.595849  3.975584  2.156108  2.697020  1.092594  3.114765
   H ( 10)  4.816519  3.831681  2.130726  3.236525  1.097724  2.560403
   H ( 11)  5.543731  4.867657  2.130297  3.273834  1.097926  2.562603
             H (  7)   H (  8)   H (  9)   H ( 10)
   H (  8)  1.850989
   H (  9)  2.512901  3.765031
   H ( 10)  3.569592  4.159837  1.781564
   H ( 11)  3.570727  4.127281  1.782317  1.754356
 
 Applying Cartesian multipole field
    Component          Value
    ---------          -----
     (2,0,0)        1.00000E-11
     (0,2,0)        2.00000E-11
     (0,0,2)       -3.00000E-11
 Nucleus-field energy     =     0.0000000100 hartrees
 Requested basis set is 6-31G(d,p)
 There are 46 shells and 145 basis functions
 A cutoff of  1.0D-14 yielded    940 shell pairs
 There are      9349 function pairs
 Smallest overlap matrix eigenvalue = 7.23E-04
 Guess from superposition of atomic densities
 Warning:  Energy on first SCF cycle will be non-variational
 SAD guess density has 93.945746 electrons

 -----------------------------------------------------------------------
  General SCF calculation program by
  Eric Jon Sundstrom, Paul Horn, Yuezhi Mao, Dmitri Zuev, Alec White,
  David Stuck, Shaama M.S., Shane Yost, Joonho Lee, David Small,
  Daniel Levine, Susi Lehtola, Hugh Burton, Evgeny Epifanovsky
 -----------------------------------------------------------------------
 Exchange:     0.2000 Hartree-Fock + 0.0800 Slater + 0.7200 B88
 Correlation:  0.1900 VWN1RPA + 0.8100 LYP
 Using SG-1 standard quadrature grid
 using 12 threads for integral computing
 -------------------------------------------------------
 OpenMP Integral computing Module                
 Release: version 1.0, May 2013, Q-Chem Inc. Pittsburgh 
 -------------------------------------------------------
 -------------------------------------------------------
 OpenMP BLAS3 based DFT computing Module                
 Release: version 1.0, May 2013, Q-Chem Inc. Pittsburgh 
 -------------------------------------------------------
 A unrestricted SCF calculation will be
 performed using DIIS
 SCF converges when DIIS error is below 1.0e-06
 Alpha HF Exchange    Energy = -19.60331967958831
 Beta HF Exchange     Energy = -19.60331967958831
 DFT Correlation      Energy =  -5.19500496985401
 DFT Exchange         Energy = -155.85936291008690
 One-Electron (alpha) Energy = -4196.14344772392997
 One-Electron (beta)  Energy = -4196.14344772392997
 Total Coulomb        Energy = 2779.93317311762303
 ---------------------------------------
  Cycle       Energy         DIIS error
 ---------------------------------------
    1   -5272.8288029559      1.83e-01  
 Alpha HF Exchange    Energy = -19.84044257467562
 Beta HF Exchange     Energy = -19.61619520042203
 DFT Correlation      Energy =  -5.24281577849372
 DFT Exchange         Energy = -157.04586413155005
 One-Electron (alpha) Energy = -4234.00675383057023
 One-Electron (beta)  Energy = -4180.23764298206788
 Total Coulomb        Energy = 2810.71019034607571
    2   -5265.4935975382      1.04e-02  
 Alpha HF Exchange    Energy = -19.69413032876819
 Beta HF Exchange     Energy = -19.48453724994530
 DFT Correlation      Energy =  -5.20534017160056
 DFT Exchange         Energy = -155.95021789204310
 One-Electron (alpha) Energy = -4218.10180484599732
 One-Electron (beta)  Energy = -4161.98481138897841
 Total Coulomb        Energy = 2775.27723611127658
    3   -5265.3576791526      4.70e-03  
 Alpha HF Exchange    Energy = -19.80376581060628
 Beta HF Exchange     Energy = -19.59601681150708
 DFT Correlation      Energy =  -5.22706875423512
 DFT Exchange         Energy = -156.77785066260236
 One-Electron (alpha) Energy = -4230.71952599558790
 One-Electron (beta)  Energy = -4176.72418800642481
 Total Coulomb        Energy = 2803.71738731644609
    4   -5265.3451021111      4.68e-03  
 Alpha HF Exchange    Energy = -19.78278789039459
 Beta HF Exchange     Energy = -19.55811270827990
 DFT Correlation      Energy =  -5.22695395471309
 DFT Exchange         Energy = -156.58045591066491
 One-Electron (alpha) Energy = -4228.27784864912792
 One-Electron (beta)  Energy = -4173.58820330239723
 Total Coulomb        Energy = 2797.60549133451468
    5   -5265.6229444676      1.05e-03  
 Alpha HF Exchange    Energy = -19.76740550381383
 Beta HF Exchange     Energy = -19.54362677819051
 DFT Correlation      Energy =  -5.22295411389414
 DFT Exchange         Energy = -156.46139497436667
 One-Electron (alpha) Energy = -4226.34874214817410
 One-Electron (beta)  Energy = -4171.06439715096803
 Total Coulomb        Energy = 2792.99301663038750
    6   -5265.6295774256      5.46e-04  
 Alpha HF Exchange    Energy = -19.76770395200839
 Beta HF Exchange     Energy = -19.54548296432436
 DFT Correlation      Energy =  -5.22225140279583
 DFT Exchange         Energy = -156.46358329563463
 One-Electron (alpha) Energy = -4226.49834338930486
 One-Electron (beta)  Energy = -4171.49880256342112
 Total Coulomb        Energy = 2793.57599506358156
    7   -5265.6342458904      2.26e-04  
 Alpha HF Exchange    Energy = -19.76878246973021
 Beta HF Exchange     Energy = -19.54651346749943
 DFT Correlation      Energy =  -5.22263183302634
 DFT Exchange         Energy = -156.47179299451747
 One-Electron (alpha) Energy = -4226.53271739960292
 One-Electron (beta)  Energy = -4171.30639643852282
 Total Coulomb        Energy = 2793.42760274207103
    8   -5265.6353052474      8.54e-05  
 Alpha HF Exchange    Energy = -19.76873345631990
 Beta HF Exchange     Energy = -19.54679936925031
 DFT Correlation      Energy =  -5.22246676917762
 DFT Exchange         Energy = -156.47126978956760
 One-Electron (alpha) Energy = -4226.56286869290489
 One-Electron (beta)  Energy = -4171.34267357997942
 Total Coulomb        Energy = 2793.49335908479679
    9   -5265.6355259589      2.32e-05  
 Alpha HF Exchange    Energy = -19.76868803480725
 Beta HF Exchange     Energy = -19.54701350264962
 DFT Correlation      Energy =  -5.22237841148683
 DFT Exchange         Energy = -156.47124858978140
 One-Electron (alpha) Energy = -4226.54574301127559
 One-Electron (beta)  Energy = -4171.30971832070918
 Total Coulomb        Energy = 2793.44329966859777
   10   -5265.6355635887      1.30e-05  
 Alpha HF Exchange    Energy = -19.76875312675972
 Beta HF Exchange     Energy = -19.54709222672739
 DFT Correlation      Energy =  -5.22236165086766
 DFT Exchange         Energy = -156.47171029963005
 One-Electron (alpha) Energy = -4226.55295615239083
 One-Electron (beta)  Energy = -4171.31752807214252
 Total Coulomb        Energy = 2793.45890706304363
   11   -5265.6355678520      5.99e-06  
 Alpha HF Exchange    Energy = -19.76875987583245
 Beta HF Exchange     Energy = -19.54711179893400
 DFT Correlation      Energy =  -5.22236546828426
 DFT Exchange         Energy = -156.47179736935954
 One-Electron (alpha) Energy = -4226.55237722092261
 One-Electron (beta)  Energy = -4171.31891557543440
 Total Coulomb        Energy = 2793.45983200108822
   12   -5265.6355686942      1.83e-06  
 Alpha HF Exchange    Energy = -19.76876158600838
 Beta HF Exchange     Energy = -19.54711936151003
 DFT Correlation      Energy =  -5.22236171560382
 DFT Exchange         Energy = -156.47181912599930
 One-Electron (alpha) Energy = -4226.55260093325705
 One-Electron (beta)  Energy = -4171.32145844366914
 Total Coulomb        Energy = 2793.46262569488817
   13   -5265.6355688577      9.49e-07  Convergence criterion met
 ---------------------------------------
 SCF time:   CPU 50.80s  wall 4.00s 
<S^2> =          2.010297760
 Alpha HF Exchange    Energy = -19.76876158600838
 Beta HF Exchange     Energy = -19.54711936151003
 DFT Correlation      Energy =  -5.22236171560382
 DFT Exchange         Energy = -156.47181912599930
 One-Electron (alpha) Energy = -4226.55260093325705
 One-Electron (beta)  Energy = -4171.32145844366914
 Total Coulomb        Energy = 2793.46262569488817
 Nuclear repulsion Energy = 539.78592661346079
 SCF   energy in the final basis set =    -5265.6355688577
 Total energy in the final basis set =    -5265.6355688577
 
 --------------------------------------------------------------
 
                    Orbital Energies (a.u.)
 --------------------------------------------------------------
 
 Alpha MOs
 -- Occupied --
*******-482.830 -62.528 -62.488 -56.350 -56.348 -56.345 -56.310
-56.305 -56.305 -10.263 -10.257 -10.222  -8.716  -8.674  -6.544
 -6.538  -6.531  -6.507  -6.491  -6.491  -2.638  -2.637  -2.632
 -2.628  -2.627  -2.599  -2.595  -2.595  -2.584  -2.584  -0.848
 -0.779  -0.733  -0.727  -0.608  -0.517  -0.473  -0.458  -0.416
 -0.400  -0.374  -0.352  -0.305  -0.270  -0.263  -0.262  -0.254
 -- Virtual --
 -0.047   0.077   0.098   0.112   0.138   0.139   0.153   0.208
  0.238   0.255   0.304   0.321   0.341   0.358   0.373   0.378
  0.408   0.446   0.495   0.498   0.513   0.528   0.552   0.565
  0.574   0.587   0.610   0.632   0.638   0.648   0.660   0.677
  0.712   0.743   0.795   0.824   0.848   0.850   0.869   0.886
  0.916   0.984   1.143   1.217   1.250   1.295   1.357   1.450
  1.576   1.740   1.766   1.772   1.816   1.848   1.873   1.964
  2.002   2.049   2.062   2.073   2.139   2.253   2.319   2.333
  2.421   2.446   2.488   2.586   2.619   2.650   2.779   2.823
  2.826   2.930   3.141   3.244   3.379   3.386   3.425   3.568
  4.158   4.371   4.526   4.665   4.695   4.703   4.734   4.744
  4.746   4.749   4.753   4.847   4.875   6.265   6.316  90.236
 90.362
 
 Beta MOs
 -- Occupied --
*******-482.828 -62.527 -62.486 -56.346 -56.345 -56.344 -56.306
-56.304 -56.304 -10.256 -10.255 -10.222  -8.712  -8.671  -6.537
 -6.533  -6.529  -6.498  -6.490  -6.490  -2.632  -2.631  -2.628
 -2.625  -2.624  -2.593  -2.590  -2.590  -2.583  -2.583  -0.835
 -0.752  -0.723  -0.696  -0.601  -0.513  -0.470  -0.447  -0.413
 -0.398  -0.338  -0.308  -0.293  -0.257  -0.252
 -- Virtual --
 -0.171  -0.157  -0.018   0.078   0.099   0.114   0.142   0.142
  0.157   0.215   0.242   0.265   0.308   0.330   0.353   0.367
  0.384   0.390   0.426   0.452   0.505   0.515   0.535   0.552
  0.570   0.584   0.589   0.605   0.625   0.641   0.646   0.676
  0.678   0.688   0.722   0.757   0.798   0.828   0.851   0.872
  0.875   0.890   0.920   0.995   1.146   1.225   1.262   1.302
  1.372   1.454   1.578   1.752   1.776   1.783   1.826   1.855
  1.885   1.973   2.004   2.052   2.066   2.075   2.149   2.256
  2.321   2.340   2.426   2.456   2.492   2.594   2.622   2.655
  2.781   2.825   2.830   2.932   3.144   3.246   3.382   3.389
  3.426   3.570   4.169   4.374   4.533   4.674   4.702   4.715
  4.743   4.748   4.753   4.755   4.761   4.857   4.887   6.278
  6.328  90.241  90.367
 --------------------------------------------------------------
 
          Ground-State Mulliken Net Atomic Charges

     Atom                 Charge (a.u.)    Spin (a.u.)
  --------------------------------------------------------
      1 Br                   -0.266187       0.712183
      2 Br                   -0.092309       0.805167
      3 C                     0.029029       0.461326
      4 C                    -0.251493       0.030303
      5 C                    -0.363954      -0.032421
      6 H                     0.164169      -0.020495
      7 H                     0.154625      -0.001585
      8 H                     0.186011       0.000713
      9 H                     0.131188       0.000395
     10 H                     0.163181       0.025593
     11 H                     0.145741       0.018821
  --------------------------------------------------------
  Sum of atomic charges =     0.000000
  Sum of spin   charges =     2.000000

 -----------------------------------------------------------------
                    Cartesian Multipole Moments
 -----------------------------------------------------------------
    Charge (ESU x 10^10)
                 0.0000
    Dipole Moment (Debye)
         X      -2.0343      Y      -5.3280      Z       0.9389
       Tot       5.7799
    Quadrupole Moments (Debye-Ang)
        XX     -55.0136     XY      -1.7103     YY     -62.9217
        XZ       1.9157     YZ       2.3659     ZZ     -57.5995
    Octopole Moments (Debye-Ang^2)
       XXX     -41.3521    XXY     -62.4440    XYY     -20.4218
       YYY    -180.5654    XXZ       1.9645    XYZ       1.3066
       YYZ      11.8451    XZZ     -12.7572    YZZ     -59.9818
       ZZZ       4.1507
    Hexadecapole Moments (Debye-Ang^3)
      XXXX    -378.7657   XXXY    -217.6346   XXYY    -254.9384
      XYYY    -224.1756   YYYY   -1148.3953   XXXZ      53.0629
      XXYZ      30.8957   XYYZ      23.7246   YYYZ     110.1728
      XXZZ    -153.0523   XYZZ     -69.6156   YYZZ    -269.5811
      XZZZ      45.4291   YZZZ      76.2444   ZZZZ    -510.4683
 -----------------------------------------------------------------
 Calculating analytic gradient of the SCF energy
 Gradient of SCF Energy
            1           2           3           4           5           6
    1  -0.0000608  -0.0001745   0.0007706  -0.0002318  -0.0000767  -0.0001576
    2  -0.0005447  -0.0001842   0.0008120   0.0000656  -0.0000325  -0.0000753
    3   0.0004417  -0.0000822   0.0000925  -0.0001442  -0.0000796  -0.0000307
            7           8           9          10          11
    1   0.0003161  -0.0003851   0.0000250  -0.0000298   0.0000047
    2   0.0001168  -0.0000431  -0.0000658  -0.0000411  -0.0000078
    3   0.0000522  -0.0001994  -0.0000392   0.0000278  -0.0000388
 Max gradient component =       8.120E-04
 RMS gradient           =       2.622E-04
 Gradient time:  CPU 15.27 s  wall 1.36 s
 Geometry Optimization Parameters
   NAtoms,    NIC,     NZ,  NCons,   NDum,   NFix, NCnnct, MaxDiis
       11      72       0       1       0       0       0       0

 Cartesian Hessian Update
 Hessian Updated using BFGS Update


** CONSTRAINED OPTIMIZATION IN DELOCALIZED INTERNAL COORDINATES **
   Searching for a Minimum

   Optimization Cycle:   3

                       Coordinates (Angstroms)
     ATOM                X               Y               Z
      1  Br        0.9927553343    2.3728533813   -1.4230797458
      2  Br        0.2905696362    1.5458429668    1.3238056495
      3  C        -0.5279001500   -0.8323040450   -0.3720930132
      4  C         0.5608481187   -0.8125851039    0.4715117042
      5  C        -1.8792668143   -1.3320868423   -0.0054552146
      6  H        -0.4025249413   -0.3954025946   -1.3607614709
      7  H         0.5194973098   -1.2915956116    1.4450666703
      8  H         1.5412093271   -0.5626993473    0.0845613467
      9  H        -1.9118742398   -1.7484458416    1.0041702502
     10  H        -2.6152156942   -0.5208986995   -0.0786087484
     11  H        -2.2033038866   -2.1016812622   -0.7183124280
   Point Group: c1    Number of degrees of freedom:    27


   Energy is  -5265.635568858

              Constraints and their Current Values
                                        Value     Constraint
   Distance(Angs):        1   3             3.700000     3.700000
 Hessian Updated using BFGS Update

 26 Hessian modes will be used to form the next step
  Hessian Eigenvalues:
     0.022030    0.035791    0.044774    0.045009    0.045029    0.056345
     0.067078    0.083773    0.092194    0.093022    0.095521    0.113749
     0.144091    0.158546    0.159994    0.160000    0.160595    0.222432
     0.336636    0.339098    0.339361    0.345161    0.350069    0.352908
     0.384105    0.586862

 Minimum Search - Taking Simple RFO Step
 Searching for Lamda that Minimizes Along All modes
 Value Taken    Lamda =  -0.00002944
 Step Taken.  Stepsize is  0.034928

                             Maximum     Tolerance    Cnvgd?
         Gradient           0.000407      0.000300      NO
         Displacement       0.014430      0.001200      NO
         Energy change     -0.000018      0.000001      NO


 New Cartesian Coordinates Obtained by Inverse Iteration

 Displacement from previous Coordinates is:  0.063106
 ----------------------------------------------------------------
             Standard Nuclear Orientation (Angstroms)
    I     Atom           X                Y                Z
 ----------------------------------------------------------------
    1      Br      0.9701632434     2.3785650628    -1.4322553981
    2      Br      0.2968059646     1.5464819578     1.3272875549
    3      C      -0.5249873746    -0.8353002375    -0.3713148678
    4      C       0.5632717500    -0.8177580056     0.4747456595
    5      C      -1.8786841104    -1.3294642724    -0.0069969114
    6      H      -0.3940985465    -0.3971180313    -1.3588128430
    7      H       0.5162614199    -1.2984438960     1.4472228233
    8      H       1.5465946703    -0.5687609565     0.0905270343
    9      H      -1.9153719400    -1.7448327822     1.0028973715
   10      H      -2.6103638926    -0.5146023748    -0.0822707972
   11      H      -2.2047971840    -2.0977694644    -0.7202246262
 ----------------------------------------------------------------
 Nuclear Repulsion Energy =   539.0008791081 hartrees
 There are       48 alpha and       46 beta electrons

                       Distance Matrix (Angstroms)
             Br(  1)   Br(  2)   C (  3)   C (  4)   C (  5)   H (  6)
   Br(  2)  2.959873
   C (  3)  3.700000  3.038664
   C (  4)  3.744155  2.527343  1.378562
   C (  5)  4.888433  3.845015  1.486412  2.541076
   H (  6)  3.093707  3.386748  1.088250  2.110790  2.213746
   H (  7)  4.692315  2.855897  2.146108  1.085809  2.802049  3.084636
   H (  8)  3.367175  2.750600  2.139110  1.084688  3.510088  2.428238
   H (  9)  5.590947  3.978908  2.156126  2.698534  1.092595  3.115812
   H ( 10)  4.797192  3.832305  2.129598  3.236377  1.097735  2.560311
   H ( 11)  5.533980  4.871436  2.130100  3.275452  1.097878  2.564886
             H (  7)   H (  8)   H (  9)   H ( 10)
   H (  8)  1.853280
   H (  9)  2.511878  3.768392
   H ( 10)  3.567849  4.160901  1.781592
   H ( 11)  3.569441  4.131359  1.782549  1.754391
 
 Applying Cartesian multipole field
    Component          Value
    ---------          -----
     (2,0,0)        1.00000E-11
     (0,2,0)        2.00000E-11
     (0,0,2)       -3.00000E-11
 Nucleus-field energy     =     0.0000000099 hartrees
 Requested basis set is 6-31G(d,p)
 There are 46 shells and 145 basis functions
 A cutoff of  1.0D-14 yielded    940 shell pairs
 There are      9349 function pairs
 Smallest overlap matrix eigenvalue = 7.23E-04
 Guess from superposition of atomic densities
 Warning:  Energy on first SCF cycle will be non-variational
 SAD guess density has 93.945746 electrons

 -----------------------------------------------------------------------
  General SCF calculation program by
  Eric Jon Sundstrom, Paul Horn, Yuezhi Mao, Dmitri Zuev, Alec White,
  David Stuck, Shaama M.S., Shane Yost, Joonho Lee, David Small,
  Daniel Levine, Susi Lehtola, Hugh Burton, Evgeny Epifanovsky
 -----------------------------------------------------------------------
 Exchange:     0.2000 Hartree-Fock + 0.0800 Slater + 0.7200 B88
 Correlation:  0.1900 VWN1RPA + 0.8100 LYP
 Using SG-1 standard quadrature grid
 using 12 threads for integral computing
 -------------------------------------------------------
 OpenMP Integral computing Module                
 Release: version 1.0, May 2013, Q-Chem Inc. Pittsburgh 
 -------------------------------------------------------
 -------------------------------------------------------
 OpenMP BLAS3 based DFT computing Module                
 Release: version 1.0, May 2013, Q-Chem Inc. Pittsburgh 
 -------------------------------------------------------
 A unrestricted SCF calculation will be
 performed using DIIS
 SCF converges when DIIS error is below 1.0e-06
 Alpha HF Exchange    Energy = -19.60286955321034
 Beta HF Exchange     Energy = -19.60286955321034
 DFT Correlation      Energy =  -5.19481356043034
 DFT Exchange         Energy = -155.85849078688784
 One-Electron (alpha) Energy = -4195.36066215966184
 One-Electron (beta)  Energy = -4195.36066215966184
 Total Coulomb        Energy = 2779.15657849422905
 ---------------------------------------
  Cycle       Energy         DIIS error
 ---------------------------------------
    1   -5272.8229101609      1.83e-01  
 Alpha HF Exchange    Energy = -19.84018496860705
 Beta HF Exchange     Energy = -19.61601093115128
 DFT Correlation      Energy =  -5.24261103313748
 DFT Exchange         Energy = -157.04429752829100
 One-Electron (alpha) Energy = -4233.20075510856077
 One-Electron (beta)  Energy = -4179.48954375848371
 Total Coulomb        Energy = 2809.93901100533139
    2   -5265.4935132049      1.04e-02  
 Alpha HF Exchange    Energy = -19.69386010850080
 Beta HF Exchange     Energy = -19.48604170750124
 DFT Correlation      Energy =  -5.20486094990056
 DFT Exchange         Energy = -155.95188412807181
 One-Electron (alpha) Energy = -4217.29519802684990
 One-Electron (beta)  Energy = -4161.09706173748054
 Total Coulomb        Energy = 2774.38719644254570
    3   -5265.3408310978      4.76e-03  
 Alpha HF Exchange    Energy = -19.80287260625363
 Beta HF Exchange     Energy = -19.59648023446560
 DFT Correlation      Energy =  -5.22652655667365
 DFT Exchange         Energy = -156.77457916334583
 One-Electron (alpha) Energy = -4229.86670423475243
 One-Electron (beta)  Energy = -4176.02963240972713
 Total Coulomb        Energy = 2802.96973818330434
    4   -5265.3261779040      4.80e-03  
 Alpha HF Exchange    Energy = -19.78301167463977
 Beta HF Exchange     Energy = -19.55855067354172
 DFT Correlation      Energy =  -5.22682511854999
 DFT Exchange         Energy = -156.58242953074165
 One-Electron (alpha) Energy = -4227.53656821865661
 One-Electron (beta)  Energy = -4172.95052564227717
 Total Coulomb        Energy = 2797.01418307451650
    5   -5265.6228486659      1.04e-03  
 Alpha HF Exchange    Energy = -19.76717565372791
 Beta HF Exchange     Energy = -19.54347308509577
 DFT Correlation      Energy =  -5.22276339338243
 DFT Exchange         Energy = -156.46005789604686
 One-Electron (alpha) Energy = -4225.54137076157804
 One-Electron (beta)  Energy = -4170.30544757786629
 Total Coulomb        Energy = 2792.20995924009594
    6   -5265.6294500096      5.54e-04  
 Alpha HF Exchange    Energy = -19.76756528818062
 Beta HF Exchange     Energy = -19.54539350782660
 DFT Correlation      Energy =  -5.22208252371555
 DFT Exchange         Energy = -156.46285593491146
 One-Electron (alpha) Energy = -4225.70540083399464
 One-Electron (beta)  Energy = -4170.75630415789783
 Total Coulomb        Energy = 2792.82449967581306
    7   -5265.6342234528      2.29e-04  
 Alpha HF Exchange    Energy = -19.76859803599633
 Beta HF Exchange     Energy = -19.54633266291635
 DFT Correlation      Energy =  -5.22245799866479
 DFT Exchange         Energy = -156.47062055473978
 One-Electron (alpha) Energy = -4225.73757596148334
 One-Electron (beta)  Energy = -4170.54421598428871
 Total Coulomb        Energy = 2792.65360444694079
    8   -5265.6353176332      8.81e-05  
 Alpha HF Exchange    Energy = -19.76847829943679
 Beta HF Exchange     Energy = -19.54654917833309
 DFT Correlation      Energy =  -5.22226964003243
 DFT Exchange         Energy = -156.46953089099304
 One-Electron (alpha) Energy = -4225.76207240446001
 One-Electron (beta)  Energy = -4170.57164835318144
 Total Coulomb        Energy = 2792.70412638699054
    9   -5265.6355432615      2.43e-05  
 Alpha HF Exchange    Energy = -19.76847581502906
 Beta HF Exchange     Energy = -19.54679862251092
 DFT Correlation      Energy =  -5.22218325005205
 DFT Exchange         Energy = -156.46979020113960
 One-Electron (alpha) Energy = -4225.74966622262036
 One-Electron (beta)  Energy = -4170.53860187634928
 Total Coulomb        Energy = 2792.65905346026966
   10   -5265.6355834095      1.37e-05  
 Alpha HF Exchange    Energy = -19.76854056212321
 Beta HF Exchange     Energy = -19.54687609236635
 DFT Correlation      Energy =  -5.22216871272336
 DFT Exchange         Energy = -156.47025488570137
 One-Electron (alpha) Energy = -4225.75713837248986
 One-Electron (beta)  Energy = -4170.54470106439567
 Total Coulomb        Energy = 2792.67321239227431
   11   -5265.6355881796      6.02e-06  
 Alpha HF Exchange    Energy = -19.76854875233619
 Beta HF Exchange     Energy = -19.54689326039354
 DFT Correlation      Energy =  -5.22217153899296
 DFT Exchange         Energy = -156.47033304837018
 One-Electron (alpha) Energy = -4225.75675758211491
 One-Electron (beta)  Energy = -4170.54715816610042
 Total Coulomb        Energy = 2792.67539423753169
   12   -5265.6355889928      2.38e-06  
 Alpha HF Exchange    Energy = -19.76854846337483
 Beta HF Exchange     Energy = -19.54690007179556
 DFT Correlation      Energy =  -5.22216926503990
 DFT Exchange         Energy = -156.47034995750457
 One-Electron (alpha) Energy = -4225.75689450607570
 One-Electron (beta)  Energy = -4170.54847757008338
 Total Coulomb        Energy = 2792.67687156386137
   13   -5265.6355891521      1.63e-06  
 Alpha HF Exchange    Energy = -19.76854811424183
 Beta HF Exchange     Energy = -19.54690138515917
 DFT Correlation      Energy =  -5.22216665969387
 DFT Exchange         Energy = -156.47034624867405
 One-Electron (alpha) Energy = -4225.75619819982967
 One-Electron (beta)  Energy = -4170.54925252513658
 Total Coulomb        Energy = 2792.67694481145236
   14   -5265.6355892033      5.65e-07  Convergence criterion met
 ---------------------------------------
 SCF time:   CPU 53.94s  wall 4.00s 
<S^2> =          2.010299670
 Alpha HF Exchange    Energy = -19.76854811424183
 Beta HF Exchange     Energy = -19.54690138515917
 DFT Correlation      Energy =  -5.22216665969387
 DFT Exchange         Energy = -156.47034624867405
 One-Electron (alpha) Energy = -4225.75619819982967
 One-Electron (beta)  Energy = -4170.54925252513658
 Total Coulomb        Energy = 2792.67694481145236
 Nuclear repulsion Energy = 539.00087911795413
 SCF   energy in the final basis set =    -5265.6355892033
 Total energy in the final basis set =    -5265.6355892033
 
 --------------------------------------------------------------
 
                    Orbital Energies (a.u.)
 --------------------------------------------------------------
 
 Alpha MOs
 -- Occupied --
*******-482.830 -62.528 -62.488 -56.350 -56.348 -56.345 -56.310
-56.305 -56.305 -10.263 -10.257 -10.222  -8.715  -8.675  -6.543
 -6.537  -6.531  -6.507  -6.492  -6.491  -2.637  -2.637  -2.632
 -2.627  -2.627  -2.599  -2.595  -2.595  -2.584  -2.584  -0.848
 -0.779  -0.733  -0.727  -0.608  -0.517  -0.473  -0.458  -0.416
 -0.400  -0.374  -0.352  -0.305  -0.270  -0.263  -0.262  -0.254
 -- Virtual --
 -0.047   0.076   0.098   0.112   0.138   0.139   0.152   0.207
  0.238   0.255   0.304   0.321   0.341   0.358   0.373   0.378
  0.407   0.446   0.495   0.498   0.514   0.529   0.552   0.565
  0.574   0.587   0.609   0.632   0.638   0.648   0.659   0.676
  0.712   0.743   0.794   0.824   0.847   0.850   0.869   0.885
  0.915   0.983   1.143   1.216   1.250   1.294   1.358   1.451
  1.575   1.741   1.766   1.772   1.815   1.846   1.873   1.964
  2.001   2.049   2.061   2.073   2.139   2.252   2.319   2.332
  2.421   2.445   2.487   2.585   2.618   2.649   2.779   2.823
  2.826   2.927   3.141   3.242   3.380   3.386   3.425   3.564
  4.157   4.370   4.526   4.666   4.695   4.703   4.733   4.743
  4.746   4.748   4.753   4.846   4.873   6.265   6.315  90.239
 90.358
 
 Beta MOs
 -- Occupied --
*******-482.828 -62.527 -62.487 -56.346 -56.345 -56.344 -56.306
-56.304 -56.304 -10.256 -10.255 -10.223  -8.712  -8.672  -6.537
 -6.533  -6.529  -6.499  -6.490  -6.490  -2.632  -2.631  -2.628
 -2.625  -2.624  -2.593  -2.591  -2.590  -2.583  -2.583  -0.834
 -0.751  -0.723  -0.696  -0.601  -0.513  -0.470  -0.447  -0.413
 -0.398  -0.337  -0.307  -0.293  -0.257  -0.252
 -- Virtual --
 -0.171  -0.157  -0.018   0.078   0.100   0.114   0.142   0.142
  0.157   0.215   0.242   0.265   0.308   0.329   0.353   0.367
  0.384   0.390   0.425   0.452   0.505   0.515   0.535   0.552
  0.570   0.584   0.589   0.606   0.625   0.641   0.646   0.675
  0.678   0.687   0.722   0.756   0.797   0.828   0.851   0.872
  0.874   0.889   0.919   0.994   1.146   1.223   1.262   1.301
  1.373   1.454   1.578   1.752   1.775   1.783   1.826   1.853
  1.884   1.973   2.004   2.052   2.065   2.075   2.149   2.255
  2.320   2.339   2.427   2.455   2.491   2.593   2.622   2.654
  2.781   2.825   2.830   2.929   3.144   3.244   3.382   3.389
  3.426   3.567   4.168   4.373   4.533   4.675   4.703   4.715
  4.743   4.748   4.753   4.754   4.761   4.856   4.885   6.278
  6.328  90.244  90.363
 --------------------------------------------------------------
 
          Ground-State Mulliken Net Atomic Charges

     Atom                 Charge (a.u.)    Spin (a.u.)
  --------------------------------------------------------
      1 Br                   -0.265404       0.713070
      2 Br                   -0.093730       0.805068
      3 C                     0.028991       0.459802
      4 C                    -0.250902       0.031082
      5 C                    -0.364031      -0.032302
      6 H                     0.164316      -0.020439
      7 H                     0.154357      -0.001631
      8 H                     0.185703       0.000632
      9 H                     0.131297       0.000393
     10 H                     0.163556       0.025544
     11 H                     0.145847       0.018784
  --------------------------------------------------------
  Sum of atomic charges =     0.000000
  Sum of spin   charges =     2.000000

 -----------------------------------------------------------------
                    Cartesian Multipole Moments
 -----------------------------------------------------------------
    Charge (ESU x 10^10)
                 0.0000
    Dipole Moment (Debye)
         X      -2.0098      Y      -5.3379      Z       0.9379
       Tot       5.7804
    Quadrupole Moments (Debye-Ang)
        XX     -54.9578     XY      -1.6541     YY     -62.9357
        XZ       1.8846     YZ       2.3687     ZZ     -57.6250
    Octopole Moments (Debye-Ang^2)
       XXX     -40.4299    XXY     -62.4637    XYY     -20.0155
       YYY    -180.9038    XXZ       2.0367    XYZ       1.2738
       YYZ      11.9762    XZZ     -12.4951    YZZ     -60.0986
       ZZZ       4.3983
    Hexadecapole Moments (Debye-Ang^3)
      XXXX    -373.8049   XXXY    -215.0114   XXYY    -254.5249
      XYYY    -221.3456   YYYY   -1152.1012   XXXZ      51.1227
      XXYZ      31.3660   XYYZ      23.0280   YYYZ     111.6182
      XXZZ    -153.0728   XYZZ     -68.8050   YYZZ    -270.7682
      XZZZ      43.5587   YZZZ      77.4861   ZZZZ    -514.3543
 -----------------------------------------------------------------
 Calculating analytic gradient of the SCF energy
 Gradient of SCF Energy
            1           2           3           4           5           6
    1   0.0000471  -0.0001997  -0.0006995   0.0001086  -0.0000525   0.0001205
    2  -0.0003508   0.0000387   0.0002213   0.0000196  -0.0000453  -0.0000230
    3   0.0001122   0.0002743  -0.0003829   0.0006103  -0.0000065   0.0000572
            7           8           9          10          11
    1   0.0000282   0.0006207  -0.0000072   0.0000055   0.0000282
    2  -0.0000813   0.0002707  -0.0000495  -0.0000155   0.0000151
    3  -0.0000902  -0.0005312  -0.0000235   0.0000177  -0.0000375
 Max gradient component =       6.995E-04
 RMS gradient           =       2.528E-04
 Gradient time:  CPU 15.20 s  wall 1.36 s
 Geometry Optimization Parameters
   NAtoms,    NIC,     NZ,  NCons,   NDum,   NFix, NCnnct, MaxDiis
       11      72       0       1       0       0       0       0

 Cartesian Hessian Update
 Hessian Updated using BFGS Update


** CONSTRAINED OPTIMIZATION IN DELOCALIZED INTERNAL COORDINATES **
   Searching for a Minimum

   Optimization Cycle:   4

                       Coordinates (Angstroms)
     ATOM                X               Y               Z
      1  Br        0.9701632434    2.3785650628   -1.4322553981
      2  Br        0.2968059646    1.5464819578    1.3272875549
      3  C        -0.5249873746   -0.8353002375   -0.3713148678
      4  C         0.5632717500   -0.8177580056    0.4747456595
      5  C        -1.8786841104   -1.3294642724   -0.0069969114
      6  H        -0.3940985465   -0.3971180313   -1.3588128430
      7  H         0.5162614199   -1.2984438960    1.4472228233
      8  H         1.5465946703   -0.5687609565    0.0905270343
      9  H        -1.9153719400   -1.7448327822    1.0028973715
     10  H        -2.6103638926   -0.5146023748   -0.0822707972
     11  H        -2.2047971840   -2.0977694644   -0.7202246262
   Point Group: c1    Number of degrees of freedom:    27


   Energy is  -5265.635589203

              Constraints and their Current Values
                                        Value     Constraint
   Distance(Angs):        1   3             3.700000     3.700000
 Hessian Updated using BFGS Update

 26 Hessian modes will be used to form the next step
  Hessian Eigenvalues:
     0.011395    0.035460    0.044705    0.045007    0.045067    0.053587
     0.067091    0.084200    0.092198    0.092939    0.095550    0.115809
     0.144126    0.159902    0.159994    0.160254    0.166407    0.223026
     0.339077    0.339264    0.339513    0.345164    0.350092    0.352922
     0.395731    0.694812

 Minimum Search - Taking Simple RFO Step
 Searching for Lamda that Minimizes Along All modes
 Value Taken    Lamda =  -0.00001925
 Step Taken.  Stepsize is  0.036658

                             Maximum     Tolerance    Cnvgd?
         Gradient           0.000741      0.000300      NO
         Displacement       0.017574      0.001200      NO
         Energy change     -0.000020      0.000001      NO


 New Cartesian Coordinates Obtained by Inverse Iteration

 Displacement from previous Coordinates is:  0.074030
 ----------------------------------------------------------------
             Standard Nuclear Orientation (Angstroms)
    I     Atom           X                Y                Z
 ----------------------------------------------------------------
    1      Br      0.9430265201     2.3865601429    -1.4407235239
    2      Br      0.3038836354     1.5456699255     1.3290995337
    3      C      -0.5206271064    -0.8387697037    -0.3706927767
[...]
   Br(  2)  2.951830
   C (  3)  3.700000  3.040902
   C (  4)  3.810569  2.535224  1.377010
   C (  5)  4.838972  3.846732  1.486478  2.538705
   H (  6)  3.081623  3.382393  1.088715  2.111516  2.213236
   H (  7)  4.752734  2.860646  2.145376  1.085859  2.799316  3.085807
   H (  8)  3.496763  2.756092  2.139302  1.083630  3.508878  2.433305
   H (  9)  5.555215  3.982266  2.156022  2.695605  1.092605  3.115531
   H ( 10)  4.698056  3.831146  2.129215  3.234280  1.097665  2.556610
   H ( 11)  5.488248  4.873140  2.130314  3.272926  1.097873  2.566683
             H (  7)   H (  8)   H (  9)   H ( 10)
   H (  8)  1.850693
   H (  9)  2.507900  3.765024
   H ( 10)  3.563852  4.160143  1.781873
   H ( 11)  3.567923  4.130722  1.782369  1.754581
 
 Applying Cartesian multipole field
    Component          Value
    ---------          -----
     (2,0,0)        1.00000E-11
     (0,2,0)        2.00000E-11
     (0,0,2)       -3.00000E-11
 Nucleus-field energy     =     0.0000000099 hartrees
 Requested basis set is 6-31G(d,p)
 There are 46 shells and 145 basis functions
 A cutoff of  1.0D-14 yielded    939 shell pairs
 There are      9313 function pairs
 Smallest overlap matrix eigenvalue = 7.23E-04
 Guess from superposition of atomic densities
 Warning:  Energy on first SCF cycle will be non-variational
 SAD guess density has 93.945746 electrons

 -----------------------------------------------------------------------
  General SCF calculation program by
  Eric Jon Sundstrom, Paul Horn, Yuezhi Mao, Dmitri Zuev, Alec White,
  David Stuck, Shaama M.S., Shane Yost, Joonho Lee, David Small,
  Daniel Levine, Susi Lehtola, Hugh Burton, Evgeny Epifanovsky
 -----------------------------------------------------------------------
 Exchange:     0.2000 Hartree-Fock + 0.0800 Slater + 0.7200 B88
 Correlation:  0.1900 VWN1RPA + 0.8100 LYP
 Using SG-1 standard quadrature grid
 using 12 threads for integral computing
 -------------------------------------------------------
 OpenMP Integral computing Module                
 Release: version 1.0, May 2013, Q-Chem Inc. Pittsburgh 
 -------------------------------------------------------
 -------------------------------------------------------
 OpenMP BLAS3 based DFT computing Module                
 Release: version 1.0, May 2013, Q-Chem Inc. Pittsburgh 
 -------------------------------------------------------
 A unrestricted SCF calculation will be
 performed using DIIS
 SCF converges when DIIS error is below 1.0e-06
 Alpha HF Exchange    Energy = -19.60295896102286
 Beta HF Exchange     Energy = -19.60295896102286
 DFT Correlation      Energy =  -5.19475056820819
 DFT Exchange         Energy = -155.85887678010710
 One-Electron (alpha) Energy = -4195.40230766171953
 One-Electron (beta)  Energy = -4195.40230766171953
 Total Coulomb        Energy = 2779.19468700354537
 ---------------------------------------
  Cycle       Energy         DIIS error
 ---------------------------------------
    1   -5272.8252397772      1.83e-01  
 Alpha HF Exchange    Energy = -19.84040383821859
 Beta HF Exchange     Energy = -19.61614414162693
 DFT Correlation      Energy =  -5.24261693579179
 DFT Exchange         Energy = -157.04556205183425
 One-Electron (alpha) Energy = -4233.26699029958218
 One-Electron (beta)  Energy = -4179.56761023341278
 Total Coulomb        Energy = 2810.04200580667066
    2   -5265.4930878807      1.04e-02  
 Alpha HF Exchange    Energy = -19.69381894992888
 Beta HF Exchange     Energy = -19.48731217458571
 DFT Correlation      Energy =  -5.20458049261712
 DFT Exchange         Energy = -155.95404070933247
 One-Electron (alpha) Energy = -4217.33819290943575
 One-Electron (beta)  Energy = -4161.03614799594197
 Total Coulomb        Energy = 2774.34012761354234
    3   -5265.3297318052      4.80e-03  
 Alpha HF Exchange    Energy = -19.80258765968502
 Beta HF Exchange     Energy = -19.59685294780479
 DFT Correlation      Energy =  -5.22631338737343
 DFT Exchange         Energy = -156.77400978717046
 One-Electron (alpha) Energy = -4229.88830691569819
 One-Electron (beta)  Energy = -4176.15329582661070
 Total Coulomb        Energy = 2803.08265720108193
    4   -5265.3144755102      4.88e-03  
 Alpha HF Exchange    Energy = -19.78345981287857
 Beta HF Exchange     Energy = -19.55883031649771
 DFT Correlation      Energy =  -5.22686822014549
 DFT Exchange         Energy = -156.58518887310572
 One-Electron (alpha) Energy = -4227.63719351028431
 One-Electron (beta)  Energy = -4173.03460311698291
 Total Coulomb        Energy = 2797.15913738000154
    5   -5265.6227726568      1.04e-03  
 Alpha HF Exchange    Energy = -19.76735490754928
 Beta HF Exchange     Energy = -19.54350442564159
 DFT Correlation      Energy =  -5.22271972144977
 DFT Exchange         Energy = -156.46078250850758
 One-Electron (alpha) Energy = -4225.61503408709450
 One-Electron (beta)  Energy = -4170.34891150021576
 Total Coulomb        Energy = 2792.28433556998380
    6   -5265.6297377674      5.42e-04  
 Alpha HF Exchange    Energy = -19.76785367979040
 Beta HF Exchange     Energy = -19.54542531445440
 DFT Correlation      Energy =  -5.22209823640097
 DFT Exchange         Energy = -156.46433654504921
 One-Electron (alpha) Energy = -4225.79131953598153
 One-Electron (beta)  Energy = -4170.79044305951538
 Total Coulomb        Energy = 2792.90297068611380
    7   -5265.6342718720      2.30e-04  
 Alpha HF Exchange    Energy = -19.76881171498706
 Beta HF Exchange     Energy = -19.54626892159120
 DFT Correlation      Energy =  -5.22246160086308
 DFT Exchange         Energy = -156.47147246408105
 One-Electron (alpha) Energy = -4225.82019186641173
 One-Electron (beta)  Energy = -4170.55805431460067
 Total Coulomb        Energy = 2792.70765779342901
    8   -5265.6353692760      8.94e-05  
 Alpha HF Exchange    Energy = -19.76864857758899
 Beta HF Exchange     Energy = -19.54645658001164
 DFT Correlation      Energy =  -5.22225542303334
 DFT Exchange         Energy = -156.47002742925073
 One-Electron (alpha) Energy = -4225.84154188054436
 One-Electron (beta)  Energy = -4170.58384037943597
 Total Coulomb        Energy = 2792.75293724007815
    9   -5265.6355992167      2.53e-05  
 Alpha HF Exchange    Energy = -19.76866394859677
 Beta HF Exchange     Energy = -19.54673105315662
 DFT Correlation      Energy =  -5.22217395684153
 DFT Exchange         Energy = -156.47044488209343
 One-Electron (alpha) Energy = -4225.83286129026055
 One-Electron (beta)  Energy = -4170.54747357945052
 Total Coulomb        Energy = 2792.70847304237031
   10   -5265.6356418550      1.38e-05  
 Alpha HF Exchange    Energy = -19.76873345616555
 Beta HF Exchange     Energy = -19.54681173372170
 DFT Correlation      Energy =  -5.22215700277488
 DFT Exchange         Energy = -156.47091328667850
 One-Electron (alpha) Energy = -4225.83985213616688
 One-Electron (beta)  Energy = -4170.55617262345731
 Total Coulomb        Energy = 2792.72475938157504
   11   -5265.6356470443      6.70e-06  
 Alpha HF Exchange    Energy = -19.76873501866302
 Beta HF Exchange     Energy = -19.54682782505508
 DFT Correlation      Energy =  -5.22216134688420
 DFT Exchange         Energy = -156.47097451056189
 One-Electron (alpha) Energy = -4225.83981313837558
 One-Electron (beta)  Energy = -4170.55609473473669
 Total Coulomb        Energy = 2792.72472491801682
   12   -5265.6356478432      2.28e-06  
 Alpha HF Exchange    Energy = -19.76873855354006
 Beta HF Exchange     Energy = -19.54683568247430
 DFT Correlation      Energy =  -5.22215851843932
 DFT Exchange         Energy = -156.47100002710545
 One-Electron (alpha) Energy = -4225.83973881668680
 One-Electron (beta)  Energy = -4170.55925195837608
 Total Coulomb        Energy = 2792.72784174126446
   13   -5265.6356480023      1.91e-06  
 Alpha HF Exchange    Energy = -19.76873621299373
 Beta HF Exchange     Energy = -19.54683774941972
 DFT Correlation      Energy =  -5.22215630053349
 DFT Exchange         Energy = -156.47099576481980
 One-Electron (alpha) Energy = -4225.83914765674490
 One-Electron (beta)  Energy = -4170.55924514063827
 Total Coulomb        Energy = 2792.72723694757315
   14   -5265.6356480645      5.22e-07  Convergence criterion met
 ---------------------------------------
 SCF time:   CPU 54.04s  wall 4.00s 
<S^2> =          2.010172698
 Alpha HF Exchange    Energy = -19.76873621299373
 Beta HF Exchange     Energy = -19.54683774941972
 DFT Correlation      Energy =  -5.22215630053349
 DFT Exchange         Energy = -156.47099576481980
 One-Electron (alpha) Energy = -4225.83914765674490
 One-Electron (beta)  Energy = -4170.55924514063827
 Total Coulomb        Energy = 2792.72723694757315
 Nuclear repulsion Energy = 539.04423381307242
 SCF   energy in the final basis set =    -5265.6356480645
 Total energy in the final basis set =    -5265.6356480645
 
 --------------------------------------------------------------
 
                    Orbital Energies (a.u.)
 --------------------------------------------------------------
 
 Alpha MOs
 -- Occupied --
*******-482.830 -62.528 -62.487 -56.350 -56.348 -56.345 -56.310
-56.305 -56.305 -10.263 -10.257 -10.222  -8.716  -8.674  -6.544
 -6.538  -6.531  -6.506  -6.491  -6.491  -2.638  -2.637  -2.632
 -2.628  -2.627  -2.598  -2.595  -2.594  -2.583  -2.583  -0.848
 -0.779  -0.734  -0.727  -0.608  -0.517  -0.473  -0.458  -0.416
 -0.400  -0.374  -0.352  -0.305  -0.270  -0.263  -0.262  -0.253
 -- Virtual --
 -0.047   0.076   0.098   0.112   0.138   0.140   0.152   0.207
  0.238   0.257   0.305   0.321   0.340   0.361   0.373   0.377
  0.407   0.447   0.493   0.497   0.513   0.528   0.553   0.562
  0.574   0.588   0.610   0.632   0.639   0.649   0.658   0.675
  0.710   0.743   0.793   0.824   0.848   0.851   0.869   0.885
  0.912   0.982   1.144   1.214   1.250   1.293   1.360   1.449
  1.575   1.742   1.766   1.771   1.813   1.846   1.874   1.965
  2.002   2.049   2.062   2.073   2.137   2.252   2.319   2.331
  2.421   2.448   2.487   2.587   2.617   2.649   2.779   2.823
  2.827   2.929   3.142   3.241   3.379   3.387   3.425   3.568
  4.158   4.370   4.526   4.665   4.695   4.702   4.733   4.744
  4.746   4.749   4.753   4.845   4.875   6.264   6.316  90.232
 90.362
 
 Beta MOs
 -- Occupied --
*******-482.828 -62.527 -62.486 -56.346 -56.345 -56.344 -56.306
-56.304 -56.304 -10.257 -10.255 -10.222  -8.712  -8.671  -6.537
 -6.533  -6.529  -6.498  -6.490  -6.489  -2.632  -2.631  -2.628
 -2.625  -2.624  -2.593  -2.590  -2.590  -2.582  -2.582  -0.835
 -0.751  -0.723  -0.696  -0.601  -0.513  -0.470  -0.447  -0.413
 -0.398  -0.337  -0.308  -0.293  -0.257  -0.252
 -- Virtual --
 -0.172  -0.156  -0.018   0.078   0.099   0.114   0.142   0.142
  0.157   0.215   0.243   0.267   0.309   0.328   0.352   0.371
  0.382   0.391   0.425   0.453   0.501   0.514   0.536   0.551
  0.571   0.582   0.589   0.607   0.625   0.641   0.646   0.676
  0.678   0.686   0.720   0.757   0.796   0.828   0.851   0.872
  0.875   0.889   0.915   0.993   1.147   1.222   1.262   1.300
  1.374   1.452   1.577   1.753   1.775   1.782   1.824   1.853
  1.885   1.974   2.004   2.052   2.065   2.076   2.147   2.255
  2.321   2.338   2.426   2.458   2.491   2.594   2.621   2.654
  2.781   2.825   2.831   2.931   3.144   3.243   3.382   3.390
  3.426   3.570   4.169   4.372   4.533   4.674   4.702   4.714
  4.743   4.748   4.753   4.755   4.761   4.855   4.888   6.277
  6.328  90.237  90.367
 --------------------------------------------------------------
 
          Ground-State Mulliken Net Atomic Charges

     Atom                 Charge (a.u.)    Spin (a.u.)
  --------------------------------------------------------
      1 Br                   -0.265251       0.713257
      2 Br                   -0.092966       0.810301
      3 C                     0.029102       0.452768
      4 C                    -0.250575       0.032500
      5 C                    -0.364253      -0.031718
      6 H                     0.164846      -0.020139
      7 H                     0.154214      -0.001691
      8 H                     0.183593       0.000562
      9 H                     0.131163       0.000382
     10 H                     0.164312       0.025175
     11 H                     0.145814       0.018603
  --------------------------------------------------------
  Sum of atomic charges =     0.000000
  Sum of spin   charges =     2.000000

 -----------------------------------------------------------------
                    Cartesian Multipole Moments
 -----------------------------------------------------------------
    Charge (ESU x 10^10)
                -0.0000
    Dipole Moment (Debye)
         X      -1.8742      Y      -5.3909      Z       0.9832
       Tot       5.7915
    Quadrupole Moments (Debye-Ang)
        XX     -54.7568     XY      -1.4564     YY     -63.1348
        XZ       1.7806     YZ       2.4891     ZZ     -57.6388
    Octopole Moments (Debye-Ang^2)
       XXX     -35.8747    XXY     -62.6310    XYY     -18.0024
       YYY    -183.0588    XXZ       2.4779    XYZ       1.1533
       YYZ      12.7451    XZZ     -11.2243    YZZ     -60.7365
       ZZZ       6.0568
    Hexadecapole Moments (Debye-Ang^3)
      XXXX    -349.7948   XXXY    -202.0545   XXYY    -253.2936
      XYYY    -207.3360   YYYY   -1175.4134   XXXZ      38.9883
      XXYZ      34.0851   XYYZ      18.8738   YYYZ     119.8563
      XXZZ    -150.5489   XYZZ     -64.8991   YYZZ    -274.7161
      XZZZ      32.3555   YZZZ      84.8877   ZZZZ    -518.2773
 -----------------------------------------------------------------
 Calculating analytic gradient of the SCF energy
 Gradient of SCF Energy
            1           2           3           4           5           6
    1   0.0000007  -0.0000319   0.0000198  -0.0000515  -0.0000130  -0.0000093
    2   0.0001523   0.0000208  -0.0001140  -0.0000181  -0.0000261  -0.0000519
    3  -0.0000284  -0.0000513   0.0000775  -0.0000521  -0.0000017  -0.0000151
            7           8           9          10          11
    1   0.0000437  -0.0000151   0.0000267   0.0000096   0.0000202
    2   0.0000480   0.0000700  -0.0000426  -0.0000261  -0.0000124
    3   0.0000157   0.0000293  -0.0000015   0.0000309  -0.0000032
 Max gradient component =       1.523E-04
 RMS gradient           =       4.681E-05
 Gradient time:  CPU 15.28 s  wall 1.37 s
 Geometry Optimization Parameters
   NAtoms,    NIC,     NZ,  NCons,   NDum,   NFix, NCnnct, MaxDiis
       11      72       0       1       0       0       0       0

 Cartesian Hessian Update
 Hessian Updated using BFGS Update


** CONSTRAINED OPTIMIZATION IN DELOCALIZED INTERNAL COORDINATES **
   Searching for a Minimum

   Optimization Cycle:  10

                       Coordinates (Angstroms)
     ATOM                X               Y               Z
      1  Br        0.8497949426    2.4204246647   -1.4520982645
      2  Br        0.3376786417    1.5386789433    1.3180211649
      3  C        -0.5059958354   -0.8471301423   -0.3681622361
      4  C         0.5708493714   -0.8461663253    0.4900681991
      5  C        -1.8727811685   -1.3131387326   -0.0155280186
      6  H        -0.3588667263   -0.4126315978   -1.3555144660
      7  H         0.5012207811   -1.3133573981    1.4678074859
      8  H         1.5641912444   -0.6197273615    0.1209457714
      9  H        -1.9282142384   -1.7203121603    0.9968570544
     10  H        -2.5876224674   -0.4849734701   -0.1050463241
     11  H        -2.2054605453   -2.0806694198   -0.7265453665
   Point Group: c1    Number of degrees of freedom:    27


   Energy is  -5265.635648065

              Constraints and their Current Values
                                        Value     Constraint
   Distance(Angs):        1   3             3.700000     3.700000
 Hessian Updated using BFGS Update

 26 Hessian modes will be used to form the next step
  Hessian Eigenvalues:
     0.005020    0.013477    0.035120    0.040158    0.045321    0.047478
     0.064752    0.082956    0.090750    0.092613    0.095524    0.111719
     0.127729    0.157755    0.159148    0.160165    0.160947    0.223985
     0.336400    0.339058    0.339370    0.345167    0.350203    0.352964
     0.386055    0.562242

 Minimum Search - Taking Simple RFO Step
 Searching for Lamda that Minimizes Along All modes
 Value Taken    Lamda =   0.00000000
 Step Taken.  Stepsize is  0.004560

                             Maximum     Tolerance    Cnvgd?
         Gradient           0.000065      0.000300     YES
         Displacement       0.002670      0.001200      NO
         Energy change     -0.000000      0.000001     YES


                       Distance Matrix (Angstroms)
             Br(  1)   Br(  2)   C (  3)   C (  4)   C (  5)   H (  6)
   Br(  2)  2.951830
   C (  3)  3.700000  3.040902
   C (  4)  3.810569  2.535224  1.377010
   C (  5)  4.838972  3.846732  1.486478  2.538705
   H (  6)  3.081623  3.382393  1.088715  2.111516  2.213236
   H (  7)  4.752734  2.860646  2.145376  1.085859  2.799316  3.085807
   H (  8)  3.496763  2.756092  2.139302  1.083630  3.508878  2.433305
   H (  9)  5.555215  3.982266  2.156022  2.695605  1.092605  3.115531
   H ( 10)  4.698056  3.831146  2.129215  3.234280  1.097665  2.556610
   H ( 11)  5.488248  4.873140  2.130314  3.272926  1.097873  2.566683
             H (  7)   H (  8)   H (  9)   H ( 10)
   H (  8)  1.850693
   H (  9)  2.507900  3.765024
   H ( 10)  3.563852  4.160143  1.781873
   H ( 11)  3.567923  4.130722  1.782369  1.754581
 
 Final energy is   -5265.63564806451     


 ******************************
 **  OPTIMIZATION CONVERGED  **
 ******************************

                       Coordinates (Angstroms)
     ATOM                X               Y               Z
      1  Br        0.8497949426    2.4204246647   -1.4520982645
      2  Br        0.3376786417    1.5386789433    1.3180211649
      3  C        -0.5059958354   -0.8471301423   -0.3681622361
      4  C         0.5708493714   -0.8461663253    0.4900681991
      5  C        -1.8727811685   -1.3131387326   -0.0155280186
      6  H        -0.3588667263   -0.4126315978   -1.3555144660
      7  H         0.5012207811   -1.3133573981    1.4678074859
      8  H         1.5641912444   -0.6197273615    0.1209457714
      9  H        -1.9282142384   -1.7203121603    0.9968570544
     10  H        -2.5876224674   -0.4849734701   -0.1050463241
     11  H        -2.2054605453   -2.0806694198   -0.7265453665

Z-matrix Print:
$molecule
0 3
Br
C  1 2.535224
H  2 1.083630 1 89.941862
H  2 1.085859 1 96.013916 3 117.246410 0
C  2 1.377010 1 97.601215 3 -120.600016 0
H  5 1.088715 2 117.339896 1 81.669521 0
C  5 1.486478 2 124.848873 1 -94.037696 0
H  7 1.092605 5 112.537574 2 -3.495239 0
H  7 1.097665 5 110.055173 2 118.144238 0
H  7 1.097873 5 110.130209 2 -125.225942 0
Br 1 2.951830 2 87.625031 3 57.205383 0
$end

PES scan, value:    3.7000 energy: -5265.6356480645
------- Summary of potential scan: ------ 
    3.7000     -5265.6356480645
----------------------------------------- 
Archival summary:
1\1\hpc0242\JobtypUnspecified\ProcedureUnspecified\6-31G**\r236(3)\knomura\WedMar1321:05:412019WedMar1321:05:412019\0\\#,JobtypUnspecified,ProcedureUnspecified,6-31G**,\\0,3\Br\C,1,2.53522\H,2,1.08363,1,89.9419\H,2,1.08586,1,96.0139,3,117.246,0\C,2,1.37701,1,97.6012,3,-120.6,0\H,5,1.08872,2,117.34,1,81.6695,0\C,5,1.48648,2,124.849,1,-94.0377,0\H,7,1.09261,5,112.538,2,-3.49524,0\H,7,1.09767,5,110.055,2,118.144,0\H,7,1.09787,5,110.13,2,-125.226,0\Br,1,2.95183,2,87.625,3,57.2054,0\\\@

 Total job time:  64.89s(wall), 752.60s(cpu) 
 Wed Mar 13 21:05:41 2019

        *************************************************************
        *                                                           *
        *  Thank you very much for using Q-Chem.  Have a nice day.  *
        *                                                           *
        *************************************************************


