
Running Job 1 of 1 halogens/Bromine/03/Br_1_3.xyz.data/inputs/bond_singlet_1.2.in
qchem halogens/Bromine/03/Br_1_3.xyz.data/inputs/bond_singlet_1.2.in_31054.0 /staging/scratch/2868759/qchem31054/ 1
/usr/usc/qchem/5.1.1/exe/qcprog.exe_s halogens/Bromine/03/Br_1_3.xyz.data/inputs/bond_singlet_1.2.in_31054.0 /staging/scratch/2868759/qchem31054/
Check license passed

                  Welcome to Q-Chem
     A Quantum Leap Into The Future Of Chemistry


 Q-Chem 5.1, Q-Chem, Inc., Pleasanton, CA (2018)

 Yihan Shao,  Zhengting Gan,  E. Epifanovsky,  A. T. B. Gilbert,  M. Wormit,  
 J. Kussmann,  A. W. Lange,  A. Behn,  Jia Deng,  Xintian Feng,  D. Ghosh,  
 M. Goldey,  P. R. Horn,  L. D. Jacobson,  I. Kaliman,  T. Kus,  A. Landau,  
 Jie Liu,  E. I. Proynov,  R. M. Richard,  R. P. Steele,  E. J. Sundstrom,  
 H. L. Woodcock III,  P. M. Zimmerman,  D. Zuev,  B. Albrecht,  E. Alguire,  
 S. A. Baeppler,  D. Barton,  Z. Benda,  Y. A. Bernard,  E. J. Berquist,  
 K. B. Bravaya,  H. Burton,  D. Casanova,  Chun-Min Chang,  Yunqing Chen,  
 A. Chien,  K. D. Closser,  M. P. Coons,  S. Coriani,  S. Dasgupta,  
 A. L. Dempwolff,  M. Diedenhofen,  Hainam Do,  R. G. Edgar,  Po-Tung Fang,  
 S. Faraji,  S. Fatehi,  Qingguo Feng,  K. D. Fenk,  J. Fosso-Tande,  
 Qinghui Ge,  A. Ghysels,  G. Gidofalvi,  J. Gomes,  J. Gonthier,  A. Gunina,  
 D. Hait,  M. W. D. Hanson-Heine,  P. H. P. Harbach,  A. W. Hauser,  
 J. E. Herr,  E. G. Hohenstein,  Z. C. Holden,  Kerwin Hui,  B. C. Huynh,  
 T.-C. Jagau,  Hyunjun Ji,  B. Kaduk,  K. Khistyaev,  Jaehoon Kim,  
 P. Klunzinger,  K. Koh,  D. Kosenkov,  L. Koulias,  T. Kowalczyk,  
 C. M. Krauter,  A. Kunitsa,  Ka Un Lao,  A. Laurent,  K. V. Lawler,  
 Joonho Lee,  D. Lefrancois,  S. Lehtola,  D. S. Levine,  Yi-Pei Li,  
 You-Sheng Lin,  Fenglai Liu,  E. Livshits,  A. Luenser,  P. Manohar,  
 E. Mansoor,  S. F. Manzer,  Shan-Ping Mao,  Yuezhi Mao,  N. Mardirossian,  
 A. V. Marenich,  T. Markovich,  L. A. Martinez-Martinez,  S. A. Maurer,  
 N. J. Mayhall,  S. C. McKenzie,  J.-M. Mewes,  A. F. Morrison,  
 J. W. Mullinax,  K. Nanda,  T. S. Nguyen-Beck,  R. Olivares-Amaya,  
 J. A. Parkhill,  T. M. Perrine,  F. Plasser,  P. Pokhilko,  S. Prager,  
 A. Prociuk,  E. Ramos,  D. R. Rehn,  F. Rob,  M. Schneider,  N. Sergueev,  
 S. M. Sharada,  S. Sharma,  D. W. Small,  T. Stauch,  T. Stein,  
 Yu-Chuan Su,  A. J. W. Thom,  A. Tkatchenko,  T. Tsuchimochi,  N. M. Tubman,  
 L. Vogt,  M. L. Vidal,  O. Vydrov,  M. A. Watson,  J. Wenzel,  
 M. de Wergifosse,  T. A. Wesolowski,  A. White,  J. Witte,  A. Yamada,  
 Jun Yang,  K. Yao,  S. Yeganeh,  S. R. Yost,  Zhi-Qiang You,  A. Zech,  
 Igor Ying Zhang,  Xing Zhang,  Yan Zhao,  Ying Zhu,  B. R. Brooks,  
 G. K. L. Chan,  C. J. Cramer,  M. S. Gordon,  W. J. Hehre,  A. Klamt,  
 M. W. Schmidt,  C. D. Sherrill,  D. G. Truhlar,  A. Aspuru-Guzik,  R. Baer,  
 A. T. Bell,  N. A. Besley,  Jeng-Da Chai,  A. E. DePrince, III,  
 R. A. DiStasio Jr.,  A. Dreuw,  B. D. Dunietz,  T. R. Furlani,  
 Chao-Ping Hsu,  Yousung Jung,  Jing Kong,  D. S. Lambrecht,  WanZhen Liang,  
 C. Ochsenfeld,  V. A. Rassolov,  L. V. Slipchenko,  J. E. Subotnik,  
 T. Van Voorhis,  J. M. Herbert,  A. I. Krylov,  P. M. W. Gill,  M. Head-Gordon

 Contributors to earlier versions of Q-Chem not listed above: 
 R. D. Adamson,  B. Austin,  J. Baker,  G. J. O. Beran,  K. Brandhorst,  
 S. T. Brown,  E. F. C. Byrd,  A. K. Chakraborty,  C.-L. Cheng,  
 Siu Hung Chien,  D. M. Chipman,  D. L. Crittenden,  H. Dachsel,  
 R. J. Doerksen,  A. D. Dutoi,  L. Fusti-Molnar,  W. A. Goddard III,  
 A. Golubeva-Zadorozhnaya,  S. R. Gwaltney,  G. Hawkins,  A. Heyden,  
 S. Hirata,  G. Kedziora,  F. J. Keil,  C. Kelley,  Jihan Kim,  R. A. King,  
 R. Z. Khaliullin,  P. P. Korambath,  W. Kurlancheek,  A. M. Lee,  M. S. Lee,  
 S. V. Levchenko,  Ching Yeh Lin,  D. Liotard,  R. C. Lochan,  I. Lotan,  
 P. E. Maslen,  N. Nair,  D. P. O'Neill,  D. Neuhauser,  E. Neuscamman,  
 C. M. Oana,  R. Olson,  B. Peters,  R. Peverati,  P. A. Pieniazek,  
 Y. M. Rhee,  J. Ritchie,  M. A. Rohrdanz,  E. Rosta,  N. J. Russ,  
 H. F. Schaefer III,  N. E. Schultz,  N. Shenvi,  A. C. Simmonett,  A. Sodt,  
 D. Stuck,  K. S. Thanthiriwatte,  V. Vanovschi,  Tao Wang,  A. Warshel,  
 C. F. Williams,  Q. Wu,  X. Xu,  W. Zhang

 Please cite Q-Chem as follows:
 Y. Shao et al., Mol. Phys. 113, 184-215 (2015)
 DOI: 10.1080/00268976.2014.952696

 Q-Chem 5.1.1 for Intel X86 EM64T Linux

 Parts of Q-Chem use Armadillo 8.300.2 (Tropical Shenanigans).
 http://arma.sourceforge.net/

 Q-Chem begins on Wed Mar 13 18:36:58 2019  

Host: 
0

     Scratch files written to /staging/scratch/2868759/qchem31054//
 Aug318 |scratch|qcdevops|jenkins|workspace|build_RNUM 6013   
Processing $rem in /usr/usc/qchem/5.1.1/config/preferences.
 MEM_TOTAL  2000 
Input Ideriv = 2
Curr. Ideriv = -1
Max.  Ideriv = 2

Checking the input file for inconsistencies... 	...done.

--------------------------------------------------------------
User input:
--------------------------------------------------------------

$comment
potential surface scanner
$end

$rem
JOBTYPE  PES_SCAN
UNRESTRICTED TRUE
SYM_IGNORE  TRUE
GEOM_OPT_MAX_CYCLES 400
SCF_MAX_CYCLES 400
METHOD   B3LYP
BASIS   6-31G**
PDB_PRINT 2
SCF_CONVERGENCE 6
THRESH 14
SCF_PRINT 1
$end
$molecule
0 1
Br -0.621000 1.744900 0.138600
Br 2.339300 0.022500 -0.135100
C -0.519000 -0.151000 -0.364100
C 0.644500 -0.814800 0.353000
C -1.843800 -0.801500 0.007700
H -0.380000 -0.157800 -1.450100
H 0.570800 -0.733000 1.441800
H 0.738000 -1.869500 0.078300
H -2.034600 -0.746700 1.085500
H -2.681600 -0.314200 -0.503400
H -1.847800 -1.857900 -0.281400
$end
$scan
stre 1 3 1.200000 1.201000 0.100000
$end
--------------------------------------------------------------
 ----------------------------------------------------------------
             Standard Nuclear Orientation (Angstroms)
    I     Atom           X                Y                Z
 ----------------------------------------------------------------
    1      Br     -0.6210000000     1.7449000000     0.1386000000
    2      Br      2.3393000000     0.0225000000    -0.1351000000
    3      C      -0.5190000000    -0.1510000000    -0.3641000000
    4      C       0.6445000000    -0.8148000000     0.3530000000
    5      C      -1.8438000000    -0.8015000000     0.0077000000
    6      H      -0.3800000000    -0.1578000000    -1.4501000000
    7      H       0.5708000000    -0.7330000000     1.4418000000
    8      H       0.7380000000    -1.8695000000     0.0783000000
    9      H      -2.0346000000    -0.7467000000     1.0855000000
   10      H      -2.6816000000    -0.3142000000    -0.5034000000
   11      H      -1.8478000000    -1.8579000000    -0.2814000000
 ----------------------------------------------------------------
 Nuclear Repulsion Energy =   582.1602915164 hartrees
 There are       47 alpha and       47 beta electrons
 Requested basis set is 6-31G(d,p)
 There are 46 shells and 145 basis functions

 Total QAlloc Memory Limit   2000 MB
 Mega-Array Size       188 MB
 MEM_STATIC part       192 MB
A total of 1 constraints
  
            1
    1   1.0100000
    2   1.0100000
    3   3.0100000
    4   1.2000000
    5   1.2010000
    6   0.1000000
    7   0.0000000
    8   0.0000000
    9   0.0000000
   10   0.0000000

                       Distance Matrix (Angstroms)
             Br(  1)   Br(  2)   C (  3)   C (  4)   C (  5)   H (  6)
   Br(  2)  3.435833
   C (  3)  1.964064  2.872703
   C (  4)  2.863481  1.952347  1.519406
   C (  5)  2.827813  4.265875  1.521999  2.512180
   H (  6)  2.490445  3.025942  1.094880  2.175412  2.163849
   H (  7)  3.042812  2.486963  2.188073  1.094353  2.809204  3.098058
   H (  8)  3.861917  2.487843  2.174628  1.093890  2.794870  2.552616
   H (  9)  3.017110  4.605707  2.180193  2.778268  1.095929  3.084440
   H ( 10)  2.982973  5.045637  2.173218  3.470873  1.095716  2.493605
   H ( 11)  3.829048  4.592289  2.164730  2.775262  1.095251  2.531923
             H (  7)   H (  8)   H (  9)   H ( 10)
   H (  8)  1.782897
   H (  9)  2.629686  3.156334
   H ( 10)  3.812781  3.801447  1.769256
   H ( 11)  3.175601  2.610724  1.771461  1.768478
 
 A cutoff of  1.0D-14 yielded    989 shell pairs
 There are      9802 function pairs
 
 -------------------------------------------------------
 OpenMP Integral Computing Module                       
 Release: version 1.0, May 2013, Q-Chem Inc. Pittsburgh 
 -------------------------------------------------------
 Integral Job Info:
 Integral job number is                      11
 Integral operator is                         1
 short-range coefficients                     0
 long-range coefficients              100000000
 Omega coefficients                           0
 if combine SR and LR in K                    0
 Integral screening is                        0
 Integral computing path is                   2
 max size of driver memory is            800000
 size of driver memory is                593474
 size of scratch memory is             15267112
 max col of scratch BK array               1296
 max len of scratch array in speh3          155
 max len of scratch index in speh4           18
 max int batch size is                      520
 min int batch size is                       52
 fixed nKL is                                52
 max L of basis functions is                  2
 order of int derivative is                   0
 number of shells is                         46
 number of basis is                         145
 number of cartesian basis is               145
 number of contracted shell pairs           989
 number of primitive shell pairs           4337
 maxK2 (contraction) of shell pair           36
 max number of K2 of shell pair               1
 max number of CS2 of shell pair             68
 max number of PS2 of shell pair            408
 mem total for path MDJ                  537180
 -------------------------------------------------------
 Smallest overlap matrix eigenvalue = 7.22E-04

 Scale SEOQF with 1.000000e-01/1.000000e-01/1.000000e+00

 Standard Electronic Orientation quadrupole field applied
 Nucleus-field energy     =     0.0000000084 hartrees
 Guess from superposition of atomic densities
 Warning:  Energy on first SCF cycle will be non-variational
 SAD guess density has 93.945746 electrons

 -----------------------------------------------------------------------
  General SCF calculation program by
  Eric Jon Sundstrom, Paul Horn, Yuezhi Mao, Dmitri Zuev, Alec White,
  David Stuck, Shaama M.S., Shane Yost, Joonho Lee, David Small,
  Daniel Levine, Susi Lehtola, Hugh Burton, Evgeny Epifanovsky
 -----------------------------------------------------------------------
 Exchange:     0.2000 Hartree-Fock + 0.0800 Slater + 0.7200 B88
 Correlation:  0.1900 VWN1RPA + 0.8100 LYP
 Using SG-1 standard quadrature grid
 using 12 threads for integral computing
 -------------------------------------------------------
 OpenMP Integral computing Module                
 Release: version 1.0, May 2013, Q-Chem Inc. Pittsburgh 
 -------------------------------------------------------
 -------------------------------------------------------
 OpenMP BLAS3 based DFT computing Module                
 Release: version 1.0, May 2013, Q-Chem Inc. Pittsburgh 
 -------------------------------------------------------
 A unrestricted SCF calculation will be
 performed using DIIS
 SCF converges when DIIS error is below 1.0e-06
 Alpha HF Exchange    Energy = -19.64530092966037
 Beta HF Exchange     Energy = -19.64530092966037
 DFT Correlation      Energy =  -5.21471312224253
 DFT Exchange         Energy = -155.93577588533043
 One-Electron (alpha) Energy = -4238.50242063572750
 One-Electron (beta)  Energy = -4238.50242063572750
 Total Coulomb        Energy = 2822.06506774214540
 ---------------------------------------
  Cycle       Energy         DIIS error
 ---------------------------------------
    1   -5273.2205728714      1.84e-01  
 Alpha HF Exchange    Energy = -19.73766330899821
 Beta HF Exchange     Energy = -19.73766330899822
 DFT Correlation      Energy =  -5.26424077592262
 DFT Exchange         Energy = -157.08633972640345
 One-Electron (alpha) Energy = -4248.66448193395536
 One-Electron (beta)  Energy = -4248.66448193395445
 Total Coulomb        Energy = 2851.40423900592032
    2   -5265.5903404575      1.03e-02  
 Alpha HF Exchange    Energy = -19.60460306273605
 Beta HF Exchange     Energy = -19.60460306273607
 DFT Correlation      Energy =  -5.22939885055130
 DFT Exchange         Energy = -156.02722139788187
 One-Electron (alpha) Energy = -4233.87759960899803
 One-Electron (beta)  Energy = -4233.87759960900166
 Total Coulomb        Energy = 2820.43608175446298
    3   -5265.6246523127      3.60e-03  
 Alpha HF Exchange    Energy = -19.70990745347415
 Beta HF Exchange     Energy = -19.70990745347415
 DFT Correlation      Energy =  -5.25535165216015
 DFT Exchange         Energy = -156.85483895071872
 One-Electron (alpha) Energy = -4245.48664084124084
 One-Electron (beta)  Energy = -4245.48664084124084
 Total Coulomb        Energy = 2844.66944304635626
    4   -5265.6735526212      2.50e-03  
 Alpha HF Exchange    Energy = -19.67135795991712
 Beta HF Exchange     Energy = -19.67135795991714
 DFT Correlation      Energy =  -5.24669397842597
 DFT Exchange         Energy = -156.55379363641998
 One-Electron (alpha) Energy = -4241.44005423446833
 One-Electron (beta)  Energy = -4241.44005423447015
 Total Coulomb        Energy = 2836.15226631448650
    5   -5265.7107541643      2.24e-04  
 Alpha HF Exchange    Energy = -19.66912373419174
 Beta HF Exchange     Energy = -19.66912373419174
 DFT Correlation      Energy =  -5.24585794575398
 DFT Exchange         Energy = -156.53503174667671
 One-Electron (alpha) Energy = -4241.13722652591514
 One-Electron (beta)  Energy = -4241.13722652591696
 Total Coulomb        Energy = 2835.52206568893143
    6   -5265.7112329989      6.82e-05  
 Alpha HF Exchange    Energy = -19.66892591581662
 Beta HF Exchange     Energy = -19.66892591581666
 DFT Correlation      Energy =  -5.24586544687749
 DFT Exchange         Energy = -156.53380456747169
 One-Electron (alpha) Energy = -4241.10645797584311
 One-Electron (beta)  Energy = -4241.10645797584766
 Total Coulomb        Energy = 2835.45886464679825
    7   -5265.7112816261      2.06e-05  
 Alpha HF Exchange    Energy = -19.66893875303327
 Beta HF Exchange     Energy = -19.66893875303328
 DFT Correlation      Energy =  -5.24581956380195
 DFT Exchange         Energy = -156.53376497111100
 One-Electron (alpha) Energy = -4241.11419932442732
 One-Electron (beta)  Energy = -4241.11419932442823
 Total Coulomb        Energy = 2835.47428290785319
    8   -5265.7112862572      5.03e-06  
 Alpha HF Exchange    Energy = -19.66896011329646
 Beta HF Exchange     Energy = -19.66896011329646
 DFT Correlation      Energy =  -5.24583676764081
 DFT Exchange         Energy = -156.53396209905924
 One-Electron (alpha) Energy = -4241.11528254551013
 One-Electron (beta)  Energy = -4241.11528254550740
 Total Coulomb        Energy = 2835.47670615848074
    9   -5265.7112865010      6.36e-07  Convergence criterion met
 ---------------------------------------
 SCF time:   CPU 38.68s  wall 4.00s 
<S^2> =          0.000000000
 Alpha HF Exchange    Energy = -19.66896011329646
 Beta HF Exchange     Energy = -19.66896011329646
 DFT Correlation      Energy =  -5.24583676764081
 DFT Exchange         Energy = -156.53396209905924
 One-Electron (alpha) Energy = -4241.11528254551013
 One-Electron (beta)  Energy = -4241.11528254550740
 Total Coulomb        Energy = 2835.47670615848074
 Nuclear repulsion Energy = 582.16029152478689
 SCF   energy in the final basis set =    -5265.7112865010
 Total energy in the final basis set =    -5265.7112865010
 
 --------------------------------------------------------------
 
                    Orbital Energies (a.u.)
 --------------------------------------------------------------
 
 Alpha MOs
 -- Occupied --
*******-482.852 -62.513 -62.511 -56.334 -56.332 -56.331 -56.330
-56.328 -56.328 -10.268 -10.260 -10.206  -8.700  -8.698  -6.531
 -6.528  -6.518  -6.517  -6.515  -6.515  -2.624  -2.621  -2.620
 -2.620  -2.618  -2.618  -2.610  -2.610  -2.608  -2.608  -0.863
 -0.794  -0.744  -0.686  -0.603  -0.497  -0.461  -0.448  -0.430
 -0.388  -0.370  -0.359  -0.292  -0.286  -0.279  -0.267
 -- Virtual --
 -0.023   0.006   0.080   0.108   0.121   0.144   0.154   0.160
  0.185   0.201   0.219   0.258   0.327   0.339   0.345   0.352
  0.357   0.396   0.437   0.460   0.480   0.504   0.542   0.550
  0.582   0.607   0.616   0.635   0.679   0.703   0.715   0.769
  0.786   0.798   0.845   0.853   0.865   0.876   0.895   0.903
  0.921   0.953   1.036   1.121   1.343   1.356   1.381   1.544
  1.588   1.677   1.730   1.752   1.804   1.818   1.878   1.934
  2.021   2.041   2.054   2.077   2.101   2.158   2.232   2.255
  2.334   2.420   2.491   2.562   2.569   2.607   2.709   2.714
  2.806   2.847   2.875   3.167   3.214   3.298   3.416   3.440
  3.454   4.202   4.407   4.553   4.723   4.727   4.748   4.757
  4.797   4.810   4.828   4.855   4.980   4.992   6.300   6.316
 90.361  90.426
 
 Beta MOs
 -- Occupied --
*******-482.852 -62.513 -62.511 -56.334 -56.332 -56.331 -56.330
-56.328 -56.328 -10.268 -10.260 -10.206  -8.700  -8.698  -6.531
 -6.528  -6.518  -6.517  -6.515  -6.515  -2.624  -2.621  -2.620
 -2.620  -2.618  -2.618  -2.610  -2.610  -2.608  -2.608  -0.863
 -0.794  -0.744  -0.686  -0.603  -0.497  -0.461  -0.448  -0.430
 -0.388  -0.370  -0.359  -0.292  -0.286  -0.279  -0.267
 -- Virtual --
 -0.023   0.006   0.080   0.108   0.121   0.144   0.154   0.160
  0.185   0.201   0.219   0.258   0.327   0.339   0.345   0.352
  0.357   0.396   0.437   0.460   0.480   0.504   0.542   0.550
  0.582   0.607   0.616   0.635   0.679   0.703   0.715   0.769
  0.786   0.798   0.845   0.853   0.865   0.876   0.895   0.903
  0.921   0.953   1.036   1.121   1.343   1.356   1.381   1.544
  1.588   1.677   1.730   1.752   1.804   1.818   1.878   1.934
  2.021   2.041   2.054   2.077   2.101   2.158   2.232   2.255
  2.334   2.420   2.491   2.562   2.569   2.607   2.709   2.714
  2.806   2.847   2.875   3.167   3.214   3.298   3.416   3.440
  3.454   4.202   4.407   4.553   4.723   4.727   4.748   4.757
  4.797   4.810   4.828   4.855   4.980   4.992   6.300   6.316
 90.361  90.426
 --------------------------------------------------------------
 
          Ground-State Mulliken Net Atomic Charges

     Atom                 Charge (a.u.)    Spin (a.u.)
  --------------------------------------------------------
      1 Br                   -0.089280      -0.000000
      2 Br                   -0.083767       0.000000
      3 C                    -0.136990      -0.000000
      4 C                    -0.246145       0.000000
      5 C                    -0.321337      -0.000000
      6 H                     0.164537       0.000000
      7 H                     0.167728      -0.000000
      8 H                     0.158624      -0.000000
      9 H                     0.132094       0.000000
     10 H                     0.139717      -0.000000
     11 H                     0.114819       0.000000
  --------------------------------------------------------
  Sum of atomic charges =     0.000000
  Sum of spin   charges =    -0.000000

 -----------------------------------------------------------------
                    Cartesian Multipole Moments
 -----------------------------------------------------------------
    Charge (ESU x 10^10)
                -0.0000
    Dipole Moment (Debye)
         X      -1.7848      Y      -2.6238      Z      -0.0000
       Tot       3.1733
    Quadrupole Moments (Debye-Ang)
        XX     -59.1552     XY       1.6414     YY     -56.3311
        XZ       0.6102     YZ      -0.3019     ZZ     -55.3965
    Octopole Moments (Debye-Ang^2)
       XXX     -63.2078    XXY     -17.7994    XYY     -17.6671
       YYY     -59.5447    XXZ      -2.3630    XYZ      -1.1307
       YYZ       1.1439    XZZ     -20.0124    YZZ     -20.9130
       ZZZ      -0.4712
    Hexadecapole Moments (Debye-Ang^3)
      XXXX    -891.5474   XXXY      51.7543   XXYY    -232.8569
      XYYY      29.1741   YYYY    -447.4341   XXXZ       8.2165
      XXYZ      -5.4575   XYYZ       3.6655   YYYZ       0.6502
      XXZZ    -169.3166   XYZZ      11.5648   YYZZ     -97.6815
      XZZZ      15.2115   YZZZ      -9.0734   ZZZZ     -95.2665
 -----------------------------------------------------------------
 Calculating analytic gradient of the SCF energy
 Gradient of SCF Energy
            1           2           3           4           5           6
    1   0.0020783  -0.0101115   0.0054665  -0.0012238   0.0068154  -0.0023336
    2  -0.0092962   0.0020987   0.0065266  -0.0009079   0.0030531  -0.0006335
    3  -0.0002651   0.0011823  -0.0018106  -0.0012328  -0.0006458  -0.0033120
            7           8           9          10          11
    1   0.0020682   0.0019929  -0.0013481  -0.0023115  -0.0010928
    2  -0.0005075  -0.0015061  -0.0004945   0.0004124   0.0012550
    3   0.0032977   0.0013166   0.0012825  -0.0006035   0.0007906
 Max gradient component =       1.011E-02
 RMS gradient           =       3.428E-03
 Gradient time:  CPU 17.60 s  wall 1.54 s
 Geometry Optimization Parameters
   NAtoms,    NIC,     NZ,  NCons,   NDum,   NFix, NCnnct, MaxDiis
       11      68       0       1       0       0       0       0


** CONSTRAINED OPTIMIZATION IN DELOCALIZED INTERNAL COORDINATES **
   Searching for a Minimum

   Optimization Cycle:   1

                       Coordinates (Angstroms)
     ATOM                X               Y               Z
      1  Br       -0.6210000000    1.7449000000    0.1386000000
      2  Br        2.3393000000    0.0225000000   -0.1351000000
      3  C        -0.5190000000   -0.1510000000   -0.3641000000
      4  C         0.6445000000   -0.8148000000    0.3530000000
      5  C        -1.8438000000   -0.8015000000    0.0077000000
      6  H        -0.3800000000   -0.1578000000   -1.4501000000
      7  H         0.5708000000   -0.7330000000    1.4418000000
      8  H         0.7380000000   -1.8695000000    0.0783000000
      9  H        -2.0346000000   -0.7467000000    1.0855000000
     10  H        -2.6816000000   -0.3142000000   -0.5034000000
     11  H        -1.8478000000   -1.8579000000   -0.2814000000
   Point Group: c1    Number of degrees of freedom:    27


   Energy is  -5265.711286501

              Constraints and their Current Values
                                        Value     Constraint
   Distance(Angs):        1   3             1.964064     1.200000

 Attempting to Generate Delocalized Internal Coordinates
**WARNING** Constraint Gradient Reduced for constraint   1

   Using Lagrange Multiplier Algorithm


 28 Hessian modes will be used to form the next step
  Hessian Eigenvalues:
    -0.920809    0.045000    0.045000    0.073951    0.082277    0.082718
     0.083155    0.083433    0.083468    0.112020    0.160000    0.160000
     0.160000    0.160000    0.160000    0.170306    0.176897    0.222607
     0.231049    0.301749    0.304238    0.341363    0.341604    0.342127
     0.342547    0.343144    0.343670    1.086001

 Minimum Search - Taking P-RFO Step
 Searching for Lamda that Maximizes Along the Constraint modes Only
 Value Taken    Lamda =   0.05287023


 ********************************************
 ** ERROR IN DETERMINING Lamda IN CONFormD **
 ********************************************


 ** Scaling Hessian by  2.349788 **


 28 Hessian modes will be used to form the next step
  Hessian Eigenvalues:
    -0.824577    0.105740    0.105740    0.173770    0.193334    0.194370
     0.195397    0.196050    0.196133    0.263223    0.375966    0.375966
     0.375966    0.375966    0.375966    0.400184    0.415671    0.523079
     0.542916    0.709045    0.714896    0.802132    0.802696    0.803927
     0.804912    0.806316    0.807551    1.212743

 Minimum Search - Taking P-RFO Step
 Searching for Lamda that Maximizes Along the Constraint modes Only
 Value Taken    Lamda =   0.06340520
 Searching for Lamda that Minimizes Along All other modes
 Value Taken    Lamda =  -0.02860077
 Step Taken.  Stepsize is  0.291010

                             Maximum     Tolerance    Cnvgd?
         Gradient            0.300000       0.000300      NO
         Displacement        0.284234       0.001200      NO
         Energy change     *********       0.000001      NO


 New Cartesian Coordinates Obtained by Inverse Iteration

 Displacement from previous Coordinates is:  0.278123
 ----------------------------------------------------------------
             Standard Nuclear Orientation (Angstroms)
    I     Atom           X                Y                Z
 ----------------------------------------------------------------
    1      Br     -0.6361859888     1.6257033311     0.1065046319
    2      Br      2.3753411381     0.0004392061    -0.1230049323
    3      C      -0.5247159996    -0.1245189224    -0.3557046561
    4      C       0.6445172496    -0.7930454950     0.3522036158
    5      C      -1.8443740359    -0.7925998521     0.0132279030
    6      H      -0.3823664113    -0.1267661533    -1.4393721625
    7      H       0.5650093244    -0.7195661204     1.4392145473
    8      H       0.7186246323    -1.8451350564     0.0651526119
    9      H      -2.0325489634    -0.7439819651     1.0908279415
   10      H      -2.6851579664    -0.3114660681    -0.4957518401
   11      H      -1.8333429787    -1.8480629043    -0.2824976604
 ----------------------------------------------------------------
 Nuclear Repulsion Energy =   590.8677459012 hartrees
 There are       47 alpha and       47 beta electrons

                       Distance Matrix (Angstroms)
             Br(  1)   Br(  2)   C (  3)   C (  4)   C (  5)   H (  6)
   Br(  2)  3.429789
   C (  3)  1.813654  2.912060
   C (  4)  2.747893  1.962446  1.521568
   C (  5)  2.704923  4.295750  1.524448  2.511869
   H (  6)  2.350598  3.058424  1.092979  2.169830  2.165837
   H (  7)  2.952842  2.497246  2.182503  1.092389  2.800696  3.087911
   H (  8)  3.726116  2.487219  2.164148  1.093061  2.771189  2.535462
   H (  9)  2.921323  4.632175  2.179392  2.777527  1.094986  3.083175
   H ( 10)  2.883336  5.083786  2.173033  3.469537  1.094289  2.495472
   H ( 11)  3.694802  4.599502  2.165287  2.766893  1.096165  2.531117
             H (  7)   H (  8)   H (  9)   H ( 10)
   H (  8)  1.782849
   H (  9)  2.620931  3.135842
   H ( 10)  3.804501  3.775247  1.769238
   H ( 11)  3.160679  2.575540  1.773330  1.769801
 
 Applying Cartesian multipole field
    Component          Value
    ---------          -----
     (2,0,0)        1.00000E-11
     (0,2,0)        2.00000E-11
     (0,0,2)       -3.00000E-10
 Nucleus-field energy     =     0.0000000080 hartrees
 Requested basis set is 6-31G(d,p)
 There are 46 shells and 145 basis functions
 A cutoff of  1.0D-14 yielded    993 shell pairs
 There are      9860 function pairs
 Smallest overlap matrix eigenvalue = 7.21E-04
 Guess from superposition of atomic densities
 Warning:  Energy on first SCF cycle will be non-variational
 SAD guess density has 93.945746 electrons

 -----------------------------------------------------------------------
  General SCF calculation program by
  Eric Jon Sundstrom, Paul Horn, Yuezhi Mao, Dmitri Zuev, Alec White,
  David Stuck, Shaama M.S., Shane Yost, Joonho Lee, David Small,
  Daniel Levine, Susi Lehtola, Hugh Burton, Evgeny Epifanovsky
 -----------------------------------------------------------------------
 Exchange:     0.2000 Hartree-Fock + 0.0800 Slater + 0.7200 B88
 Correlation:  0.1900 VWN1RPA + 0.8100 LYP
 Using SG-1 standard quadrature grid
 using 12 threads for integral computing
 -------------------------------------------------------
 OpenMP Integral computing Module                
 Release: version 1.0, May 2013, Q-Chem Inc. Pittsburgh 
 -------------------------------------------------------
 -------------------------------------------------------
 OpenMP BLAS3 based DFT computing Module                
 Release: version 1.0, May 2013, Q-Chem Inc. Pittsburgh 
 -------------------------------------------------------
 A unrestricted SCF calculation will be
 performed using DIIS
 SCF converges when DIIS error is below 1.0e-06
 Alpha HF Exchange    Energy = -19.66011835816909
 Beta HF Exchange     Energy = -19.66011835816909
 DFT Correlation      Energy =  -5.21864170541436
 DFT Exchange         Energy = -155.96542153538687
 One-Electron (alpha) Energy = -4247.14858155002275
 One-Electron (beta)  Energy = -4247.14858155002275
 Total Coulomb        Energy = 2830.54691026391083
 ---------------------------------------
  Cycle       Energy         DIIS error
 ---------------------------------------
    1   -5273.3868068841      1.84e-01  
 Alpha HF Exchange    Energy = -19.74305468449152
 Beta HF Exchange     Energy = -19.74305468449151
 DFT Correlation      Energy =  -5.26844196126432
 DFT Exchange         Energy = -157.12458785337114
 One-Electron (alpha) Energy = -4257.20166828259971
 One-Electron (beta)  Energy = -4257.20166828260062
 Total Coulomb        Energy = 2859.83290950587661
    2   -5265.5818203337      1.03e-02  
 Alpha HF Exchange    Energy = -19.61026522541648
 Beta HF Exchange     Energy = -19.61026522541650
 DFT Correlation      Energy =  -5.23268716678502
 DFT Exchange         Energy = -156.06377847921502
 One-Electron (alpha) Energy = -4242.60489617191524
 One-Electron (beta)  Energy = -4242.60489617191888
 Total Coulomb        Energy = 2829.24358067712637
    3   -5265.6154618543      3.54e-03  
 Alpha HF Exchange    Energy = -19.71552877218055
 Beta HF Exchange     Energy = -19.71552877218060
 DFT Correlation      Energy =  -5.26052593906322
 DFT Exchange         Energy = -156.89780364334618
 One-Electron (alpha) Energy = -4254.02954528033115
 One-Electron (beta)  Energy = -4254.02954528033661
 Total Coulomb        Energy = 2853.12025408692352
    4   -5265.6604776913      2.47e-03  
 Alpha HF Exchange    Energy = -19.67660192646894
 Beta HF Exchange     Energy = -19.67660192646895
 DFT Correlation      Energy =  -5.24994841719082
 DFT Exchange         Energy = -156.58752709375102
 One-Electron (alpha) Energy = -4250.05604844042864
 One-Electron (beta)  Energy = -4250.05604844042955
 Total Coulomb        Energy = 2844.73545026662532
    5   -5265.6995800689      3.19e-04  
 Alpha HF Exchange    Energy = -19.67489316877831
 Beta HF Exchange     Energy = -19.67489316877833
 DFT Correlation      Energy =  -5.25011597293150
 DFT Exchange         Energy = -156.57577298460902
 One-Electron (alpha) Energy = -4249.78119586194953
 One-Electron (beta)  Energy = -4249.78119586195044
 Total Coulomb        Energy = 2844.16969902133224
    6   -5265.7006220885      7.74e-05  
 Alpha HF Exchange    Energy = -19.67434218175226
 Beta HF Exchange     Energy = -19.67434218175224
 DFT Correlation      Energy =  -5.24977515580795
 DFT Exchange         Energy = -156.57086398355364
 One-Electron (alpha) Energy = -4249.71696850288481
 One-Electron (beta)  Energy = -4249.71696850288299
 Total Coulomb        Energy = 2844.03483258991082
    7   -5265.7006820095      1.95e-05  
 Alpha HF Exchange    Energy = -19.67437979625434
 Beta HF Exchange     Energy = -19.67437979625436
 DFT Correlation      Energy =  -5.24979047119592
 DFT Exchange         Energy = -156.57122202026878
 One-Electron (alpha) Energy = -4249.72425876618581
 One-Electron (beta)  Energy = -4249.72425876618945
 Total Coulomb        Energy = 2844.04985812000905
    8   -5265.7006855871      5.84e-06  
 Alpha HF Exchange    Energy = -19.67439927477759
 Beta HF Exchange     Energy = -19.67439927477761
 DFT Correlation      Energy =  -5.24979412906024
 DFT Exchange         Energy = -156.57136190795703
 One-Electron (alpha) Energy = -4249.72650540257018
 One-Electron (beta)  Energy = -4249.72650540257291
 Total Coulomb        Energy = 2844.05453351093092
    9   -5265.7006859716      1.24e-06  
 Alpha HF Exchange    Energy = -19.67440299216467
 Beta HF Exchange     Energy = -19.67440299216468
 DFT Correlation      Energy =  -5.24979627559117
 DFT Exchange         Energy = -156.57139357870960
 One-Electron (alpha) Energy = -4249.72683717711607
 One-Electron (beta)  Energy = -4249.72683717711516
 Total Coulomb        Energy = 2844.05523829670392
   10   -5265.7006859870      3.75e-07  Convergence criterion met
 ---------------------------------------
 SCF time:   CPU 42.36s  wall 3.00s 
<S^2> =         -0.000000000
 Alpha HF Exchange    Energy = -19.67440299216467
 Beta HF Exchange     Energy = -19.67440299216468
 DFT Correlation      Energy =  -5.24979627559117
 DFT Exchange         Energy = -156.57139357870960
 One-Electron (alpha) Energy = -4249.72683717711607
 One-Electron (beta)  Energy = -4249.72683717711516
 Total Coulomb        Energy = 2844.05523829670392
 Nuclear repulsion Energy = 590.86774590919811
 SCF   energy in the final basis set =    -5265.7006859870
 Total energy in the final basis set =    -5265.7006859870
 
 --------------------------------------------------------------
 
                    Orbital Energies (a.u.)
 --------------------------------------------------------------
 
 Alpha MOs
 -- Occupied --
*******-482.854 -62.513 -62.513 -56.334 -56.334 -56.331 -56.331
-56.331 -56.330 -10.258 -10.258 -10.204  -8.702  -8.700  -6.532
 -6.531  -6.519  -6.519  -6.517  -6.517  -2.626  -2.624  -2.622
 -2.622  -2.620  -2.620  -2.612  -2.612  -2.610  -2.610  -0.880
 -0.800  -0.744  -0.686  -0.600  -0.499  -0.463  -0.450  -0.429
 -0.391  -0.372  -0.368  -0.289  -0.286  -0.278  -0.269
 -- Virtual --
 -0.014   0.034   0.081   0.109   0.123   0.144   0.154   0.162
  0.183   0.196   0.218   0.259   0.328   0.342   0.346   0.349
  0.360   0.395   0.444   0.462   0.475   0.507   0.542   0.550
  0.588   0.603   0.613   0.630   0.682   0.709   0.726   0.771
  0.800   0.817   0.851   0.854   0.867   0.888   0.902   0.911
  0.936   0.971   1.049   1.119   1.361   1.366   1.397   1.553
  1.595   1.711   1.734   1.773   1.814   1.826   1.880   1.934
  2.022   2.052   2.063   2.079   2.107   2.163   2.234   2.267
  2.342   2.420   2.500   2.563   2.580   2.616   2.710   2.716
  2.811   2.851   2.879   3.173   3.221   3.300   3.421   3.445
  3.459   4.206   4.410   4.553   4.724   4.726   4.752   4.761
  4.801   4.811   4.855   4.878   4.983   4.995   6.299   6.313
 90.360  90.432
 
 Beta MOs
 -- Occupied --
*******-482.854 -62.513 -62.513 -56.334 -56.334 -56.331 -56.331
-56.331 -56.330 -10.258 -10.258 -10.204  -8.702  -8.700  -6.532
 -6.531  -6.519  -6.519  -6.517  -6.517  -2.626  -2.624  -2.622
 -2.622  -2.620  -2.620  -2.612  -2.612  -2.610  -2.610  -0.880
 -0.800  -0.744  -0.686  -0.600  -0.499  -0.463  -0.450  -0.429
 -0.391  -0.372  -0.368  -0.289  -0.286  -0.278  -0.269
 -- Virtual --
 -0.014   0.034   0.081   0.109   0.123   0.144   0.154   0.162
  0.183   0.196   0.218   0.259   0.328   0.342   0.346   0.349
  0.360   0.395   0.444   0.462   0.475   0.507   0.542   0.550
  0.588   0.603   0.613   0.630   0.682   0.709   0.726   0.771
  0.800   0.817   0.851   0.854   0.867   0.888   0.902   0.911
  0.936   0.971   1.049   1.119   1.361   1.366   1.397   1.553
  1.595   1.711   1.734   1.773   1.814   1.826   1.880   1.934
  2.022   2.052   2.063   2.079   2.107   2.163   2.234   2.267
  2.342   2.420   2.500   2.563   2.580   2.616   2.710   2.716
  2.811   2.851   2.879   3.173   3.221   3.300   3.421   3.445
  3.459   4.206   4.410   4.553   4.724   4.726   4.752   4.761
  4.801   4.811   4.855   4.878   4.983   4.995   6.299   6.313
 90.360  90.432
 --------------------------------------------------------------
 
          Ground-State Mulliken Net Atomic Charges

     Atom                 Charge (a.u.)    Spin (a.u.)
  --------------------------------------------------------
      1 Br                   -0.063422       0.000000
      2 Br                   -0.088467       0.000000
      3 C                    -0.134802       0.000000
      4 C                    -0.247994      -0.000000
      5 C                    -0.322165       0.000000
      6 H                     0.159755      -0.000000
      7 H                     0.164346      -0.000000
      8 H                     0.154792      -0.000000
      9 H                     0.129683       0.000000
     10 H                     0.137855      -0.000000
     11 H                     0.110419      -0.000000
  --------------------------------------------------------
  Sum of atomic charges =    -0.000000
  Sum of spin   charges =     0.000000

 -----------------------------------------------------------------
                    Cartesian Multipole Moments
 -----------------------------------------------------------------
    Charge (ESU x 10^10)
                 0.0000
    Dipole Moment (Debye)
         X      -1.8465      Y      -2.2817      Z       0.0191
       Tot       2.9354
    Quadrupole Moments (Debye-Ang)
        XX     -59.1689     XY       1.4152     YY     -56.2232
        XZ       0.5384     YZ      -0.3318     ZZ     -55.3406
    Octopole Moments (Debye-Ang^2)
       XXX     -64.2070    XXY     -15.1031    XYY     -18.5234
       YYY     -51.6082    XXZ      -2.0928    XYZ      -0.9764
       YYZ       1.2804    XZZ     -20.5075    YZZ     -18.2883
       ZZZ       0.4079
    Hexadecapole Moments (Debye-Ang^3)
      XXXX    -910.1242   XXXY      50.5009   XXYY    -229.1141
      XYYY      28.6770   YYYY    -402.3935   XXXZ       5.9856
      XXYZ      -3.9307   XYYZ       3.0230   YYYZ       3.6394
      XXZZ    -172.7176   XYZZ      11.4824   YYZZ     -89.3946
      XZZZ      13.0947   YZZZ      -5.4786   ZZZZ     -93.7699
 -----------------------------------------------------------------
 Calculating analytic gradient of the SCF energy
 Gradient of SCF Energy
            1           2           3           4           5           6
    1   0.0054809  -0.0047717  -0.0008834  -0.0017524   0.0048828  -0.0019106
    2  -0.0798300   0.0016865   0.0526210   0.0080314   0.0126887   0.0066415
    3  -0.0183358   0.0007918   0.0125882   0.0015225   0.0020128  -0.0006527
            7           8           9          10          11
    1   0.0011565   0.0004258  -0.0012578  -0.0018335   0.0004632
    2  -0.0010183  -0.0007925  -0.0007819  -0.0001765   0.0009300
    3   0.0018478  -0.0001318   0.0006368  -0.0002059  -0.0000735
 Max gradient component =       7.983E-02
 RMS gradient           =       1.742E-02
 Gradient time:  CPU 17.73 s  wall 1.54 s
 Geometry Optimization Parameters
   NAtoms,    NIC,     NZ,  NCons,   NDum,   NFix, NCnnct, MaxDiis
       11      68       0       1       0       0       0       0

 Cartesian Hessian Update
 Hessian Updated using BFGS Update


** CONSTRAINED OPTIMIZATION IN DELOCALIZED INTERNAL COORDINATES **
   Searching for a Minimum

   Optimization Cycle:   2

                       Coordinates (Angstroms)
     ATOM                X               Y               Z
      1  Br       -0.6361859888    1.6257033311    0.1065046319
      2  Br        2.3753411381    0.0004392061   -0.1230049323
      3  C        -0.5247159996   -0.1245189224   -0.3557046561
      4  C         0.6445172496   -0.7930454950    0.3522036158
      5  C        -1.8443740359   -0.7925998521    0.0132279030
      6  H        -0.3823664113   -0.1267661533   -1.4393721625
      7  H         0.5650093244   -0.7195661204    1.4392145473
      8  H         0.7186246323   -1.8451350564    0.0651526119
      9  H        -2.0325489634   -0.7439819651    1.0908279415
     10  H        -2.6851579664   -0.3114660681   -0.4957518401
     11  H        -1.8333429787   -1.8480629043   -0.2824976604
   Point Group: c1    Number of degrees of freedom:    27


   Energy is  -5265.700685987

              Constraints and their Current Values
                                        Value     Constraint
   Distance(Angs):        1   3             1.813654     1.200000
 Hessian Updated using BFGS Update
**WARNING** Constraint Gradient Reduced for constraint   1

   Using Lagrange Multiplier Algorithm


 25 Hessian modes will be used to form the next step
  Hessian Eigenvalues:
    -0.876964    0.105544    0.105740    0.176054    0.193343    0.193878
     0.195402    0.195863    0.196155    0.263164    0.375218    0.376649
     0.399257    0.415435    0.516003    0.544703    0.708814    0.714623
     0.802065    0.802567    0.803877    0.804990    0.806127    0.807518
     1.147072

 Minimum Search - Taking P-RFO Step
 Searching for Lamda that Maximizes Along the Constraint modes Only
 Value Taken    Lamda =   0.04549851
 Searching for Lamda that Minimizes Along All other modes
 Value Taken    Lamda =  -0.04529087
 Calculated Step too Large.  Step scaled by  0.950711
 Step Taken.  Stepsize is  0.300000

                             Maximum     Tolerance    Cnvgd?
         Gradient            0.300000       0.000300      NO
         Displacement        0.272449       0.001200      NO
         Energy change      0.010601       0.000001      NO


 New Cartesian Coordinates Obtained by Inverse Iteration

 Displacement from previous Coordinates is:  0.272008
 ----------------------------------------------------------------
             Standard Nuclear Orientation (Angstroms)
    I     Atom           X                Y                Z
 ----------------------------------------------------------------
    1      Br     -0.6494665302     1.5392293912     0.0704480873
    2      Br      2.4098394986    -0.0433020441    -0.1124352645
    3      C      -0.5325525260    -0.0740875432    -0.3427150636
    4      C       0.6379802422    -0.7712189638     0.3507181452
    5      C      -1.8394144463    -0.7905699013     0.0189972276
    6      H      -0.3852889625    -0.0923367473    -1.4250330958
    7      H       0.5551417794    -0.7064637995     1.4359672284
    8      H       0.6827895005    -1.8201658353     0.0500477753
    9      H      -2.0252046855    -0.7491038575     1.0962975665
   10      H      -2.6874164803    -0.3259213250    -0.4896600909
   11      H      -1.8016073900    -1.8450593741    -0.2818325155
 ----------------------------------------------------------------
 Nuclear Repulsion Energy =   597.9718345163 hartrees
 There are       47 alpha and       47 beta electrons

                       Distance Matrix (Angstroms)
             Br(  1)   Br(  2)   C (  3)   C (  4)   C (  5)   H (  6)
   Br(  2)  3.449233
   C (  3)  1.669480  2.951550
   C (  4)  2.659745  1.970751  1.528721
   C (  5)  2.616599  4.316462  1.533646  2.499579
   H (  6)  2.228960  3.088375  1.092443  2.158994  2.165002
   H (  7)  2.891170  2.505442  2.178690  1.090331  2.783663  3.073579
   H (  8)  3.613981  2.483213  2.163356  1.092108  2.724435  2.510388
   H (  9)  2.860331  4.650678  2.180462  2.765670  1.093990  3.078600
   H ( 10)  2.818820  5.119003  2.174500  3.458726  1.092583  2.495852
   H ( 11)  3.592345  4.583810  2.179575  2.739497  1.097213  2.526836
             H (  7)   H (  8)   H (  9)   H ( 10)
   H (  8)  1.782526
   H (  9)  2.602956  3.094357
   H ( 10)  3.790387  3.725901  1.769991
   H ( 11)  3.130735  2.506590  1.774924  1.770771
 
 Applying Cartesian multipole field
    Component          Value
    ---------          -----
     (2,0,0)        1.00000E-11
     (0,2,0)        2.00000E-11
     (0,0,2)       -3.00000E-10
 Nucleus-field energy     =     0.0000000080 hartrees
 Requested basis set is 6-31G(d,p)
 There are 46 shells and 145 basis functions
 A cutoff of  1.0D-14 yielded    993 shell pairs
 There are      9857 function pairs
 Smallest overlap matrix eigenvalue = 7.21E-04
 Guess from superposition of atomic densities
 Warning:  Energy on first SCF cycle will be non-variational
 SAD guess density has 93.945746 electrons

 -----------------------------------------------------------------------
  General SCF calculation program by
  Eric Jon Sundstrom, Paul Horn, Yuezhi Mao, Dmitri Zuev, Alec White,
  David Stuck, Shaama M.S., Shane Yost, Joonho Lee, David Small,
  Daniel Levine, Susi Lehtola, Hugh Burton, Evgeny Epifanovsky
 -----------------------------------------------------------------------
 Exchange:     0.2000 Hartree-Fock + 0.0800 Slater + 0.7200 B88
 Correlation:  0.1900 VWN1RPA + 0.8100 LYP
 Using SG-1 standard quadrature grid
 using 12 threads for integral computing
 -------------------------------------------------------
 OpenMP Integral computing Module                
 Release: version 1.0, May 2013, Q-Chem Inc. Pittsburgh 
 -------------------------------------------------------
 -------------------------------------------------------
 OpenMP BLAS3 based DFT computing Module                
 Release: version 1.0, May 2013, Q-Chem Inc. Pittsburgh 
 -------------------------------------------------------
 A unrestricted SCF calculation will be
 performed using DIIS
 SCF converges when DIIS error is below 1.0e-06
 Alpha HF Exchange    Energy = -19.67728787207189
 Beta HF Exchange     Energy = -19.67728787207189
 DFT Correlation      Energy =  -5.22258347190703
 DFT Exchange         Energy = -156.00113099403356
 One-Electron (alpha) Energy = -4254.14970867842658
 One-Electron (beta)  Energy = -4254.14970867842658
 Total Coulomb        Energy = 2837.31829582147020
 ---------------------------------------
  Cycle       Energy         DIIS error
 ---------------------------------------
    1   -5273.5875772212      1.85e-01  
 Alpha HF Exchange    Energy = -19.74942992650702
 Beta HF Exchange     Energy = -19.74942992650698
 DFT Correlation      Energy =  -5.27283726265652
 DFT Exchange         Energy = -157.17247071873373
 One-Electron (alpha) Energy = -4264.19004484028392
 One-Electron (beta)  Energy = -4264.19004484028119
 Total Coulomb        Energy = 2866.80597692855508
    2   -5265.5464460622      1.03e-02  
 Alpha HF Exchange    Energy = -19.61545212637138
 Beta HF Exchange     Energy = -19.61545212637137
 DFT Correlation      Energy =  -5.23586685993941
 DFT Exchange         Energy = -156.09971926317809
 One-Electron (alpha) Energy = -4249.47466824390631
 One-Electron (beta)  Energy = -4249.47466824390631
 Total Coulomb        Energy = 2835.96976664735894
    3   -5265.5742256921      3.60e-03  
 Alpha HF Exchange    Energy = -19.72211861666632
 Beta HF Exchange     Energy = -19.72211861666630
 DFT Correlation      Energy =  -5.26556109449102
 DFT Exchange         Energy = -156.94901031584192
 One-Electron (alpha) Energy = -4261.06654446414814
 One-Electron (beta)  Energy = -4261.06654446414814
 Total Coulomb        Energy = 2860.20448392388971
    4   -5265.6155791238      2.62e-03  
 Alpha HF Exchange    Energy = -19.68326738488341
 Beta HF Exchange     Energy = -19.68326738488339
 DFT Correlation      Energy =  -5.25380676959824
 DFT Exchange         Energy = -156.63594843455400
 One-Electron (alpha) Energy = -4257.07766481045837
 One-Electron (beta)  Energy = -4257.07766481045564
 Total Coulomb        Energy = 2851.77546533024270
    5   -5265.6643197403      4.92e-04  
 Alpha HF Exchange    Energy = -19.68091084058320
 Beta HF Exchange     Energy = -19.68091084058322
 DFT Correlation      Energy =  -5.25413730347602
 DFT Exchange         Energy = -156.61994170192474
 One-Electron (alpha) Energy = -4256.75970276209318
 One-Electron (beta)  Energy = -4256.75970276209318
 Total Coulomb        Energy = 2851.11678866047259
    6   -5265.6666830260      7.45e-05  
 Alpha HF Exchange    Energy = -19.68027453252120
 Beta HF Exchange     Energy = -19.68027453252123
 DFT Correlation      Energy =  -5.25379169838422
 DFT Exchange         Energy = -156.61440525026006
 One-Electron (alpha) Energy = -4256.67707858835456
 One-Electron (beta)  Energy = -4256.67707858835638
 Total Coulomb        Energy = 2850.94433298773947
    7   -5265.6667356784      2.60e-05  
 Alpha HF Exchange    Energy = -19.68030145126237
 Beta HF Exchange     Energy = -19.68030145126236
 DFT Correlation      Energy =  -5.25379914061764
 DFT Exchange         Energy = -156.61467339062759
 One-Electron (alpha) Energy = -4256.68232627109865
 One-Electron (beta)  Energy = -4256.68232627109774
 Total Coulomb        Energy = 2850.95515131898082
    8   -5265.6667421327      6.42e-06  
 Alpha HF Exchange    Energy = -19.68033425988511
 Beta HF Exchange     Energy = -19.68033425988513
 DFT Correlation      Energy =  -5.25380707493944
 DFT Exchange         Energy = -156.61491949408622
 One-Electron (alpha) Energy = -4256.68678123766858
 One-Electron (beta)  Energy = -4256.68678123767040
 Total Coulomb        Energy = 2850.96438042849786
    9   -5265.6667426114      1.23e-06  
 Alpha HF Exchange    Energy = -19.68033743707149
 Beta HF Exchange     Energy = -19.68033743707150
 DFT Correlation      Energy =  -5.25380931113698
 DFT Exchange         Energy = -156.61494728564969
 One-Electron (alpha) Energy = -4256.68681425671275
 One-Electron (beta)  Energy = -4256.68681425671275
 Total Coulomb        Energy = 2850.96448283334030
   10   -5265.6667426268      3.76e-07  Convergence criterion met
 ---------------------------------------
 SCF time:   CPU 43.15s  wall 4.00s 
<S^2> =         -0.000000000
 Alpha HF Exchange    Energy = -19.68033743707149
 Beta HF Exchange     Energy = -19.68033743707150
 DFT Correlation      Energy =  -5.25380931113698
 DFT Exchange         Energy = -156.61494728564969
 One-Electron (alpha) Energy = -4256.68681425671275
 One-Electron (beta)  Energy = -4256.68681425671275
 Total Coulomb        Energy = 2850.96448283334030
 Nuclear repulsion Energy = 597.97183452425782
 SCF   energy in the final basis set =    -5265.6667426268
 Total energy in the final basis set =    -5265.6667426268
 
 --------------------------------------------------------------
 
                    Orbital Energies (a.u.)
 --------------------------------------------------------------
 
 Alpha MOs
 -- Occupied --
*******-482.855 -62.517 -62.513 -56.337 -56.334 -56.334 -56.334
-56.330 -56.330 -10.255 -10.250 -10.203  -8.707  -8.700  -6.537
 -6.530  -6.524  -6.524  -6.517  -6.517  -2.632  -2.627  -2.627
 -2.624  -2.620  -2.620  -2.617  -2.617  -2.610  -2.610  -0.909
 -0.803  -0.743  -0.685  -0.598  -0.504  -0.466  -0.454  -0.428
 -0.396  -0.381  -0.369  -0.287  -0.285  -0.275  -0.269
 -- Virtual --
 -0.012   0.060   0.086   0.108   0.125   0.144   0.152   0.165
  0.183   0.187   0.217   0.260   0.330   0.341   0.344   0.350
  0.372   0.397   0.453   0.463   0.475   0.511   0.540   0.562
  0.593   0.597   0.613   0.627   0.680   0.713   0.735   0.770
  0.799   0.824   0.854   0.861   0.869   0.889   0.906   0.919
  0.948   1.007   1.075   1.120   1.374   1.382   1.422   1.554
  1.596   1.728   1.743   1.791   1.805   1.847   1.883   1.935
  2.022   2.053   2.081   2.086   2.111   2.164   2.237   2.272
  2.349   2.418   2.509   2.564   2.589   2.625   2.706   2.716
  2.814   2.854   2.882   3.176   3.226   3.296   3.422   3.449
  3.463   4.207   4.412   4.558   4.724   4.725   4.753   4.763
  4.803   4.811   4.876   4.898   4.976   4.987   6.300   6.312
 90.364  90.448
 
 Beta MOs
 -- Occupied --
*******-482.855 -62.517 -62.513 -56.337 -56.334 -56.334 -56.334
-56.330 -56.330 -10.255 -10.250 -10.203  -8.707  -8.700  -6.537
 -6.530  -6.524  -6.524  -6.517  -6.517  -2.632  -2.627  -2.627
 -2.624  -2.620  -2.620  -2.617  -2.617  -2.610  -2.610  -0.909
 -0.803  -0.743  -0.685  -0.598  -0.504  -0.466  -0.454  -0.428
 -0.396  -0.381  -0.369  -0.287  -0.285  -0.275  -0.269
 -- Virtual --
 -0.012   0.060   0.086   0.108   0.125   0.144   0.152   0.165
  0.183   0.187   0.217   0.260   0.330   0.341   0.344   0.350
  0.372   0.397   0.453   0.463   0.475   0.511   0.540   0.562
  0.593   0.597   0.613   0.627   0.680   0.713   0.735   0.770
  0.799   0.824   0.854   0.861   0.869   0.889   0.906   0.919
  0.948   1.007   1.075   1.120   1.374   1.382   1.422   1.554
  1.596   1.728   1.743   1.791   1.805   1.847   1.883   1.935
  2.022   2.053   2.081   2.086   2.111   2.164   2.237   2.272
  2.349   2.418   2.509   2.564   2.589   2.625   2.706   2.716
  2.814   2.854   2.882   3.176   3.226   3.296   3.422   3.449
  3.463   4.207   4.412   4.558   4.724   4.725   4.753   4.763
  4.803   4.811   4.876   4.898   4.976   4.987   6.300   6.312
 90.364  90.448
 --------------------------------------------------------------
 
          Ground-State Mulliken Net Atomic Charges

     Atom                 Charge (a.u.)    Spin (a.u.)
  --------------------------------------------------------
      1 Br                   -0.045217      -0.000000
      2 Br                   -0.094032      -0.000000
      3 C                    -0.117795       0.000000
      4 C                    -0.252753      -0.000000
      5 C                    -0.327268      -0.000000
      6 H                     0.151668       0.000000
      7 H                     0.161095       0.000000
      8 H                     0.152383       0.000000
      9 H                     0.127812       0.000000
     10 H                     0.135630       0.000000
     11 H                     0.108478       0.000000
  --------------------------------------------------------
  Sum of atomic charges =    -0.000000
  Sum of spin   charges =    -0.000000

 -----------------------------------------------------------------
                    Cartesian Multipole Moments
 -----------------------------------------------------------------
    Charge (ESU x 10^10)
                 0.0000
    Dipole Moment (Debye)
         X      -1.9284      Y      -2.0245      Z       0.0242
       Tot       2.7961
    Quadrupole Moments (Debye-Ang)
        XX     -59.1835     XY       1.3035     YY     -56.2232
        XZ       0.4882     YZ      -0.3977     ZZ     -55.2966
    Octopole Moments (Debye-Ang^2)
       XXX     -65.2094    XXY     -12.9283    XYY     -19.4018
       YYY     -45.0889    XXZ      -1.8052    XYZ      -0.7902
       YYZ       1.4022    XZZ     -21.0003    YZZ     -15.9938
       ZZZ       1.4811
    Hexadecapole Moments (Debye-Ang^3)
      XXXX    -926.3933   XXXY      52.7865   XXYY    -227.8246
      XYYY      32.4131   YYYY    -372.3165   XXXZ       3.8694
      XXYZ      -2.4221   XYYZ       2.5313   YYYZ       6.3158
      XXZZ    -175.7907   XYZZ      12.7032   YYZZ     -83.7811
      XZZZ      11.0539   YZZZ      -2.1964   ZZZZ     -92.4636
 -----------------------------------------------------------------
 Calculating analytic gradient of the SCF energy
 Gradient of SCF Energy
            1           2           3           4           5           6
    1   0.0129231  -0.0002295  -0.0104640  -0.0022553   0.0022207  -0.0014958
    2  -0.1921304   0.0005126   0.1507801   0.0136496   0.0176878   0.0131029
    3  -0.0486522   0.0004545   0.0398840   0.0037018   0.0042480   0.0019599
            7           8           9          10          11
    1   0.0002173  -0.0002804  -0.0008156  -0.0007232   0.0009027
    2  -0.0014092  -0.0003113  -0.0011119  -0.0008031   0.0000331
    3   0.0000834  -0.0010986  -0.0001569   0.0000910  -0.0005147
 Max gradient component =       1.921E-01
 RMS gradient           =       4.425E-02
 Gradient time:  CPU 18.16 s  wall 1.58 s
 Geometry Optimization Parameters
   NAtoms,    NIC,     NZ,  NCons,   NDum,   NFix, NCnnct, MaxDiis
       11      68       0       1       0       0       0       0

 Cartesian Hessian Update
 Hessian Updated using BFGS Update


** CONSTRAINED OPTIMIZATION IN DELOCALIZED INTERNAL COORDINATES **
   Searching for a Minimum

   Optimization Cycle:   3

                       Coordinates (Angstroms)
     ATOM                X               Y               Z
      1  Br       -0.6494665302    1.5392293912    0.0704480873
      2  Br        2.4098394986   -0.0433020441   -0.1124352645
      3  C        -0.5325525260   -0.0740875432   -0.3427150636
      4  C         0.6379802422   -0.7712189638    0.3507181452
      5  C        -1.8394144463   -0.7905699013    0.0189972276
      6  H        -0.3852889625   -0.0923367473   -1.4250330958
      7  H         0.5551417794   -0.7064637995    1.4359672284
      8  H         0.6827895005   -1.8201658353    0.0500477753
      9  H        -2.0252046855   -0.7491038575    1.0962975665
     10  H        -2.6874164803   -0.3259213250   -0.4896600909
     11  H        -1.8016073900   -1.8450593741   -0.2818325155
   Point Group: c1    Number of degrees of freedom:    27


   Energy is  -5265.666742627

              Constraints and their Current Values
                                        Value     Constraint
   Distance(Angs):        1   3             1.669480     1.200000
 Hessian Updated using BFGS Update
**WARNING** Constraint Gradient Reduced for constraint   1

   Using Lagrange Multiplier Algorithm


 26 Hessian modes will be used to form the next step
  Hessian Eigenvalues:
    -0.794311    0.105460    0.105741    0.173185    0.193272    0.194297
     0.195407    0.195570    0.196145    0.263103    0.374654    0.375973
     0.376595    0.399260    0.415711    0.512810    0.541123    0.705328
     0.713691    0.802079    0.802567    0.803893    0.805141    0.806149
     0.807499    1.280733

 Minimum Search - Taking P-RFO Step
 Searching for Lamda that Maximizes Along the Constraint modes Only
 Value Taken    Lamda =   0.07909496
 Searching for Lamda that Minimizes Along All other modes
 Value Taken    Lamda =  -0.02714407
 Calculated Step too Large.  Step scaled by  0.833729
 Step Taken.  Stepsize is  0.300000

                             Maximum     Tolerance    Cnvgd?
         Gradient            0.300000       0.000300      NO
         Displacement        0.232568       0.001200      NO
         Energy change      0.033943       0.000001      NO


 New Cartesian Coordinates Obtained by Inverse Iteration

 Displacement from previous Coordinates is:  0.251702
 ----------------------------------------------------------------
             Standard Nuclear Orientation (Angstroms)
    I     Atom           X                Y                Z
 ----------------------------------------------------------------
    1      Br     -0.6521810689     1.4872291507     0.0458644406
    2      Br      2.4257282373    -0.0914087986    -0.1131911680
    3      C      -0.5408535008    -0.0096080763    -0.3262509163
    4      C       0.6243710139    -0.7540448224     0.3496969019
    5      C      -1.8285558280    -0.7927900366     0.0220044997
    6      H      -0.3880003762    -0.0703597119    -1.4084788995
    7      H       0.5450561006    -0.6939619225     1.4345760864
    8      H       0.6359461556    -1.7999825450     0.0393568079
    9      H      -2.0157319676    -0.7575329214     1.0988891601
   10      H      -2.6859843473    -0.3516985554    -0.4898255838
   11      H      -1.7549944186    -1.8448417604    -0.2818413291
 ----------------------------------------------------------------
 Nuclear Repulsion Energy =   604.7411118877 hartrees
 There are       47 alpha and       47 beta electrons

                       Distance Matrix (Angstroms)
             Br(  1)   Br(  2)   C (  3)   C (  4)   C (  5)   H (  6)
   Br(  2)  3.462791
   C (  3)  1.546410  2.975348
   C (  4)  2.597154  1.974396  1.539104
   C (  5)  2.565719  4.313832  1.546879  2.475022
   H (  6)  2.147321  3.097625  1.094656  2.140912  2.154852
   H (  7)  2.849472  2.509100  2.179002  1.089433  2.763903  3.056540
   H (  8)  3.530591  2.479075  2.173469  1.091069  2.662425  2.477154
   H (  9)  2.829680  4.651820  2.183044  2.744348  1.093599  3.067346
   H ( 10)  2.793738  5.132174  2.178387  3.438769  1.091657  2.490744
   H ( 11)  3.525094  4.536674  2.200953  2.692593  1.097518  2.507344
             H (  7)   H (  8)   H (  9)   H ( 10)
   H (  8)  1.782745
   H (  9)  2.583479  3.039853
   H ( 10)  3.776253  3.662347  1.771427
   H ( 11)  3.092062  2.412836  1.776694  1.771857
 
 Applying Cartesian multipole field
    Component          Value
    ---------          -----
     (2,0,0)        1.00000E-11
     (0,2,0)        2.00000E-11
     (0,0,2)       -3.00000E-10
 Nucleus-field energy     =     0.0000000079 hartrees
 Requested basis set is 6-31G(d,p)
 There are 46 shells and 145 basis functions
 A cutoff of  1.0D-14 yielded    993 shell pairs
 There are      9857 function pairs
 Smallest overlap matrix eigenvalue = 7.20E-04
 Guess from superposition of atomic densities
 Warning:  Energy on first SCF cycle will be non-variational
 SAD guess density has 93.945746 electrons

 -----------------------------------------------------------------------
  General SCF calculation program by
  Eric Jon Sundstrom, Paul Horn, Yuezhi Mao, Dmitri Zuev, Alec White,
  David Stuck, Shaama M.S., Shane Yost, Joonho Lee, David Small,
  Daniel Levine, Susi Lehtola, Hugh Burton, Evgeny Epifanovsky
 -----------------------------------------------------------------------
 Exchange:     0.2000 Hartree-Fock + 0.0800 Slater + 0.7200 B88
 Correlation:  0.1900 VWN1RPA + 0.8100 LYP
 Using SG-1 standard quadrature grid
 using 12 threads for integral computing
 -------------------------------------------------------
 OpenMP Integral computing Module                
 Release: version 1.0, May 2013, Q-Chem Inc. Pittsburgh 
 -------------------------------------------------------
 -------------------------------------------------------
 OpenMP BLAS3 based DFT computing Module                
 Release: version 1.0, May 2013, Q-Chem Inc. Pittsburgh 
 -------------------------------------------------------
 A unrestricted SCF calculation will be
 performed using DIIS
 SCF converges when DIIS error is below 1.0e-06
 Alpha HF Exchange    Energy = -19.69465037336853
 Beta HF Exchange     Energy = -19.69465037336853
 DFT Correlation      Energy =  -5.22620290301021
 DFT Exchange         Energy = -156.03871539547157
 One-Electron (alpha) Energy = -4260.76713097969241
 One-Electron (beta)  Energy = -4260.76713097969241
 Total Coulomb        Energy = 2843.64100939163336
 ---------------------------------------
  Cycle       Energy         DIIS error
 ---------------------------------------
    1   -5273.8063597174      1.86e-01  
 Alpha HF Exchange    Energy = -19.75618192563303
 Beta HF Exchange     Energy = -19.75618192563303
 DFT Correlation      Energy =  -5.27708405953414
 DFT Exchange         Energy = -157.22622833939835
 One-Electron (alpha) Energy = -4270.90967668573921
 One-Electron (beta)  Energy = -4270.90967668573649
 Total Coulomb        Energy = 2873.61385487892176
    2   -5265.4800628471      1.04e-02  
 Alpha HF Exchange    Energy = -19.61966148374837
 Beta HF Exchange     Energy = -19.61966148374838
 DFT Correlation      Energy =  -5.23859750987974
 DFT Exchange         Energy = -156.13118473970474
 One-Electron (alpha) Energy = -4255.78244142029507
 One-Electron (beta)  Energy = -4255.78244142029507
 Total Coulomb        Energy = 2841.93379113837682
    3   -5265.4990850237      3.77e-03  
 Alpha HF Exchange    Energy = -19.72884058532830
 Beta HF Exchange     Energy = -19.72884058532830
 DFT Correlation      Energy =  -5.27015753996564
 DFT Exchange         Energy = -157.00351782460427
 One-Electron (alpha) Energy = -4267.82348009429825
 One-Electron (beta)  Energy = -4267.82348009429734
 Total Coulomb        Energy = 2867.09679781190562
    4   -5265.5404070163      2.83e-03  
 Alpha HF Exchange    Energy = -19.69005758072055
 Beta HF Exchange     Energy = -19.69005758072057
 DFT Correlation      Energy =  -5.25763345472562
 DFT Exchange         Energy = -156.68873933588151
 One-Electron (alpha) Energy = -4263.73985435704526
 One-Electron (beta)  Energy = -4263.73985435704708
 Total Coulomb        Energy = 2858.46296303427016
    5   -5265.6021217363      5.82e-04  
 Alpha HF Exchange    Energy = -19.68675487403045
 Beta HF Exchange     Energy = -19.68675487403043
 DFT Correlation      Energy =  -5.25787731894658
 DFT Exchange         Energy = -156.66568068534411
 One-Electron (alpha) Energy = -4263.34585934880670
 One-Electron (beta)  Energy = -4263.34585934880488
 Total Coulomb        Energy = 2857.64243667092660
    6   -5265.6052378834      8.10e-05  
 Alpha HF Exchange    Energy = -19.68610955494057
 Beta HF Exchange     Energy = -19.68610955494055
 DFT Correlation      Energy =  -5.25752004933648
 DFT Exchange         Energy = -156.66003108240761
 One-Electron (alpha) Energy = -4263.26136761218550
 One-Electron (beta)  Energy = -4263.26136761218186
 Total Coulomb        Energy = 2857.46609770314080
    7   -5265.6052958672      3.36e-05  
 Alpha HF Exchange    Energy = -19.68614447214179
 Beta HF Exchange     Energy = -19.68614447214181
 DFT Correlation      Energy =  -5.25752952233809
 DFT Exchange         Energy = -156.66037564747876
 One-Electron (alpha) Energy = -4263.26540211929932
 One-Electron (beta)  Energy = -4263.26540211930114
 Total Coulomb        Energy = 2857.47457980169520
    8   -5265.6053066554      7.19e-06  
 Alpha HF Exchange    Energy = -19.68619118637613
 Beta HF Exchange     Energy = -19.68619118637612
 DFT Correlation      Energy =  -5.25754225768319
 DFT Exchange         Energy = -156.66073046216405
 One-Electron (alpha) Energy = -4263.27202727645545
 One-Electron (beta)  Energy = -4263.27202727645545
 Total Coulomb        Energy = 2857.48829047160098
    9   -5265.6053072783      1.20e-06  
 Alpha HF Exchange    Energy = -19.68619495901135
 Beta HF Exchange     Energy = -19.68619495901135
 DFT Correlation      Energy =  -5.25754476202118
 DFT Exchange         Energy = -156.66076335659159
 One-Electron (alpha) Energy = -4263.27207945405553
 One-Electron (beta)  Energy = -4263.27207945405553
 Total Coulomb        Energy = 2857.48843775721207
   10   -5265.6053072919      3.81e-07  Convergence criterion met
 ---------------------------------------
 SCF time:   CPU 42.52s  wall 3.00s 
<S^2> =          0.000000000
 Alpha HF Exchange    Energy = -19.68619495901135
 Beta HF Exchange     Energy = -19.68619495901135
 DFT Correlation      Energy =  -5.25754476202118
 DFT Exchange         Energy = -156.66076335659159
 One-Electron (alpha) Energy = -4263.27207945405553
 One-Electron (beta)  Energy = -4263.27207945405553
 Total Coulomb        Energy = 2857.48843775721207
 Nuclear repulsion Energy = 604.74111189560892
 SCF   energy in the final basis set =    -5265.6053072919
 Total energy in the final basis set =    -5265.6053072919
 
 --------------------------------------------------------------
 
                    Orbital Energies (a.u.)
 --------------------------------------------------------------
 
 Alpha MOs
 -- Occupied --
*******-482.854 -62.520 -62.512 -56.340 -56.338 -56.338 -56.334
-56.330 -56.330 -10.253 -10.244 -10.202  -8.713  -8.699  -6.543
 -6.530  -6.530  -6.530  -6.517  -6.517  -2.639  -2.633  -2.633
 -2.623  -2.623  -2.623  -2.619  -2.619  -2.609  -2.609  -0.941
 -0.805  -0.744  -0.684  -0.595  -0.510  -0.472  -0.458  -0.426
 -0.403  -0.391  -0.368  -0.287  -0.282  -0.270  -0.266
 -- Virtual --
 -0.011   0.067   0.099   0.106   0.125   0.142   0.146   0.167
  0.178   0.186   0.215   0.258   0.330   0.338   0.345   0.350
  0.387   0.406   0.459   0.462   0.483   0.515   0.543   0.574
  0.590   0.601   0.614   0.624   0.679   0.714   0.742   0.765
  0.798   0.821   0.853   0.866   0.872   0.890   0.908   0.925
  0.954   1.026   1.096   1.177   1.383   1.400   1.443   1.555
  1.600   1.728   1.754   1.780   1.818   1.855   1.890   1.936
  2.021   2.053   2.082   2.101   2.122   2.166   2.241   2.274
  2.354   2.414   2.511   2.561   2.594   2.635   2.698   2.716
  2.815   2.857   2.881   3.176   3.227   3.287   3.419   3.451
  3.462   4.205   4.412   4.557   4.723   4.725   4.752   4.763
  4.803   4.813   4.885   4.906   4.987   4.997   6.301   6.313
 90.365  90.495
 
 Beta MOs
 -- Occupied --
*******-482.854 -62.520 -62.512 -56.340 -56.338 -56.338 -56.334
-56.330 -56.330 -10.253 -10.244 -10.202  -8.713  -8.699  -6.543
 -6.530  -6.530  -6.530  -6.517  -6.517  -2.639  -2.633  -2.633
 -2.623  -2.623  -2.623  -2.619  -2.619  -2.609  -2.609  -0.941
 -0.805  -0.744  -0.684  -0.595  -0.510  -0.472  -0.458  -0.426
 -0.403  -0.391  -0.368  -0.287  -0.282  -0.270  -0.266
 -- Virtual --
 -0.011   0.067   0.099   0.106   0.125   0.142   0.146   0.167
  0.178   0.186   0.215   0.258   0.330   0.338   0.345   0.350
  0.387   0.406   0.459   0.462   0.483   0.515   0.543   0.574
  0.590   0.601   0.614   0.624   0.679   0.714   0.742   0.765
  0.798   0.821   0.853   0.866   0.872   0.890   0.908   0.925
  0.954   1.026   1.096   1.177   1.383   1.400   1.443   1.555
  1.600   1.728   1.754   1.780   1.818   1.855   1.890   1.936
  2.021   2.053   2.082   2.101   2.122   2.166   2.241   2.274
  2.354   2.414   2.511   2.561   2.594   2.635   2.698   2.716
  2.815   2.857   2.881   3.176   3.227   3.287   3.419   3.451
  3.462   4.205   4.412   4.557   4.723   4.725   4.752   4.763
  4.803   4.813   4.885   4.906   4.987   4.997   6.301   6.313
 90.365  90.495
 --------------------------------------------------------------
 
          Ground-State Mulliken Net Atomic Charges

     Atom                 Charge (a.u.)    Spin (a.u.)
  --------------------------------------------------------
      1 Br                   -0.025408       0.000000
      2 Br                   -0.100184       0.000000
      3 C                    -0.098241       0.000000
      4 C                    -0.259374      -0.000000
      5 C                    -0.334463       0.000000
      6 H                     0.141014      -0.000000
      7 H                     0.158267       0.000000
      8 H                     0.151156       0.000000
      9 H                     0.125931      -0.000000
     10 H                     0.132573      -0.000000
     11 H                     0.108729      -0.000000
  --------------------------------------------------------
  Sum of atomic charges =     0.000000
  Sum of spin   charges =     0.000000

 -----------------------------------------------------------------
                    Cartesian Multipole Moments
 -----------------------------------------------------------------
    Charge (ESU x 10^10)
                -0.0000
    Dipole Moment (Debye)
         X      -2.0089      Y      -1.8420      Z       0.0231
       Tot       2.7256
    Quadrupole Moments (Debye-Ang)
        XX     -59.2509     XY       1.2818     YY     -56.2270
        XZ       0.4871     YZ      -0.4653     ZZ     -55.2647
    Octopole Moments (Debye-Ang^2)
       XXX     -65.8513    XXY     -11.4234    XYY     -19.9959
       YYY     -40.6538    XXZ      -1.5683    XYZ      -0.6488
       YYZ       1.5054    XZZ     -21.3008    YZZ     -14.2764
       ZZZ       2.5419
    Hexadecapole Moments (Debye-Ang^3)
      XXXX    -931.9598   XXXY      55.9703   XXYY    -226.7610
      XYYY      37.6715   YYYY    -356.0641   XXXZ       3.4618
      XXYZ      -1.4537   XYYZ       2.6632   YYYZ       7.7722
      XXZZ    -176.7797   XYZZ      14.2746   YYZZ     -80.6170
      XZZZ      10.7514   YZZZ      -0.2719   ZZZZ     -91.9436
 -----------------------------------------------------------------
 Calculating analytic gradient of the SCF energy
 Gradient of SCF Energy
            1           2           3           4           5           6
    1   0.0267776   0.0018082  -0.0250950  -0.0033736   0.0009443  -0.0011541
    2  -0.3657540  -0.0005825   0.3235989   0.0151344   0.0166443   0.0159224
    3  -0.0926677   0.0002127   0.0838679   0.0039306   0.0046611   0.0033615
            7           8           9          10          11
    1  -0.0004492  -0.0002409  -0.0001195   0.0003262   0.0005760
    2  -0.0015066  -0.0001829  -0.0011815  -0.0011972  -0.0008953
    3  -0.0010664  -0.0013043  -0.0006950   0.0001244  -0.0004247
 Max gradient component =       3.658E-01
 RMS gradient           =       8.813E-02
 Gradient time:  CPU 18.14 s  wall 1.58 s
 Geometry Optimization Parameters
   NAtoms,    NIC,     NZ,  NCons,   NDum,   NFix, NCnnct, MaxDiis
       11      68       0       1       0       0       0       0

 Cartesian Hessian Update
 Hessian Updated using BFGS Update


** CONSTRAINED OPTIMIZATION IN DELOCALIZED INTERNAL COORDINATES **
   Searching for a Minimum

   Optimization Cycle:   4

                       Coordinates (Angstroms)
     ATOM                X               Y               Z
      1  Br       -0.6521810689    1.4872291507    0.0458644406
      2  Br        2.4257282373   -0.0914087986   -0.1131911680
      3  C        -0.5408535008   -0.0096080763   -0.3262509163
      4  C         0.6243710139   -0.7540448224    0.3496969019
      5  C        -1.8285558280   -0.7927900366    0.0220044997
      6  H        -0.3880003762   -0.0703597119   -1.4084788995
      7  H         0.5450561006   -0.6939619225    1.4345760864
      8  H         0.6359461556   -1.7999825450    0.0393568079
      9  H        -2.0157319676   -0.7575329214    1.0988891601
     10  H        -2.6859843473   -0.3516985554   -0.4898255838
     11  H        -1.7549944186   -1.8448417604   -0.2818413291
   Point Group: c1    Number of degrees of freedom:    27


   Energy is  -5265.605307292

              Constraints and their Current Values
                                        Value     Constraint
   Distance(Angs):        1   3             1.546410     1.200000
 Hessian Updated using BFGS Update
**WARNING** Constraint Gradient Reduced for constraint   1

   Using Lagrange Multiplier Algorithm


 27 Hessian modes will be used to form the next step
  Hessian Eigenvalues:
    -0.655280    0.105409    0.105741    0.166728    0.193267    0.194339
     0.195389    0.195554    0.196142    0.263081    0.374506    0.375967
     0.375969    0.376384    0.399342    0.415633    0.513490    0.536783
     0.701491    0.713242    0.802092    0.802595    0.803902    0.804733
     0.806170    0.807489    1.572352

 Minimum Search - Taking P-RFO Step
 Searching for Lamda that Maximizes Along the Constraint modes Only
 Value Taken    Lamda =   0.11182083


 ********************************************
 ** ERROR IN DETERMINING Lamda IN CONFormD **
 ********************************************


 ** Scaling Hessian by  2.121660 **


 27 Hessian modes will be used to form the next step
  Hessian Eigenvalues:
    -0.448836    0.223557    0.224347    0.341939    0.410024    0.412105
     0.414529    0.414859    0.416143    0.558122    0.793879    0.797652
     0.797674    0.798279    0.847269    0.881778    1.086266    1.128134
     1.472548    1.512487    1.701750    1.702833    1.705392    1.705880
     1.710403    1.713183    2.440092

 Minimum Search - Taking P-RFO Step
 Searching for Lamda that Maximizes Along the Constraint modes Only
 Value Taken    Lamda =   0.15091273
 Searching for Lamda that Minimizes Along All other modes
 Value Taken    Lamda =  -0.01453356
 Calculated Step too Large.  Step scaled by  0.857813
 Step Taken.  Stepsize is  0.300000

                             Maximum     Tolerance    Cnvgd?
         Gradient            0.300000       0.000300      NO
         Displacement        0.408506       0.001200      NO
         Energy change      0.061435       0.000001      NO


 New Cartesian Coordinates Obtained by Inverse Iteration

 Displacement from previous Coordinates is:  0.243592
 ----------------------------------------------------------------
             Standard Nuclear Orientation (Angstroms)
    I     Atom           X                Y                Z
 ----------------------------------------------------------------
    1      Br     -0.6546611699     1.4550336927     0.0332291317
    2      Br      2.4280632740    -0.1365028199    -0.1254334326
    3      C      -0.5486185240     0.0580549762    -0.3060291401
    4      C       0.6083374575    -0.7411734721     0.3493111185
    5      C      -1.8141065774    -0.7946169561     0.0222835571
    6      H      -0.3900331529    -0.0671612762    -1.3862290519
    7      H       0.5402267189    -0.6834305679     1.4351421759
    8      H       0.5848922191    -1.7835646922     0.0315621553
    9      H      -2.0098460546    -0.7649885240     1.0980034033
   10      H      -2.6794773436    -0.3788082697    -0.4971028331
   11      H      -1.6999768469    -1.8418420909    -0.2839370840
 ----------------------------------------------------------------
 Nuclear Repulsion Energy =   611.2685936788 hartrees
 There are       47 alpha and       47 beta electrons

                       Distance Matrix (Angstroms)
             Br(  1)   Br(  2)   C (  3)   C (  4)   C (  5)   H (  6)
   Br(  2)  3.472946
   C (  3)  1.441489  2.988495
   C (  4)  2.553116  1.975452  1.551381
   C (  5)  2.530882  4.295456  1.560865  2.445003
   H (  6)  2.098087  3.088055  1.098936  2.112614  2.130982
   H (  7)  2.822436  2.509672  2.183360  1.089496  2.747984  3.034025
   H (  8)  3.467710  2.476841  2.188693  1.089997  2.594860  2.430360
   H (  9)  2.810475  4.646163  2.187211  2.723232  1.093785  3.046665
   H ( 10)  2.782824  5.126775  2.183556  3.414301  1.091570  2.475727
   H ( 11)  3.473135  4.469230  2.221649  2.634538  1.097031  2.465865
             H (  7)   H (  8)   H (  9)   H ( 10)
   H (  8)  1.783908
   H (  9)  2.573555  2.984537
   H ( 10)  3.767341  3.592901  1.772542
   H ( 11)  3.052157  2.307285  1.779155  1.773507
 
 Applying Cartesian multipole field
    Component          Value
    ---------          -----
     (2,0,0)        1.00000E-11
     (0,2,0)        2.00000E-11
     (0,0,2)       -3.00000E-10
 Nucleus-field energy     =     0.0000000078 hartrees
 Requested basis set is 6-31G(d,p)
 There are 46 shells and 145 basis functions
 A cutoff of  1.0D-14 yielded    993 shell pairs
 There are      9857 function pairs
 Smallest overlap matrix eigenvalue = 7.19E-04
 Guess from superposition of atomic densities
 Warning:  Energy on first SCF cycle will be non-variational
 SAD guess density has 93.945746 electrons

 -----------------------------------------------------------------------
  General SCF calculation program by
  Eric Jon Sundstrom, Paul Horn, Yuezhi Mao, Dmitri Zuev, Alec White,
  David Stuck, Shaama M.S., Shane Yost, Joonho Lee, David Small,
  Daniel Levine, Susi Lehtola, Hugh Burton, Evgeny Epifanovsky
 -----------------------------------------------------------------------
 Exchange:     0.2000 Hartree-Fock + 0.0800 Slater + 0.7200 B88
 Correlation:  0.1900 VWN1RPA + 0.8100 LYP
 Using SG-1 standard quadrature grid
 using 12 threads for integral computing
 -------------------------------------------------------
 OpenMP Integral computing Module                
 Release: version 1.0, May 2013, Q-Chem Inc. Pittsburgh 
 -------------------------------------------------------
 -------------------------------------------------------
 OpenMP BLAS3 based DFT computing Module                
 Release: version 1.0, May 2013, Q-Chem Inc. Pittsburgh 
 -------------------------------------------------------
 A unrestricted SCF calculation will be
 performed using DIIS
 SCF converges when DIIS error is below 1.0e-06
 Alpha HF Exchange    Energy = -19.71171122766836
 Beta HF Exchange     Energy = -19.71171122766836
 DFT Correlation      Energy =  -5.22962549916431
 DFT Exchange         Energy = -156.07793609645876
 One-Electron (alpha) Energy = -4267.08561017893680
 One-Electron (beta)  Energy = -4267.08561017893680
 Total Coulomb        Energy = 2849.59862796558400
 ---------------------------------------
  Cycle       Energy         DIIS error
 ---------------------------------------
    1   -5274.0349827566      1.88e-01  
 Alpha HF Exchange    Energy = -19.76337645030920
 Beta HF Exchange     Energy = -19.76337645030920
 DFT Correlation      Energy =  -5.28131709637483
 DFT Exchange         Energy = -157.28708824045145
 One-Electron (alpha) Energy = -4277.42587563765665
 One-Electron (beta)  Energy = -4277.42587563765755
 Total Coulomb        Energy = 2880.29942997952276
    2   -5265.3788858466      1.04e-02  
[...]

                             Maximum     Tolerance    Cnvgd?
         Gradient           0.000291      0.000300     YES
         Displacement       0.002843      0.001200      NO
         Energy change     -0.000001      0.000001      NO


 New Cartesian Coordinates Obtained by Inverse Iteration

 Displacement from previous Coordinates is:  0.006582
 ----------------------------------------------------------------
             Standard Nuclear Orientation (Angstroms)
    I     Atom           X                Y                Z
 ----------------------------------------------------------------
    1      Br     -0.6205454150     1.3731768058    -0.0565446837
    2      Br      2.4243572724    -0.0692496871    -0.0447267361
    3      C      -0.5572315592     0.2012776980    -0.3068328426
    4      C       0.6166385659    -0.7599589777     0.3461118987
    5      C      -1.8233459282    -0.7859186831     0.0408628671
    6      H      -0.4077963022    -0.1777280485    -1.3656146953
    7      H       0.5270756880    -0.7502496733     1.4361015369
    8      H       0.5853363365    -1.7728320854    -0.0483923077
    9      H      -2.0006318030    -0.7586588915     1.1232317014
   10      H      -2.7003611767    -0.3631384626    -0.4611123400
   11      H      -1.6786956784    -1.8157199948    -0.2922843987
 ----------------------------------------------------------------
 Nuclear Repulsion Energy =   633.1236432053 hartrees
 There are       47 alpha and       47 beta electrons

                       Distance Matrix (Angstroms)
             Br(  1)   Br(  2)   C (  3)   C (  4)   C (  5)   H (  6)
   Br(  2)  3.369298
   C (  3)  1.200000  3.005288
   C (  4)  2.498605  1.974255  1.651752
   C (  5)  2.473441  4.308587  1.642710  2.459141
   H (  6)  2.040645  3.126916  1.134458  2.078092  2.086110
   H (  7)  2.837951  2.501258  2.262509  1.093706  2.733577  3.008551
   H (  8)  3.369212  2.506832  2.295509  1.087440  2.604557  2.294721
   H (  9)  2.800220  4.628168  2.247213  2.730205  1.097131  3.011472
   H ( 10)  2.739361  5.149999  2.221570  3.436796  1.095389  2.471509
   H ( 11)  3.368133  4.466149  2.307850  2.605905  1.091971  2.334575
             H (  7)   H (  8)   H (  9)   H ( 10)
   H (  8)  1.803550
   H (  9)  2.547011  3.014711
   H ( 10)  3.763725  3.599081  1.776571
   H ( 11)  2.997995  2.277535  1.795747  1.783899
 
 Applying Cartesian multipole field
    Component          Value
    ---------          -----
     (2,0,0)        1.00000E-11
     (0,2,0)        2.00000E-11
     (0,0,2)       -3.00000E-10
 Nucleus-field energy     =     0.0000000076 hartrees
 Requested basis set is 6-31G(d,p)
 There are 46 shells and 145 basis functions
 A cutoff of  1.0D-14 yielded    995 shell pairs
 There are      9909 function pairs
 Smallest overlap matrix eigenvalue = 7.15E-04
 Guess from superposition of atomic densities
 Warning:  Energy on first SCF cycle will be non-variational
 SAD guess density has 93.945746 electrons

 -----------------------------------------------------------------------
  General SCF calculation program by
  Eric Jon Sundstrom, Paul Horn, Yuezhi Mao, Dmitri Zuev, Alec White,
  David Stuck, Shaama M.S., Shane Yost, Joonho Lee, David Small,
  Daniel Levine, Susi Lehtola, Hugh Burton, Evgeny Epifanovsky
 -----------------------------------------------------------------------
 Exchange:     0.2000 Hartree-Fock + 0.0800 Slater + 0.7200 B88
 Correlation:  0.1900 VWN1RPA + 0.8100 LYP
 Using SG-1 standard quadrature grid
 using 12 threads for integral computing
 -------------------------------------------------------
 OpenMP Integral computing Module                
 Release: version 1.0, May 2013, Q-Chem Inc. Pittsburgh 
 -------------------------------------------------------
 -------------------------------------------------------
 OpenMP BLAS3 based DFT computing Module                
 Release: version 1.0, May 2013, Q-Chem Inc. Pittsburgh 
 -------------------------------------------------------
 A unrestricted SCF calculation will be
 performed using DIIS
 SCF converges when DIIS error is below 1.0e-06
 Alpha HF Exchange    Energy = -19.74862767541945
 Beta HF Exchange     Energy = -19.74862767541945
 DFT Correlation      Energy =  -5.23587097911633
 DFT Exchange         Energy = -156.17700238089503
 One-Electron (alpha) Energy = -4287.92410024800847
 One-Electron (beta)  Energy = -4287.92410024800847
 Total Coulomb        Energy = 2869.00890200943377
 ---------------------------------------
  Cycle       Energy         DIIS error
 ---------------------------------------
    1   -5274.6257839846      1.94e-01  
 Alpha HF Exchange    Energy = -19.78306709009084
 Beta HF Exchange     Energy = -19.78306709009084
 DFT Correlation      Energy =  -5.29085588158423
 DFT Exchange         Energy = -157.47399018148775
 One-Electron (alpha) Energy = -4299.16338266599632
 One-Electron (beta)  Energy = -4299.16338266599723
 Total Coulomb        Energy = 2902.70807856475767
    2   -5264.8260237977      1.07e-02  
 Alpha HF Exchange    Energy = -19.62584244057472
 Beta HF Exchange     Energy = -19.62584244057471
 DFT Correlation      Energy =  -5.24367123696007
 DFT Exchange         Energy = -156.19884822585774
 One-Electron (alpha) Energy = -4280.48875799298821
 One-Electron (beta)  Energy = -4280.48875799298730
 Total Coulomb        Energy = 2863.78399638504334
    3   -5264.7640807321      5.35e-03  
 Alpha HF Exchange    Energy = -19.74997953711961
 Beta HF Exchange     Energy = -19.74997953711959
 DFT Correlation      Energy =  -5.28278104897244
 DFT Exchange         Energy = -157.20507205665672
 One-Electron (alpha) Energy = -4295.66130746461113
 One-Electron (beta)  Energy = -4295.66130746460931
 Total Coulomb        Energy = 2895.31133064137975
    4   -5264.8754532549      3.90e-03  
 Alpha HF Exchange    Energy = -19.71333109267443
 Beta HF Exchange     Energy = -19.71333109267445
 DFT Correlation      Energy =  -5.26947324079200
 DFT Exchange         Energy = -156.89992851519941
 One-Electron (alpha) Energy = -4291.21427247264637
 One-Electron (beta)  Energy = -4291.21427247264910
 Total Coulomb        Energy = 2885.89479908684871
    5   -5265.0061665870      7.22e-04  
 Alpha HF Exchange    Energy = -19.70576413665685
 Beta HF Exchange     Energy = -19.70576413665686
 DFT Correlation      Energy =  -5.26869202206491
 DFT Exchange         Energy = -156.84390736064191
 One-Electron (alpha) Energy = -4290.39270049730658
 One-Electron (beta)  Energy = -4290.39270049730840
 Total Coulomb        Energy = 2884.17592688893592
    6   -5265.0099585489      1.51e-04  
 Alpha HF Exchange    Energy = -19.70518911132967
 Beta HF Exchange     Energy = -19.70518911132967
 DFT Correlation      Energy =  -5.26816961723549
 DFT Exchange         Energy = -156.83811851655213
 One-Electron (alpha) Energy = -4290.32985553858362
 One-Electron (beta)  Energy = -4290.32985553858452
 Total Coulomb        Energy = 2884.04263244350886
    7   -5265.0101017773      8.43e-05  
 Alpha HF Exchange    Energy = -19.70548235586296
 Beta HF Exchange     Energy = -19.70548235586294
 DFT Correlation      Energy =  -5.26829725093950
 DFT Exchange         Energy = -156.84072158664824
 One-Electron (alpha) Energy = -4290.34432315536742
 One-Electron (beta)  Energy = -4290.34432315536560
 Total Coulomb        Energy = 2884.07481188493966
    8   -5265.0101747623      1.29e-05  
 Alpha HF Exchange    Energy = -19.70559153736721
 Beta HF Exchange     Energy = -19.70559153736723
 DFT Correlation      Energy =  -5.26832533311877
 DFT Exchange         Energy = -156.84155306257577
 One-Electron (alpha) Energy = -4290.36315666368955
 One-Electron (beta)  Energy = -4290.36315666369137
 Total Coulomb        Energy = 2884.11355485267450
    9   -5265.0101767323      3.24e-06  
 Alpha HF Exchange    Energy = -19.70559593648007
 Beta HF Exchange     Energy = -19.70559593648010
 DFT Correlation      Energy =  -5.26833114978128
 DFT Exchange         Energy = -156.84159793008189
 One-Electron (alpha) Energy = -4290.36225811289114
 One-Electron (beta)  Energy = -4290.36225811289478
 Total Coulomb        Energy = 2884.11181714368877
   10   -5265.0101768221      7.42e-07  Convergence criterion met
 ---------------------------------------
 SCF time:   CPU 43.02s  wall 3.00s 
<S^2> =         -0.000000000
 Alpha HF Exchange    Energy = -19.70559593648007
 Beta HF Exchange     Energy = -19.70559593648010
 DFT Correlation      Energy =  -5.26833114978128
 DFT Exchange         Energy = -156.84159793008189
 One-Electron (alpha) Energy = -4290.36225811289114
 One-Electron (beta)  Energy = -4290.36225811289478
 Total Coulomb        Energy = 2884.11181714368877
 Nuclear repulsion Energy = 633.12364321283712
 SCF   energy in the final basis set =    -5265.0101768221
 Total energy in the final basis set =    -5265.0101768221
 
 --------------------------------------------------------------
 
                    Orbital Energies (a.u.)
 --------------------------------------------------------------
 
 Alpha MOs
 -- Occupied --
*******-482.850 -62.550 -62.508 -56.367 -56.366 -56.366 -56.329
-56.326 -56.326 -10.268 -10.245 -10.198  -8.759  -8.695  -6.596
 -6.574  -6.573  -6.525  -6.513  -6.513  -2.700  -2.682  -2.682
 -2.665  -2.665  -2.619  -2.615  -2.615  -2.605  -2.605  -1.047
 -0.803  -0.736  -0.673  -0.592  -0.531  -0.514  -0.461  -0.433
 -0.415  -0.406  -0.367  -0.288  -0.277  -0.240  -0.238
 -- Virtual --
 -0.002   0.058   0.082   0.085   0.126   0.131   0.139   0.167
  0.178   0.182   0.206   0.250   0.329   0.338   0.347   0.355
  0.393   0.435   0.470   0.490   0.511   0.533   0.548   0.575
  0.596   0.607   0.624   0.645   0.677   0.699   0.726   0.762
  0.802   0.823   0.852   0.878   0.890   0.902   0.910   0.952
  0.968   1.056   1.124   1.400   1.434   1.460   1.544   1.611
  1.645   1.665   1.742   1.796   1.846   1.872   1.918   1.958
  2.014   2.055   2.073   2.086   2.162   2.240   2.259   2.289
  2.371   2.416   2.466   2.510   2.571   2.574   2.673   2.701
  2.802   2.846   2.857   3.147   3.214   3.261   3.403   3.426
  3.446   4.246   4.420   4.614   4.705   4.725   4.734   4.756
  4.803   4.815   4.891   4.901   4.992   5.135   6.290   6.306
 90.365  90.583
 
 Beta MOs
 -- Occupied --
*******-482.850 -62.550 -62.508 -56.367 -56.366 -56.366 -56.329
-56.326 -56.326 -10.268 -10.245 -10.198  -8.759  -8.695  -6.596
 -6.574  -6.573  -6.525  -6.513  -6.513  -2.700  -2.682  -2.682
 -2.665  -2.665  -2.619  -2.615  -2.615  -2.605  -2.605  -1.047
 -0.803  -0.736  -0.673  -0.592  -0.531  -0.514  -0.461  -0.433
 -0.415  -0.406  -0.367  -0.288  -0.277  -0.240  -0.238
 -- Virtual --
 -0.002   0.058   0.082   0.085   0.126   0.131   0.139   0.167
  0.178   0.182   0.206   0.250   0.329   0.338   0.347   0.355
  0.393   0.435   0.470   0.490   0.511   0.533   0.548   0.575
  0.596   0.607   0.624   0.645   0.677   0.699   0.726   0.762
  0.802   0.823   0.852   0.878   0.890   0.902   0.910   0.952
  0.968   1.056   1.124   1.400   1.434   1.460   1.544   1.611
  1.645   1.665   1.742   1.796   1.846   1.872   1.918   1.958
  2.014   2.055   2.073   2.086   2.162   2.240   2.259   2.289
  2.371   2.416   2.466   2.510   2.571   2.574   2.673   2.701
  2.802   2.846   2.857   3.147   3.214   3.261   3.403   3.426
  3.446   4.246   4.420   4.614   4.705   4.725   4.734   4.756
  4.803   4.815   4.891   4.901   4.992   5.135   6.290   6.306
 90.365  90.583
 --------------------------------------------------------------
 
          Ground-State Mulliken Net Atomic Charges

     Atom                 Charge (a.u.)    Spin (a.u.)
  --------------------------------------------------------
      1 Br                    0.253971      -0.000000
      2 Br                   -0.125593      -0.000000
      3 C                    -0.186248       0.000000
      4 C                    -0.295680       0.000000
      5 C                    -0.370678       0.000000
      6 H                     0.080710       0.000000
      7 H                     0.147402      -0.000000
      8 H                     0.150176       0.000000
      9 H                     0.116291      -0.000000
     10 H                     0.117462       0.000000
     11 H                     0.112185      -0.000000
  --------------------------------------------------------
  Sum of atomic charges =    -0.000000
  Sum of spin   charges =    -0.000000

 -----------------------------------------------------------------
                    Cartesian Multipole Moments
 -----------------------------------------------------------------
    Charge (ESU x 10^10)
                -0.0000
    Dipole Moment (Debye)
         X      -2.2642      Y      -1.2244      Z       0.0133
       Tot       2.5741
    Quadrupole Moments (Debye-Ang)
        XX     -59.7972     XY       0.7596     YY     -55.8337
        XZ       0.3868     YZ      -0.5207     ZZ     -55.2694
    Octopole Moments (Debye-Ang^2)
       XXX     -68.7730    XXY      -9.1136    XYY     -20.4909
       YYY     -38.6672    XXZ      -1.3216    XYZ      -0.3664
       YYZ       0.7447    XZZ     -22.2456    YZZ     -12.4767
       ZZZ       3.9942
    Hexadecapole Moments (Debye-Ang^3)
      XXXX    -937.0037   XXXY      44.7474   XXYY    -219.7900
      XYYY      31.1827   YYYY    -326.5995   XXXZ      -6.5116
      XXYZ       1.8755   XYYZ      -0.6233   YYYZ      14.9870
      XXZZ    -176.8228   XYZZ      10.9335   YYZZ     -73.7503
      XZZZ      -1.2505   YZZZ       8.2424   ZZZZ     -92.1078
 -----------------------------------------------------------------
 Calculating analytic gradient of the SCF energy
 Gradient of SCF Energy
            1           2           3           4           5           6
    1   0.0958849  -0.0001380  -0.0959353   0.0000302  -0.0000999   0.0000594
    2  -1.7783210  -0.0000413   1.7782228  -0.0000957  -0.0000397  -0.0000278
    3  -0.3798135   0.0000542   0.3798991   0.0000220   0.0000137  -0.0001423
            7           8           9          10          11
    1   0.0001208   0.0000490   0.0000179  -0.0000205   0.0000315
    2   0.0000823   0.0000550  -0.0000296   0.0000326   0.0001624
    3  -0.0000271  -0.0000221  -0.0000057   0.0000917  -0.0000701
 Max gradient component =       1.778E+00
 RMS gradient           =       4.483E-01
 Gradient time:  CPU 18.38 s  wall 1.60 s
 Geometry Optimization Parameters
   NAtoms,    NIC,     NZ,  NCons,   NDum,   NFix, NCnnct, MaxDiis
       11      68       0       1       0       0       0       0

 Cartesian Hessian Update
 Hessian Updated using BFGS Update


** CONSTRAINED OPTIMIZATION IN DELOCALIZED INTERNAL COORDINATES **
   Searching for a Minimum

   Optimization Cycle:  31

                       Coordinates (Angstroms)
     ATOM                X               Y               Z
      1  Br       -0.6205454150    1.3731768058   -0.0565446837
      2  Br        2.4243572724   -0.0692496871   -0.0447267361
      3  C        -0.5572315592    0.2012776980   -0.3068328426
      4  C         0.6166385659   -0.7599589777    0.3461118987
      5  C        -1.8233459282   -0.7859186831    0.0408628671
      6  H        -0.4077963022   -0.1777280485   -1.3656146953
      7  H         0.5270756880   -0.7502496733    1.4361015369
      8  H         0.5853363365   -1.7728320854   -0.0483923077
      9  H        -2.0006318030   -0.7586588915    1.1232317014
     10  H        -2.7003611767   -0.3631384626   -0.4611123400
     11  H        -1.6786956784   -1.8157199948   -0.2922843987
   Point Group: c1    Number of degrees of freedom:    27


   Energy is  -5265.010176822

              Constraints and their Current Values
                                        Value     Constraint
   Distance(Angs):        1   3             1.200000     1.200000
 Hessian Updated using BFGS Update

 26 Hessian modes will be used to form the next step
  Hessian Eigenvalues:
     0.003439    0.019542    0.109608    0.168906    0.183828    0.285717
     0.390979    0.412236    0.414584    0.499046    0.553512    0.607471
     0.730533    0.775604    0.801475    0.819972    0.843234    0.937563
     1.000982    1.066471    1.167946    1.676494    1.699647    1.702803
     1.705249    1.711964

 Minimum Search - Taking Simple RFO Step
 Searching for Lamda that Minimizes Along All modes
 Value Taken    Lamda =   0.00000000
 Step Taken.  Stepsize is  0.004269

                             Maximum     Tolerance    Cnvgd?
         Gradient           0.000173      0.000300     YES
         Displacement       0.002459      0.001200      NO
         Energy change     -0.000001      0.000001     YES


                       Distance Matrix (Angstroms)
             Br(  1)   Br(  2)   C (  3)   C (  4)   C (  5)   H (  6)
   Br(  2)  3.369298
   C (  3)  1.200000  3.005288
   C (  4)  2.498605  1.974255  1.651752
   C (  5)  2.473441  4.308587  1.642710  2.459141
   H (  6)  2.040645  3.126916  1.134458  2.078092  2.086110
   H (  7)  2.837951  2.501258  2.262509  1.093706  2.733577  3.008551
   H (  8)  3.369212  2.506832  2.295509  1.087440  2.604557  2.294721
   H (  9)  2.800220  4.628168  2.247213  2.730205  1.097131  3.011472
   H ( 10)  2.739361  5.149999  2.221570  3.436796  1.095389  2.471509
   H ( 11)  3.368133  4.466149  2.307850  2.605905  1.091971  2.334575
             H (  7)   H (  8)   H (  9)   H ( 10)
   H (  8)  1.803550
   H (  9)  2.547011  3.014711
   H ( 10)  3.763725  3.599081  1.776571
   H ( 11)  2.997995  2.277535  1.795747  1.783899
 
 Final energy is   -5265.01017682208     


 ******************************
 **  OPTIMIZATION CONVERGED  **
 ******************************

                       Coordinates (Angstroms)
     ATOM                X               Y               Z
      1  Br       -0.6205454150    1.3731768058   -0.0565446837
      2  Br        2.4243572724   -0.0692496871   -0.0447267361
      3  C        -0.5572315592    0.2012776980   -0.3068328426
      4  C         0.6166385659   -0.7599589777    0.3461118987
      5  C        -1.8233459282   -0.7859186831    0.0408628671
      6  H        -0.4077963022   -0.1777280485   -1.3656146953
      7  H         0.5270756880   -0.7502496733    1.4361015369
      8  H         0.5853363365   -1.7728320854   -0.0483923077
      9  H        -2.0006318030   -0.7586588915    1.1232317014
     10  H        -2.7003611767   -0.3631384626   -0.4611123400
     11  H        -1.6786956784   -1.8157199948   -0.2922843987

Z-matrix Print:
$molecule
0 1
Br
C  1 1.200000
H  2 1.134458 1 121.861781
C  2 1.642710 1 120.137097 3 -119.646292 0
H  4 1.091971 2 113.582422 1 176.074983 0
H  4 1.095389 2 106.747260 1 55.567772 0
H  4 1.097131 2 108.567755 1 -60.921834 0
C  2 1.651752 1 121.558489 3 119.572595 0
H  8 1.087440 2 112.220890 1 -175.014752 0
H  8 1.093706 2 109.305053 1 60.673781 0
Br 8 1.974255 2 111.646298 1 -55.804945 0
$end

PES scan, value:    1.2000 energy: -5265.0101768221
------- Summary of potential scan: ------ 
    1.2000     -5265.0101768221
----------------------------------------- 
Archival summary:
1\1\hpc0242\JobtypUnspecified\ProcedureUnspecified\6-31G**\r236\knomura\WedMar1318:39:552019WedMar1318:39:552019\0\\#,JobtypUnspecified,ProcedureUnspecified,6-31G**,\\0,1\Br\C,1,1.2\H,2,1.13446,1,121.862\C,2,1.64271,1,120.137,3,-119.646,0\H,4,1.09197,2,113.582,1,176.075,0\H,4,1.09539,2,106.747,1,55.5678,0\H,4,1.09713,2,108.568,1,-60.9218,0\C,2,1.65175,1,121.558,3,119.573,0\H,8,1.08744,2,112.221,1,-175.015,0\H,8,1.09371,2,109.305,1,60.6738,0\Br,8,1.97425,2,111.646,1,-55.8049,0\\\@

 Total job time:  176.52s(wall), 2055.63s(cpu) 
 Wed Mar 13 18:39:55 2019

        *************************************************************
        *                                                           *
        *  Thank you very much for using Q-Chem.  Have a nice day.  *
        *                                                           *
        *************************************************************


