
Running Job 1 of 1 halogens/Bromine/03/Br_1_3.xyz.data/inputs/bond_singlet_2.4.in
qchem halogens/Bromine/03/Br_1_3.xyz.data/inputs/bond_singlet_2.4.in_31872.0 /staging/scratch/2868759/qchem31872/ 1
/usr/usc/qchem/5.1.1/exe/qcprog.exe_s halogens/Bromine/03/Br_1_3.xyz.data/inputs/bond_singlet_2.4.in_31872.0 /staging/scratch/2868759/qchem31872/
Check license passed

                  Welcome to Q-Chem
     A Quantum Leap Into The Future Of Chemistry


 Q-Chem 5.1, Q-Chem, Inc., Pleasanton, CA (2018)

 Yihan Shao,  Zhengting Gan,  E. Epifanovsky,  A. T. B. Gilbert,  M. Wormit,  
 J. Kussmann,  A. W. Lange,  A. Behn,  Jia Deng,  Xintian Feng,  D. Ghosh,  
 M. Goldey,  P. R. Horn,  L. D. Jacobson,  I. Kaliman,  T. Kus,  A. Landau,  
 Jie Liu,  E. I. Proynov,  R. M. Richard,  R. P. Steele,  E. J. Sundstrom,  
 H. L. Woodcock III,  P. M. Zimmerman,  D. Zuev,  B. Albrecht,  E. Alguire,  
 S. A. Baeppler,  D. Barton,  Z. Benda,  Y. A. Bernard,  E. J. Berquist,  
 K. B. Bravaya,  H. Burton,  D. Casanova,  Chun-Min Chang,  Yunqing Chen,  
 A. Chien,  K. D. Closser,  M. P. Coons,  S. Coriani,  S. Dasgupta,  
 A. L. Dempwolff,  M. Diedenhofen,  Hainam Do,  R. G. Edgar,  Po-Tung Fang,  
 S. Faraji,  S. Fatehi,  Qingguo Feng,  K. D. Fenk,  J. Fosso-Tande,  
 Qinghui Ge,  A. Ghysels,  G. Gidofalvi,  J. Gomes,  J. Gonthier,  A. Gunina,  
 D. Hait,  M. W. D. Hanson-Heine,  P. H. P. Harbach,  A. W. Hauser,  
 J. E. Herr,  E. G. Hohenstein,  Z. C. Holden,  Kerwin Hui,  B. C. Huynh,  
 T.-C. Jagau,  Hyunjun Ji,  B. Kaduk,  K. Khistyaev,  Jaehoon Kim,  
 P. Klunzinger,  K. Koh,  D. Kosenkov,  L. Koulias,  T. Kowalczyk,  
 C. M. Krauter,  A. Kunitsa,  Ka Un Lao,  A. Laurent,  K. V. Lawler,  
 Joonho Lee,  D. Lefrancois,  S. Lehtola,  D. S. Levine,  Yi-Pei Li,  
 You-Sheng Lin,  Fenglai Liu,  E. Livshits,  A. Luenser,  P. Manohar,  
 E. Mansoor,  S. F. Manzer,  Shan-Ping Mao,  Yuezhi Mao,  N. Mardirossian,  
 A. V. Marenich,  T. Markovich,  L. A. Martinez-Martinez,  S. A. Maurer,  
 N. J. Mayhall,  S. C. McKenzie,  J.-M. Mewes,  A. F. Morrison,  
 J. W. Mullinax,  K. Nanda,  T. S. Nguyen-Beck,  R. Olivares-Amaya,  
 J. A. Parkhill,  T. M. Perrine,  F. Plasser,  P. Pokhilko,  S. Prager,  
 A. Prociuk,  E. Ramos,  D. R. Rehn,  F. Rob,  M. Schneider,  N. Sergueev,  
 S. M. Sharada,  S. Sharma,  D. W. Small,  T. Stauch,  T. Stein,  
 Yu-Chuan Su,  A. J. W. Thom,  A. Tkatchenko,  T. Tsuchimochi,  N. M. Tubman,  
 L. Vogt,  M. L. Vidal,  O. Vydrov,  M. A. Watson,  J. Wenzel,  
 M. de Wergifosse,  T. A. Wesolowski,  A. White,  J. Witte,  A. Yamada,  
 Jun Yang,  K. Yao,  S. Yeganeh,  S. R. Yost,  Zhi-Qiang You,  A. Zech,  
 Igor Ying Zhang,  Xing Zhang,  Yan Zhao,  Ying Zhu,  B. R. Brooks,  
 G. K. L. Chan,  C. J. Cramer,  M. S. Gordon,  W. J. Hehre,  A. Klamt,  
 M. W. Schmidt,  C. D. Sherrill,  D. G. Truhlar,  A. Aspuru-Guzik,  R. Baer,  
 A. T. Bell,  N. A. Besley,  Jeng-Da Chai,  A. E. DePrince, III,  
 R. A. DiStasio Jr.,  A. Dreuw,  B. D. Dunietz,  T. R. Furlani,  
 Chao-Ping Hsu,  Yousung Jung,  Jing Kong,  D. S. Lambrecht,  WanZhen Liang,  
 C. Ochsenfeld,  V. A. Rassolov,  L. V. Slipchenko,  J. E. Subotnik,  
 T. Van Voorhis,  J. M. Herbert,  A. I. Krylov,  P. M. W. Gill,  M. Head-Gordon

 Contributors to earlier versions of Q-Chem not listed above: 
 R. D. Adamson,  B. Austin,  J. Baker,  G. J. O. Beran,  K. Brandhorst,  
 S. T. Brown,  E. F. C. Byrd,  A. K. Chakraborty,  C.-L. Cheng,  
 Siu Hung Chien,  D. M. Chipman,  D. L. Crittenden,  H. Dachsel,  
 R. J. Doerksen,  A. D. Dutoi,  L. Fusti-Molnar,  W. A. Goddard III,  
 A. Golubeva-Zadorozhnaya,  S. R. Gwaltney,  G. Hawkins,  A. Heyden,  
 S. Hirata,  G. Kedziora,  F. J. Keil,  C. Kelley,  Jihan Kim,  R. A. King,  
 R. Z. Khaliullin,  P. P. Korambath,  W. Kurlancheek,  A. M. Lee,  M. S. Lee,  
 S. V. Levchenko,  Ching Yeh Lin,  D. Liotard,  R. C. Lochan,  I. Lotan,  
 P. E. Maslen,  N. Nair,  D. P. O'Neill,  D. Neuhauser,  E. Neuscamman,  
 C. M. Oana,  R. Olson,  B. Peters,  R. Peverati,  P. A. Pieniazek,  
 Y. M. Rhee,  J. Ritchie,  M. A. Rohrdanz,  E. Rosta,  N. J. Russ,  
 H. F. Schaefer III,  N. E. Schultz,  N. Shenvi,  A. C. Simmonett,  A. Sodt,  
 D. Stuck,  K. S. Thanthiriwatte,  V. Vanovschi,  Tao Wang,  A. Warshel,  
 C. F. Williams,  Q. Wu,  X. Xu,  W. Zhang

 Please cite Q-Chem as follows:
 Y. Shao et al., Mol. Phys. 113, 184-215 (2015)
 DOI: 10.1080/00268976.2014.952696

 Q-Chem 5.1.1 for Intel X86 EM64T Linux

 Parts of Q-Chem use Armadillo 8.300.2 (Tropical Shenanigans).
 http://arma.sourceforge.net/

 Q-Chem begins on Wed Mar 13 19:03:08 2019  

Host: 
0

     Scratch files written to /staging/scratch/2868759/qchem31872//
 Aug318 |scratch|qcdevops|jenkins|workspace|build_RNUM 6013   
Processing $rem in /usr/usc/qchem/5.1.1/config/preferences.
 MEM_TOTAL  2000 
Input Ideriv = 2
Curr. Ideriv = -1
Max.  Ideriv = 2

Checking the input file for inconsistencies... 	...done.

--------------------------------------------------------------
User input:
--------------------------------------------------------------

$comment
potential surface scanner
$end

$rem
JOBTYPE  PES_SCAN
UNRESTRICTED TRUE
SYM_IGNORE  TRUE
GEOM_OPT_MAX_CYCLES 400
SCF_MAX_CYCLES 400
METHOD   B3LYP
BASIS   6-31G**
PDB_PRINT 2
SCF_CONVERGENCE 6
THRESH 14
SCF_PRINT 1
$end
$molecule
0 1
Br -0.702802 1.986043 0.227992
Br 2.400720 -0.168601 -0.261300
C -0.522140 -0.227851 -0.368697
C 0.655586 -0.791952 0.375056
C -1.847783 -0.855311 -0.020126
H -0.352274 -0.079823 -1.432193
H 0.606220 -0.574961 1.440938
H 0.666763 -1.877294 0.231295
H -2.019286 -0.865452 1.058983
H -2.672184 -0.328873 -0.502881
H -1.848020 -1.894925 -0.378269
$end
$scan
stre 1 3 2.400000 2.401000 0.100000
$end
--------------------------------------------------------------
 ----------------------------------------------------------------
             Standard Nuclear Orientation (Angstroms)
    I     Atom           X                Y                Z
 ----------------------------------------------------------------
    1      Br     -0.7028020000     1.9860430000     0.2279920000
    2      Br      2.4007200000    -0.1686010000    -0.2613000000
    3      C      -0.5221400000    -0.2278510000    -0.3686970000
    4      C       0.6555860000    -0.7919520000     0.3750560000
    5      C      -1.8477830000    -0.8553110000    -0.0201260000
    6      H      -0.3522740000    -0.0798230000    -1.4321930000
    7      H       0.6062200000    -0.5749610000     1.4409380000
    8      H       0.6667630000    -1.8772940000     0.2312950000
    9      H      -2.0192860000    -0.8654520000     1.0589830000
   10      H      -2.6721840000    -0.3288730000    -0.5028810000
   11      H      -1.8480200000    -1.8949250000    -0.3782690000
 ----------------------------------------------------------------
 Nuclear Repulsion Energy =   546.4132607716 hartrees
 There are       47 alpha and       47 beta electrons
 Requested basis set is 6-31G(d,p)
 There are 46 shells and 145 basis functions

 Total QAlloc Memory Limit   2000 MB
 Mega-Array Size       188 MB
 MEM_STATIC part       192 MB
A total of 1 constraints
  
            1
    1   1.0100000
    2   1.0100000
    3   3.0100000
    4   2.4000000
    5   2.4010000
    6   0.1000000
    7   0.0000000
    8   0.0000000
    9   0.0000000
   10   0.0000000

                       Distance Matrix (Angstroms)
             Br(  1)   Br(  2)   C (  3)   C (  4)   C (  5)   H (  6)
   Br(  2)  3.809691
   C (  3)  2.300001  2.925432
   C (  4)  3.095820  1.959339  1.502803
   C (  5)  3.073408  4.310396  1.507494  2.535161
   H (  6)  2.673366  2.992966  1.087102  2.188392  2.198150
   H (  7)  3.121461  2.506586  2.160662  1.088865  2.869745  3.068999
   H (  8)  4.098914  2.483725  2.119939  1.094879  2.725913  2.652646
   H (  9)  3.248800  4.665319  2.164775  2.761901  1.092700  3.098726
   H ( 10)  3.125936  5.081181  2.156595  3.472646  1.090792  2.511499
   H ( 11)  4.091575  4.587556  2.130067  2.837621  1.099574  2.577326
             H (  7)   H (  8)   H (  9)   H ( 10)
   H (  8)  1.778475
   H (  9)  2.668999  2.987265
   H ( 10)  3.819283  3.753024  1.775841
   H ( 11)  3.327929  2.587665  1.776187  1.774061
 
 A cutoff of  1.0D-14 yielded    974 shell pairs
 There are      9718 function pairs
 
 -------------------------------------------------------
 OpenMP Integral Computing Module                       
 Release: version 1.0, May 2013, Q-Chem Inc. Pittsburgh 
 -------------------------------------------------------
 Integral Job Info:
 Integral job number is                      11
 Integral operator is                         1
 short-range coefficients                     0
 long-range coefficients              100000000
 Omega coefficients                           0
 if combine SR and LR in K                    0
 Integral screening is                        0
 Integral computing path is                   2
 max size of driver memory is            800000
 size of driver memory is                593474
 size of scratch memory is             15267112
 max col of scratch BK array               1296
 max len of scratch array in speh3          155
 max len of scratch index in speh4           18
 max int batch size is                      520
 min int batch size is                       52
 fixed nKL is                                52
 max L of basis functions is                  2
 order of int derivative is                   0
 number of shells is                         46
 number of basis is                         145
 number of cartesian basis is               145
 number of contracted shell pairs           974
 number of primitive shell pairs           4216
 maxK2 (contraction) of shell pair           36
 max number of K2 of shell pair               1
 max number of CS2 of shell pair             68
 max number of PS2 of shell pair            408
 mem total for path MDJ                  534684
 -------------------------------------------------------
 Smallest overlap matrix eigenvalue = 7.22E-04

 Scale SEOQF with 1.000000e-01/1.000000e-01/1.000000e+00

 Standard Electronic Orientation quadrupole field applied
 Nucleus-field energy     =     0.0000000080 hartrees
 Guess from superposition of atomic densities
 Warning:  Energy on first SCF cycle will be non-variational
 SAD guess density has 93.945746 electrons

 -----------------------------------------------------------------------
  General SCF calculation program by
  Eric Jon Sundstrom, Paul Horn, Yuezhi Mao, Dmitri Zuev, Alec White,
  David Stuck, Shaama M.S., Shane Yost, Joonho Lee, David Small,
  Daniel Levine, Susi Lehtola, Hugh Burton, Evgeny Epifanovsky
 -----------------------------------------------------------------------
 Exchange:     0.2000 Hartree-Fock + 0.0800 Slater + 0.7200 B88
 Correlation:  0.1900 VWN1RPA + 0.8100 LYP
 Using SG-1 standard quadrature grid
 using 12 threads for integral computing
 -------------------------------------------------------
 OpenMP Integral computing Module                
 Release: version 1.0, May 2013, Q-Chem Inc. Pittsburgh 
 -------------------------------------------------------
 -------------------------------------------------------
 OpenMP BLAS3 based DFT computing Module                
 Release: version 1.0, May 2013, Q-Chem Inc. Pittsburgh 
 -------------------------------------------------------
 A unrestricted SCF calculation will be
 performed using DIIS
 SCF converges when DIIS error is below 1.0e-06
 Alpha HF Exchange    Energy = -19.62640853241964
 Beta HF Exchange     Energy = -19.62640853241964
 DFT Correlation      Energy =  -5.20734885847184
 DFT Exchange         Energy = -155.89969549960074
 One-Electron (alpha) Energy = -4202.80620096227995
 One-Electron (beta)  Energy = -4202.80620096227995
 Total Coulomb        Energy = 2786.61175375113044
 ---------------------------------------
  Cycle       Energy         DIIS error
 ---------------------------------------
    1   -5272.9472488167      1.83e-01  
 Alpha HF Exchange    Energy = -19.73249207426252
 Beta HF Exchange     Energy = -19.73249207426253
 DFT Correlation      Energy =  -5.25678985997259
 DFT Exchange         Energy = -157.05169717570681
 One-Electron (alpha) Energy = -4213.45332805586713
 One-Electron (beta)  Energy = -4213.45332805586622
 Total Coulomb        Energy = 2816.70839079586949
    2   -5265.5584757205      1.04e-02  
 Alpha HF Exchange    Energy = -19.59279728060100
 Beta HF Exchange     Energy = -19.59279728060099
 DFT Correlation      Energy =  -5.22312283434852
 DFT Exchange         Energy = -155.95856453429718
 One-Electron (alpha) Energy = -4196.94599434740212
 One-Electron (beta)  Energy = -4196.94599434740030
 Total Coulomb        Energy = 2782.32732369468749
    3   -5265.5186861504      4.65e-03  
 Alpha HF Exchange    Energy = -19.70479886538518
 Beta HF Exchange     Energy = -19.70479886538516
 DFT Correlation      Energy =  -5.24415003566557
 DFT Exchange         Energy = -156.80251777655531
 One-Electron (alpha) Energy = -4210.57735378824964
 One-Electron (beta)  Energy = -4210.57735378824691
 Total Coulomb        Energy = 2810.65481612496660
    4   -5265.5428962149      3.99e-03  
 Alpha HF Exchange    Energy = -19.66993416965182
 Beta HF Exchange     Energy = -19.66993416965178
 DFT Correlation      Energy =  -5.24251427041346
 DFT Exchange         Energy = -156.56388084668026
 One-Electron (alpha) Energy = -4206.21802926463351
 One-Electron (beta)  Energy = -4206.21802926463079
 Total Coulomb        Energy = 2801.48333423282202
    5   -5265.6857269732      1.14e-03  
 Alpha HF Exchange    Energy = -19.66111908679440
 Beta HF Exchange     Energy = -19.66111908679439
 DFT Correlation      Energy =  -5.23839765597725
 DFT Exchange         Energy = -156.48533743979425
 One-Electron (alpha) Energy = -4205.51117675153819
 One-Electron (beta)  Energy = -4205.51117675153637
 Total Coulomb        Energy = 2799.95491939632893
    6   -5265.7001465965      1.28e-04  
 Alpha HF Exchange    Energy = -19.66065569149353
 Beta HF Exchange     Energy = -19.66065569149351
 DFT Correlation      Energy =  -5.23837714437098
 DFT Exchange         Energy = -156.48256161238908
 One-Electron (alpha) Energy = -4205.35612671194303
 One-Electron (beta)  Energy = -4205.35612671193940
 Total Coulomb        Energy = 2799.64092403692666
    7   -5265.7003187471      6.48e-05  
 Alpha HF Exchange    Energy = -19.66108440995658
 Beta HF Exchange     Energy = -19.66108440995659
 DFT Correlation      Energy =  -5.23842167926125
 DFT Exchange         Energy = -156.48567754552008
 One-Electron (alpha) Energy = -4205.43158234520797
 One-Electron (beta)  Energy = -4205.43158234520888
 Total Coulomb        Energy = 2799.79581288169038
    8   -5265.7003590738      1.69e-05  
 Alpha HF Exchange    Energy = -19.66114774896243
 Beta HF Exchange     Energy = -19.66114774896243
 DFT Correlation      Energy =  -5.23845759541391
 DFT Exchange         Energy = -156.48616052763455
 One-Electron (alpha) Energy = -4205.44152668575134
 One-Electron (beta)  Energy = -4205.44152668575043
 Total Coulomb        Energy = 2799.81634395325727
    9   -5265.7003622596      2.71e-06  
 Alpha HF Exchange    Energy = -19.66115062284067
 Beta HF Exchange     Energy = -19.66115062284067
 DFT Correlation      Energy =  -5.23845956936211
 DFT Exchange         Energy = -156.48618112415608
 One-Electron (alpha) Energy = -4205.44150320773133
 One-Electron (beta)  Energy = -4205.44150320773224
 Total Coulomb        Energy = 2799.81632525068198
   10   -5265.7003623244      1.18e-06  
 Alpha HF Exchange    Energy = -19.66115225932901
 Beta HF Exchange     Energy = -19.66115225932901
 DFT Correlation      Energy =  -5.23845926779699
 DFT Exchange         Energy = -156.48619282720909
 One-Electron (alpha) Energy = -4205.44190675622485
 One-Electron (beta)  Energy = -4205.44190675622394
 Total Coulomb        Energy = 2799.81714700793009
   11   -5265.7003623386      1.64e-07  Convergence criterion met
 ---------------------------------------
 SCF time:   CPU 46.11s  wall 4.00s 
<S^2> =         -0.000000000
 Alpha HF Exchange    Energy = -19.66115225932901
 Beta HF Exchange     Energy = -19.66115225932901
 DFT Correlation      Energy =  -5.23845926779699
 DFT Exchange         Energy = -156.48619282720909
 One-Electron (alpha) Energy = -4205.44190675622485
 One-Electron (beta)  Energy = -4205.44190675622394
 Total Coulomb        Energy = 2799.81714700793009
 Nuclear repulsion Energy = 546.41326077960912
 SCF   energy in the final basis set =    -5265.7003623386
 Total energy in the final basis set =    -5265.7003623386
 
 --------------------------------------------------------------
 
                    Orbital Energies (a.u.)
 --------------------------------------------------------------
 
 Alpha MOs
 -- Occupied --
*******-482.837 -62.521 -62.495 -56.343 -56.339 -56.339 -56.316
-56.313 -56.313 -10.288 -10.269 -10.218  -8.708  -8.681  -6.539
 -6.525  -6.525  -6.511  -6.499  -6.499  -2.632  -2.629  -2.628
 -2.618  -2.618  -2.604  -2.601  -2.601  -2.592  -2.592  -0.857
 -0.791  -0.731  -0.699  -0.612  -0.497  -0.475  -0.455  -0.437
 -0.398  -0.381  -0.323  -0.291  -0.288  -0.271  -0.267
 -- Virtual --
 -0.078  -0.018   0.076   0.106   0.115   0.137   0.147   0.152
  0.189   0.211   0.225   0.251   0.325   0.326   0.342   0.349
  0.361   0.408   0.435   0.472   0.484   0.505   0.525   0.556
  0.576   0.604   0.624   0.635   0.653   0.676   0.690   0.723
  0.753   0.786   0.815   0.835   0.854   0.858   0.878   0.884
  0.898   0.934   0.985   1.104   1.314   1.324   1.362   1.450
  1.556   1.643   1.720   1.743   1.817   1.842   1.866   1.901
  1.994   2.011   2.043   2.067   2.084   2.147   2.221   2.235
  2.321   2.416   2.489   2.544   2.585   2.604   2.675   2.733
  2.806   2.842   2.870   3.167   3.220   3.299   3.413   3.424
  3.432   4.187   4.398   4.551   4.718   4.722   4.745   4.750
  4.771   4.784   4.804   4.821   4.922   4.976   6.290   6.315
 90.304  90.389
 
 Beta MOs
 -- Occupied --
*******-482.837 -62.521 -62.495 -56.343 -56.339 -56.339 -56.316
-56.313 -56.313 -10.288 -10.269 -10.218  -8.708  -8.681  -6.539
 -6.525  -6.525  -6.511  -6.499  -6.499  -2.632  -2.629  -2.628
 -2.618  -2.618  -2.604  -2.601  -2.601  -2.592  -2.592  -0.857
 -0.791  -0.731  -0.699  -0.612  -0.497  -0.475  -0.455  -0.437
 -0.398  -0.381  -0.323  -0.291  -0.288  -0.271  -0.267
 -- Virtual --
 -0.078  -0.018   0.076   0.106   0.115   0.137   0.147   0.152
  0.189   0.211   0.225   0.251   0.325   0.326   0.342   0.349
  0.361   0.408   0.435   0.472   0.484   0.505   0.525   0.556
  0.576   0.604   0.624   0.635   0.653   0.676   0.690   0.723
  0.753   0.786   0.815   0.835   0.854   0.858   0.878   0.884
  0.898   0.934   0.985   1.104   1.314   1.324   1.362   1.450
  1.556   1.643   1.720   1.743   1.817   1.842   1.866   1.901
  1.994   2.011   2.043   2.067   2.084   2.147   2.221   2.235
  2.321   2.416   2.489   2.544   2.585   2.604   2.675   2.733
  2.806   2.842   2.870   3.167   3.220   3.299   3.413   3.424
  3.432   4.187   4.398   4.551   4.718   4.722   4.745   4.750
  4.771   4.784   4.804   4.821   4.922   4.976   6.290   6.315
 90.304  90.389
 --------------------------------------------------------------
 
          Ground-State Mulliken Net Atomic Charges

     Atom                 Charge (a.u.)    Spin (a.u.)
  --------------------------------------------------------
      1 Br                   -0.218024      -0.000000
      2 Br                   -0.067874       0.000000
      3 C                    -0.092072      -0.000000
      4 C                    -0.250441       0.000000
      5 C                    -0.326029      -0.000000
      6 H                     0.180565       0.000000
      7 H                     0.184082      -0.000000
      8 H                     0.163893       0.000000
      9 H                     0.142973       0.000000
     10 H                     0.155679       0.000000
     11 H                     0.127247      -0.000000
  --------------------------------------------------------
  Sum of atomic charges =     0.000000
  Sum of spin   charges =    -0.000000

 -----------------------------------------------------------------
                    Cartesian Multipole Moments
 -----------------------------------------------------------------
    Charge (ESU x 10^10)
                -0.0000
    Dipole Moment (Debye)
         X      -1.6153      Y      -3.7441      Z      -0.0963
       Tot       4.0789
    Quadrupole Moments (Debye-Ang)
        XX     -58.3374     XY       2.9225     YY     -58.7081
        XZ       0.9135     YZ      -0.7058     ZZ     -55.3380
    Octopole Moments (Debye-Ang^2)
       XXX     -60.1966    XXY     -20.5387    XYY     -17.3186
       YYY     -68.1420    XXZ      -2.4784    XYZ      -1.0941
       YYZ       1.6336    XZZ     -19.0016    YZZ     -22.1104
       ZZZ       1.4049
    Hexadecapole Moments (Debye-Ang^3)
      XXXX    -919.4365   XXXY      91.9875   XXYY    -262.6887
      XYYY      73.2440   YYYY    -567.2455   XXXZ      24.4534
      XXYZ     -10.6750   XYYZ      11.0391   YYYZ     -14.6187
      XXZZ    -175.9900   XYZZ      26.1610   YYZZ    -118.8696
      XZZZ      34.9256   YZZZ     -24.7775   ZZZZ    -104.7887
 -----------------------------------------------------------------
 Calculating analytic gradient of the SCF energy
 Gradient of SCF Energy
            1           2           3           4           5           6
    1  -0.0029365  -0.0000172   0.0028662   0.0000436  -0.0000024  -0.0000397
    2   0.0352713   0.0000806  -0.0352474  -0.0000091  -0.0000955   0.0000868
    3   0.0095122  -0.0000280  -0.0094528  -0.0000546  -0.0000317   0.0000229
            7           8           9          10          11
    1   0.0000050   0.0000350   0.0000245  -0.0000143   0.0000358
    2  -0.0000064   0.0000323  -0.0000514  -0.0000385  -0.0000228
    3  -0.0000101  -0.0000372   0.0000200   0.0000497   0.0000096
 Max gradient component =       3.527E-02
 RMS gradient           =       9.017E-03
 Gradient time:  CPU 16.85 s  wall 1.52 s
 Geometry Optimization Parameters
   NAtoms,    NIC,     NZ,  NCons,   NDum,   NFix, NCnnct, MaxDiis
       11      68       0       1       0       0       0       0


** CONSTRAINED OPTIMIZATION IN DELOCALIZED INTERNAL COORDINATES **
   Searching for a Minimum

   Optimization Cycle:   1

                       Coordinates (Angstroms)
     ATOM                X               Y               Z
      1  Br       -0.7028020000    1.9860430000    0.2279920000
      2  Br        2.4007200000   -0.1686010000   -0.2613000000
      3  C        -0.5221400000   -0.2278510000   -0.3686970000
      4  C         0.6555860000   -0.7919520000    0.3750560000
      5  C        -1.8477830000   -0.8553110000   -0.0201260000
      6  H        -0.3522740000   -0.0798230000   -1.4321930000
      7  H         0.6062200000   -0.5749610000    1.4409380000
      8  H         0.6667630000   -1.8772940000    0.2312950000
      9  H        -2.0192860000   -0.8654520000    1.0589830000
     10  H        -2.6721840000   -0.3288730000   -0.5028810000
     11  H        -1.8480200000   -1.8949250000   -0.3782690000
   Point Group: c1    Number of degrees of freedom:    27


   Energy is  -5265.700362339

              Constraints and their Current Values
                                        Value     Constraint
   Distance(Angs):        1   3             2.300001     2.400000

 Attempting to Generate Delocalized Internal Coordinates

   Using Lagrange Multiplier Algorithm


 28 Hessian modes will be used to form the next step
  Hessian Eigenvalues:
    -0.962258    0.045000    0.045000    0.067101    0.080089    0.082234
     0.084342    0.084920    0.086011    0.123409    0.160000    0.160000
     0.160000    0.160000    0.160000    0.167230    0.179234    0.223395
     0.226925    0.316037    0.320850    0.337292    0.342549    0.345025
     0.347213    0.349442    0.351497    1.039222

 Minimum Search - Taking P-RFO Step
 Searching for Lamda that Maximizes Along the Constraint modes Only
 Value Taken    Lamda =   0.02640507
 Searching for Lamda that Minimizes Along All other modes
 Value Taken    Lamda =  -0.01042916
 Step Taken.  Stepsize is  0.185144

                             Maximum     Tolerance    Cnvgd?
         Gradient            0.188971       0.000300      NO
         Displacement        0.185141       0.001200      NO
         Energy change     *********       0.000001      NO


 New Cartesian Coordinates Obtained by Inverse Iteration

 Displacement from previous Coordinates is:  0.175006
 ----------------------------------------------------------------
             Standard Nuclear Orientation (Angstroms)
    I     Atom           X                Y                Z
 ----------------------------------------------------------------
    1      Br     -0.7094722267     2.0721046754     0.2445871969
    2      Br      2.4014569446    -0.1782316476    -0.2641518601
    3      C      -0.5213127978    -0.2376508212    -0.3717735763
    4      C       0.6562149645    -0.7997225531     0.3737824455
    5      C      -1.8471805543    -0.8637781067    -0.0218120968
    6      H      -0.3511746250    -0.0927291047    -1.4356689492
    7      H       0.6067979862    -0.5797105116     1.4390338507
    8      H       0.6673835523    -1.8854700288     0.2330488243
    9      H      -2.0190291330    -0.8709995043     1.0572575023
   10      H      -2.6712870021    -0.3384626952    -0.5062948276
   11      H      -1.8475971088    -1.9043497023    -0.3772105097
 ----------------------------------------------------------------
 Nuclear Repulsion Energy =   538.8727842877 hartrees
 There are       47 alpha and       47 beta electrons

                       Distance Matrix (Angstroms)
             Br(  1)   Br(  2)   C (  3)   C (  4)   C (  5)   H (  6)
   Br(  2)  3.873075
   C (  3)  2.397973  2.925354
   C (  4)  3.182638  1.959357  1.502781
   C (  5)  3.159867  4.310409  1.507459  2.535269
   H (  6)  2.763719  2.992782  1.087117  2.188330  2.198077
   H (  7)  3.192396  2.506557  2.160709  1.088856  2.869978  3.069003
   H (  8)  4.190258  2.483723  2.119933  1.094887  2.726140  2.652546
   H (  9)  3.322233  4.665485  2.164813  2.762092  1.092692  3.098730
   H ( 10)  3.197401  5.081047  2.156536  3.472689  1.090794  2.511383
   H ( 11)  4.182601  4.587671  2.130011  2.837828  1.099590  2.577127
             H (  7)   H (  8)   H (  9)   H ( 10)
   H (  8)  1.778505
   H (  9)  2.669376  2.987521
   H ( 10)  3.819469  3.753210  1.775875
   H ( 11)  3.328283  2.588030  1.776204  1.774015
 
 Applying Cartesian multipole field
    Component          Value
    ---------          -----
     (2,0,0)        1.00000E-11
     (0,2,0)        2.00000E-11
     (0,0,2)       -3.00000E-10
 Nucleus-field energy     =     0.0000000085 hartrees
 Requested basis set is 6-31G(d,p)
 There are 46 shells and 145 basis functions
 A cutoff of  1.0D-14 yielded    971 shell pairs
 There are      9688 function pairs
 Smallest overlap matrix eigenvalue = 7.22E-04
 Guess from superposition of atomic densities
 Warning:  Energy on first SCF cycle will be non-variational
 SAD guess density has 93.945746 electrons

 -----------------------------------------------------------------------
  General SCF calculation program by
  Eric Jon Sundstrom, Paul Horn, Yuezhi Mao, Dmitri Zuev, Alec White,
  David Stuck, Shaama M.S., Shane Yost, Joonho Lee, David Small,
  Daniel Levine, Susi Lehtola, Hugh Burton, Evgeny Epifanovsky
 -----------------------------------------------------------------------
 Exchange:     0.2000 Hartree-Fock + 0.0800 Slater + 0.7200 B88
 Correlation:  0.1900 VWN1RPA + 0.8100 LYP
 Using SG-1 standard quadrature grid
 using 12 threads for integral computing
 -------------------------------------------------------
 OpenMP Integral computing Module                
 Release: version 1.0, May 2013, Q-Chem Inc. Pittsburgh 
 -------------------------------------------------------
 -------------------------------------------------------
 OpenMP BLAS3 based DFT computing Module                
 Release: version 1.0, May 2013, Q-Chem Inc. Pittsburgh 
 -------------------------------------------------------
 A unrestricted SCF calculation will be
 performed using DIIS
 SCF converges when DIIS error is below 1.0e-06
 Alpha HF Exchange    Energy = -19.62232228234699
 Beta HF Exchange     Energy = -19.62232228234699
 DFT Correlation      Energy =  -5.20546711298061
 DFT Exchange         Energy = -155.89204195843274
 One-Electron (alpha) Energy = -4195.27468652012703
 One-Electron (beta)  Energy = -4195.27468652012703
 Total Coulomb        Energy = 2779.12433113933048
 ---------------------------------------
  Cycle       Energy         DIIS error
 ---------------------------------------
    1   -5272.8944112408      1.83e-01  
 Alpha HF Exchange    Energy = -19.73166551815953
 Beta HF Exchange     Energy = -19.73166551815952
 DFT Correlation      Energy =  -5.25497759227128
 DFT Exchange         Energy = -157.04541842329212
 One-Electron (alpha) Energy = -4206.11161981775786
 One-Electron (beta)  Energy = -4206.11161981775786
 Total Coulomb        Energy = 2809.57332850071180
    2   -5265.5408538904      1.04e-02  
 Alpha HF Exchange    Energy = -19.58997546383830
 Beta HF Exchange     Energy = -19.58997546383828
 DFT Correlation      Energy =  -5.22158569204498
 DFT Exchange         Energy = -155.94213506627710
 One-Electron (alpha) Energy = -4188.80997244994523
 One-Electron (beta)  Energy = -4188.80997244994342
 Total Coulomb        Energy = 2773.65599657833582
    3   -5265.4348357113      5.24e-03  
 Alpha HF Exchange    Energy = -19.70342083366680
 Beta HF Exchange     Energy = -19.70342083366680
 DFT Correlation      Energy =  -5.24098059026059
 DFT Exchange         Energy = -156.78509129365673
 One-Electron (alpha) Energy = -4203.22088374534360
 One-Electron (beta)  Energy = -4203.22088374534451
 Total Coulomb        Energy = 2803.54165495984262
    4   -5265.4602417858      4.58e-03  
 Alpha HF Exchange    Energy = -19.66946226880138
 Beta HF Exchange     Energy = -19.66946226880137
 DFT Correlation      Energy =  -5.24118533433506
 DFT Exchange         Energy = -156.56499658894887
 One-Electron (alpha) Energy = -4198.87613266482913
 One-Electron (beta)  Energy = -4198.87613266482822
 Total Coulomb        Energy = 2794.34701394807325
    5   -5265.6775735462      1.18e-03  
 Alpha HF Exchange    Energy = -19.65817309815863
 Beta HF Exchange     Energy = -19.65817309815861
 DFT Correlation      Energy =  -5.23616665403969
 DFT Exchange         Energy = -156.46538635593237
 One-Electron (alpha) Energy = -4197.91274200574935
 One-Electron (beta)  Energy = -4197.91274200574753
 Total Coulomb        Energy = 2792.27803123031981
    6   -5265.6925676912      2.19e-04  
 Alpha HF Exchange    Energy = -19.65851287576113
 Beta HF Exchange     Energy = -19.65851287576109
 DFT Correlation      Energy =  -5.23648712447272
 DFT Exchange         Energy = -156.46987927671623
 One-Electron (alpha) Energy = -4197.79999065170796
 One-Electron (beta)  Energy = -4197.79999065170341
 Total Coulomb        Energy = 2792.05750766778556
    7   -5265.6930814921      9.00e-05  
 Alpha HF Exchange    Energy = -19.65911464277092
 Beta HF Exchange     Energy = -19.65911464277091
 DFT Correlation      Energy =  -5.23657151537138
 DFT Exchange         Energy = -156.47424772059867
 One-Electron (alpha) Energy = -4197.90670385465091
 One-Electron (beta)  Energy = -4197.90670385465000
 Total Coulomb        Energy = 2792.27650962156849
    8   -5265.6931623130      2.27e-05  
 Alpha HF Exchange    Energy = -19.65917152266621
 Beta HF Exchange     Energy = -19.65917152266624
 DFT Correlation      Energy =  -5.23660472791238
 DFT Exchange         Energy = -156.47463237139712
 One-Electron (alpha) Energy = -4197.91823832069167
 One-Electron (beta)  Energy = -4197.91823832069440
 Total Coulomb        Energy = 2792.30010403240794
    9   -5265.6931684574      3.41e-06  
 Alpha HF Exchange    Energy = -19.65917260086777
 Beta HF Exchange     Energy = -19.65917260086778
 DFT Correlation      Energy =  -5.23660579659221
 DFT Exchange         Energy = -156.47463570604447
 One-Electron (alpha) Energy = -4197.91766656770506
 One-Electron (beta)  Energy = -4197.91766656770596
 Total Coulomb        Energy = 2792.29896698444145
   10   -5265.6931685591      1.59e-06  
 Alpha HF Exchange    Energy = -19.65917497342979
 Beta HF Exchange     Energy = -19.65917497342983
 DFT Correlation      Energy =  -5.23660508025842
 DFT Exchange         Energy = -156.47465195695830
 One-Electron (alpha) Energy = -4197.91836590499224
 One-Electron (beta)  Energy = -4197.91836590499406
 Total Coulomb        Energy = 2792.30038591368157
   11   -5265.6931685841      2.55e-07  Convergence criterion met
 ---------------------------------------
 SCF time:   CPU 45.24s  wall 4.00s 
<S^2> =         -0.000000000
 Alpha HF Exchange    Energy = -19.65917497342979
 Beta HF Exchange     Energy = -19.65917497342983
 DFT Correlation      Energy =  -5.23660508025842
 DFT Exchange         Energy = -156.47465195695830
 One-Electron (alpha) Energy = -4197.91836590499224
 One-Electron (beta)  Energy = -4197.91836590499406
 Total Coulomb        Energy = 2792.30038591368157
 Nuclear repulsion Energy = 538.87278429625201
 SCF   energy in the final basis set =    -5265.6931685841
 Total energy in the final basis set =    -5265.6931685841
 
 --------------------------------------------------------------
 
                    Orbital Energies (a.u.)
 --------------------------------------------------------------
 
 Alpha MOs
 -- Occupied --
*******-482.834 -62.523 -62.492 -56.344 -56.340 -56.340 -56.313
-56.309 -56.309 -10.294 -10.272 -10.221  -8.710  -8.678  -6.540
 -6.527  -6.526  -6.507  -6.495  -6.495  -2.634  -2.630  -2.630
 -2.619  -2.619  -2.600  -2.597  -2.597  -2.588  -2.588  -0.858
 -0.791  -0.726  -0.701  -0.615  -0.499  -0.477  -0.457  -0.439
 -0.400  -0.383  -0.315  -0.292  -0.289  -0.267  -0.264
 -- Virtual --
 -0.093  -0.020   0.074   0.105   0.113   0.135   0.145   0.150
  0.188   0.210   0.225   0.250   0.324   0.325   0.341   0.350
  0.363   0.411   0.437   0.474   0.485   0.508   0.524   0.558
  0.574   0.598   0.626   0.633   0.654   0.664   0.683   0.716
  0.745   0.781   0.806   0.829   0.848   0.855   0.871   0.878
  0.895   0.930   0.978   1.095   1.306   1.319   1.357   1.420
  1.553   1.636   1.717   1.738   1.820   1.840   1.850   1.900
  1.989   2.009   2.040   2.064   2.079   2.140   2.218   2.227
  2.317   2.413   2.487   2.540   2.582   2.600   2.672   2.729
  2.803   2.839   2.867   3.163   3.217   3.296   3.410   3.421
  3.429   4.177   4.395   4.538   4.716   4.721   4.746   4.749
  4.767   4.777   4.801   4.813   4.913   4.974   6.287   6.315
 90.283  90.387
 
 Beta MOs
 -- Occupied --
*******-482.834 -62.523 -62.492 -56.344 -56.340 -56.340 -56.313
-56.309 -56.309 -10.294 -10.272 -10.221  -8.710  -8.678  -6.540
 -6.527  -6.526  -6.507  -6.495  -6.495  -2.634  -2.630  -2.630
 -2.619  -2.619  -2.600  -2.597  -2.597  -2.588  -2.588  -0.858
 -0.791  -0.726  -0.701  -0.615  -0.499  -0.477  -0.457  -0.439
 -0.400  -0.383  -0.315  -0.292  -0.289  -0.267  -0.264
 -- Virtual --
 -0.093  -0.020   0.074   0.105   0.113   0.135   0.145   0.150
  0.188   0.210   0.225   0.250   0.324   0.325   0.341   0.350
  0.363   0.411   0.437   0.474   0.485   0.508   0.524   0.558
  0.574   0.598   0.626   0.633   0.654   0.664   0.683   0.716
  0.745   0.781   0.806   0.829   0.848   0.855   0.871   0.878
  0.895   0.930   0.978   1.095   1.306   1.319   1.357   1.420
  1.553   1.636   1.717   1.738   1.820   1.840   1.850   1.900
  1.989   2.009   2.040   2.064   2.079   2.140   2.218   2.227
  2.317   2.413   2.487   2.540   2.582   2.600   2.672   2.729
  2.803   2.839   2.867   3.163   3.217   3.296   3.410   3.421
  3.429   4.177   4.395   4.538   4.716   4.721   4.746   4.749
  4.767   4.777   4.801   4.813   4.913   4.974   6.287   6.315
 90.283  90.387
 --------------------------------------------------------------
 
          Ground-State Mulliken Net Atomic Charges

     Atom                 Charge (a.u.)    Spin (a.u.)
  --------------------------------------------------------
      1 Br                   -0.249516       0.000000
      2 Br                   -0.064297      -0.000000
      3 C                    -0.071255       0.000000
      4 C                    -0.254717      -0.000000
      5 C                    -0.330529      -0.000000
      6 H                     0.181228      -0.000000
      7 H                     0.187311       0.000000
      8 H                     0.166676      -0.000000
      9 H                     0.145766       0.000000
     10 H                     0.158650       0.000000
     11 H                     0.130683       0.000000
  --------------------------------------------------------
  Sum of atomic charges =    -0.000000
  Sum of spin   charges =     0.000000

 -----------------------------------------------------------------
                    Cartesian Multipole Moments
 -----------------------------------------------------------------
    Charge (ESU x 10^10)
                -0.0000
    Dipole Moment (Debye)
         X      -1.5731      Y      -4.1179      Z      -0.1466
       Tot       4.4106
    Quadrupole Moments (Debye-Ang)
        XX     -58.1852     XY       3.2337     YY     -59.3374
        XZ       0.9593     YZ      -0.7796     ZZ     -55.3442
    Octopole Moments (Debye-Ang^2)
       XXX     -59.6628    XXY     -22.3795    XYY     -16.7799
       YYY     -74.4194    XXZ      -2.7957    XYZ      -1.0788
       YYZ       1.2404    XZZ     -18.8374    YZZ     -23.7230
       ZZZ       0.6450
    Hexadecapole Moments (Debye-Ang^3)
      XXXX    -918.6795   XXXY      98.3022   XXYY    -270.3515
      XYYY      80.0566   YYYY    -612.0688   XXXZ      25.5076
      XXYZ     -11.8515   XYYZ      11.5647   YYYZ     -18.0537
      XXZZ    -176.2265   XYZZ      28.1238   YYZZ    -126.4054
      XZZZ      36.0392   YZZZ     -28.2210   ZZZZ    -105.8135
 -----------------------------------------------------------------
 Calculating analytic gradient of the SCF energy
 Gradient of SCF Energy
            1           2           3           4           5           6
    1  -0.0031175   0.0001795   0.0027440   0.0003051  -0.0004151   0.0000865
    2   0.0392070   0.0001369  -0.0295210  -0.0037291  -0.0037884  -0.0028455
    3   0.0104891  -0.0000831  -0.0093754  -0.0002361  -0.0009810  -0.0003629
            7           8           9          10          11
    1   0.0000298   0.0005269   0.0000636   0.0000402  -0.0004430
    2   0.0001749   0.0001937   0.0001362   0.0000054   0.0000300
    3  -0.0001162   0.0001705   0.0000474   0.0001138   0.0003339
 Max gradient component =       3.921E-02
 RMS gradient           =       8.982E-03
 Gradient time:  CPU 16.81 s  wall 1.47 s
 Geometry Optimization Parameters
   NAtoms,    NIC,     NZ,  NCons,   NDum,   NFix, NCnnct, MaxDiis
       11      68       0       1       0       0       0       0

 Cartesian Hessian Update
 Hessian Updated using BFGS Update


** CONSTRAINED OPTIMIZATION IN DELOCALIZED INTERNAL COORDINATES **
   Searching for a Minimum

   Optimization Cycle:   2

                       Coordinates (Angstroms)
     ATOM                X               Y               Z
      1  Br       -0.7094722267    2.0721046754    0.2445871969
      2  Br        2.4014569446   -0.1782316476   -0.2641518601
      3  C        -0.5213127978   -0.2376508212   -0.3717735763
      4  C         0.6562149645   -0.7997225531    0.3737824455
      5  C        -1.8471805543   -0.8637781067   -0.0218120968
      6  H        -0.3511746250   -0.0927291047   -1.4356689492
      7  H         0.6067979862   -0.5797105116    1.4390338507
      8  H         0.6673835523   -1.8854700288    0.2330488243
      9  H        -2.0190291330   -0.8709995043    1.0572575023
     10  H        -2.6712870021   -0.3384626952   -0.5062948276
     11  H        -1.8475971088   -1.9043497023   -0.3772105097
   Point Group: c1    Number of degrees of freedom:    27


   Energy is  -5265.693168584

              Constraints and their Current Values
                                        Value     Constraint
   Distance(Angs):        1   3             2.397973     2.400000
 Hessian Updated using BFGS Update

   Using Lagrange Multiplier Algorithm


 25 Hessian modes will be used to form the next step
  Hessian Eigenvalues:
    -0.989420    0.045000    0.045011    0.078431    0.080850    0.083160
     0.084649    0.085033    0.086247    0.123418    0.160000    0.162333
     0.167315    0.179319    0.223399    0.233634    0.318052    0.330586
     0.337374    0.342659    0.345026    0.347221    0.349451    0.351497
     1.011531

 Minimum Search - Taking P-RFO Step
 Searching for Lamda that Maximizes Along the Constraint modes Only
 Value Taken    Lamda =   0.00000882
 Searching for Lamda that Minimizes Along All other modes
 Value Taken    Lamda =  -0.00025352
 Step Taken.  Stepsize is  0.041264

                             Maximum     Tolerance    Cnvgd?
         Gradient            0.007951       0.000300      NO
         Displacement        0.029112       0.001200      NO
         Energy change      0.007194       0.000001      NO


 New Cartesian Coordinates Obtained by Inverse Iteration

 Displacement from previous Coordinates is:  0.031570
 ----------------------------------------------------------------
             Standard Nuclear Orientation (Angstroms)
    I     Atom           X                Y                Z
 ----------------------------------------------------------------
    1      Br     -0.7096758703     2.0640538478     0.2449447386
    2      Br      2.3999598884    -0.1723329201    -0.2641646517
    3      C      -0.5204135507    -0.2471916237    -0.3733754595
    4      C       0.6573896028    -0.7994285036     0.3740306459
    5      C      -1.8479221407    -0.8622276847    -0.0213710176
    6      H      -0.3507984897    -0.0932047760    -1.4360883406
    7      H       0.6061862178    -0.5785355268     1.4390809846
    8      H       0.6707677895    -1.8854890148     0.2340306669
    9      H      -2.0193488018    -0.8695789223     1.0577366392
   10      H      -2.6694877211    -0.3326209528    -0.5056486771
   11      H      -1.8518569242    -1.9024439229    -0.3783775286
 ----------------------------------------------------------------
 Nuclear Repulsion Energy =   539.5594959871 hartrees
 There are       47 alpha and       47 beta electrons

                       Distance Matrix (Angstroms)
             Br(  1)   Br(  2)   C (  3)   C (  4)   C (  5)   H (  6)
   Br(  2)  3.863994
   C (  3)  2.399999  2.923373
   C (  4)  3.175699  1.958850  1.500267
   C (  5)  3.151135  4.310383  1.504811  2.537099
   H (  6)  2.758338  2.991043  1.087125  2.189001  2.198682
   H (  7)  3.184452  2.506725  2.159633  1.088920  2.869852  3.068870
   H (  8)  4.183854  2.484594  2.114680  1.095128  2.730585  2.654275
   H (  9)  3.313921  4.665176  2.163852  2.763567  1.092664  3.099352
   H ( 10)  3.185640  5.077726  2.154835  3.472731  1.090861  2.509852
   H ( 11)  4.174472  4.591762  2.124294  2.842372  1.099781  2.577843
             H (  7)   H (  8)   H (  9)   H ( 10)
   H (  8)  1.778889
   H (  9)  2.669001  2.991202
   H ( 10)  3.817393  3.757104  1.776282
   H ( 11)  3.331346  2.595952  1.776876  1.774560
 
 Applying Cartesian multipole field
    Component          Value
    ---------          -----
     (2,0,0)        1.00000E-11
     (0,2,0)        2.00000E-11
     (0,0,2)       -3.00000E-10
 Nucleus-field energy     =     0.0000000084 hartrees
 Requested basis set is 6-31G(d,p)
 There are 46 shells and 145 basis functions
 A cutoff of  1.0D-14 yielded    971 shell pairs
 There are      9688 function pairs
 Smallest overlap matrix eigenvalue = 7.22E-04
 Guess from superposition of atomic densities
 Warning:  Energy on first SCF cycle will be non-variational
 SAD guess density has 93.945746 electrons

 -----------------------------------------------------------------------
  General SCF calculation program by
  Eric Jon Sundstrom, Paul Horn, Yuezhi Mao, Dmitri Zuev, Alec White,
  David Stuck, Shaama M.S., Shane Yost, Joonho Lee, David Small,
  Daniel Levine, Susi Lehtola, Hugh Burton, Evgeny Epifanovsky
 -----------------------------------------------------------------------
 Exchange:     0.2000 Hartree-Fock + 0.0800 Slater + 0.7200 B88
 Correlation:  0.1900 VWN1RPA + 0.8100 LYP
 Using SG-1 standard quadrature grid
 using 12 threads for integral computing
 -------------------------------------------------------
 OpenMP Integral computing Module                
 Release: version 1.0, May 2013, Q-Chem Inc. Pittsburgh 
 -------------------------------------------------------
 -------------------------------------------------------
 OpenMP BLAS3 based DFT computing Module                
 Release: version 1.0, May 2013, Q-Chem Inc. Pittsburgh 
 -------------------------------------------------------
 A unrestricted SCF calculation will be
 performed using DIIS
 SCF converges when DIIS error is below 1.0e-06
 Alpha HF Exchange    Energy = -19.62288007252778
 Beta HF Exchange     Energy = -19.62288007252778
 DFT Correlation      Energy =  -5.20562681287513
 DFT Exchange         Energy = -155.89313023290714
 One-Electron (alpha) Energy = -4195.95894336864967
 One-Electron (beta)  Energy = -4195.95894336864967
 Total Coulomb        Energy = 2779.80136789940889
 ---------------------------------------
  Cycle       Energy         DIIS error
 ---------------------------------------
    1   -5272.9015400332      1.83e-01  
 Alpha HF Exchange    Energy = -19.73200581342458
 Beta HF Exchange     Energy = -19.73200581342456
 DFT Correlation      Energy =  -5.25517022054510
 DFT Exchange         Energy = -157.04772922777377
 One-Electron (alpha) Energy = -4206.82946617026209
 One-Electron (beta)  Energy = -4206.82946617026028
 Total Coulomb        Energy = 2810.32629912535458
    2   -5265.5400482948      1.04e-02  
 Alpha HF Exchange    Energy = -19.58999067142535
 Beta HF Exchange     Energy = -19.58999067142534
 DFT Correlation      Energy =  -5.22172413106081
 DFT Exchange         Energy = -155.94231138173882
 One-Electron (alpha) Energy = -4189.44440443310305
 One-Electron (beta)  Energy = -4189.44440443310305
 Total Coulomb        Energy = 2774.24288258842535
    3   -5265.4304471379      5.27e-03  
 Alpha HF Exchange    Energy = -19.70364285080386
 Beta HF Exchange     Energy = -19.70364285080386
 DFT Correlation      Energy =  -5.24111213173741
 DFT Exchange         Energy = -156.78638588435970
 One-Electron (alpha) Energy = -4203.93240735608106
 One-Electron (beta)  Energy = -4203.93240735608379
 Total Coulomb        Energy = 2804.28196027979402
    4   -5265.4581421545      4.59e-03  
 Alpha HF Exchange    Energy = -19.66970970932788
 Beta HF Exchange     Energy = -19.66970970932786
 DFT Correlation      Energy =  -5.24137066161324
 DFT Exchange         Energy = -156.56682465626579
 One-Electron (alpha) Energy = -4199.57852184876810
 One-Electron (beta)  Energy = -4199.57852184876629
 Total Coulomb        Energy = 2795.06749796223403
    5   -5265.6776644763      1.18e-03  
 Alpha HF Exchange    Energy = -19.65833287898421
 Beta HF Exchange     Energy = -19.65833287898419
 DFT Correlation      Energy =  -5.23631047603094
 DFT Exchange         Energy = -156.46645169840843
 One-Electron (alpha) Energy = -4198.60168810983487
 One-Electron (beta)  Energy = -4198.60168810983305
 Total Coulomb        Energy = 2792.97078515004023
    6   -5265.6925230065      2.25e-04  
 Alpha HF Exchange    Energy = -19.65871019199462
 Beta HF Exchange     Energy = -19.65871019199463
 DFT Correlation      Energy =  -5.23665253755783
 DFT Exchange         Energy = -156.47130564503865
 One-Electron (alpha) Energy = -4198.49240007809476
 One-Electron (beta)  Energy = -4198.49240007809749
 Total Coulomb        Energy = 2792.75761267220787
    7   -5265.6930700550      9.12e-05  
 Alpha HF Exchange    Energy = -19.65931888952942
 Beta HF Exchange     Energy = -19.65931888952940
 DFT Correlation      Energy =  -5.23673911295786
 DFT Exchange         Energy = -156.47572586934507
 One-Electron (alpha) Energy = -4198.59945617180711
 One-Electron (beta)  Energy = -4198.59945617180438
 Total Coulomb        Energy = 2792.97736670766244
    8   -5265.6931524018      2.30e-05  
 Alpha HF Exchange    Energy = -19.65937581785072
 Beta HF Exchange     Energy = -19.65937581785074
 DFT Correlation      Energy =  -5.23677184235415
 DFT Exchange         Energy = -156.47610685779995
 One-Electron (alpha) Energy = -4198.61125271098990
 One-Electron (beta)  Energy = -4198.61125271099263
 Total Coulomb        Energy = 2793.00148105368771
    9   -5265.6931587086      3.44e-06  
 Alpha HF Exchange    Energy = -19.65937703684967
 Beta HF Exchange     Energy = -19.65937703684966
 DFT Correlation      Energy =  -5.23677296671652
 DFT Exchange         Energy = -156.47611117201467
 One-Electron (alpha) Energy = -4198.61069660522935
 One-Electron (beta)  Energy = -4198.61069660523026
 Total Coulomb        Energy = 2793.00037661488341
   10   -5265.6931588125      1.58e-06  
 Alpha HF Exchange    Energy = -19.65937936413888
 Beta HF Exchange     Energy = -19.65937936413883
 DFT Correlation      Energy =  -5.23677221197170
 DFT Exchange         Energy = -156.47612705715318
 One-Electron (alpha) Energy = -4198.61138470707738
 One-Electron (beta)  Energy = -4198.61138470707374
 Total Coulomb        Energy = 2793.00177257891710
   11   -5265.6931588371      2.59e-07  Convergence criterion met
 ---------------------------------------
 SCF time:   CPU 44.54s  wall 4.00s 
<S^2> =          0.000000000
 Alpha HF Exchange    Energy = -19.65937936413888
 Beta HF Exchange     Energy = -19.65937936413883
 DFT Correlation      Energy =  -5.23677221197170
 DFT Exchange         Energy = -156.47612705715318
 One-Electron (alpha) Energy = -4198.61138470707738
 One-Electron (beta)  Energy = -4198.61138470707374
 Total Coulomb        Energy = 2793.00177257891710
 Nuclear repulsion Energy = 539.55949599554970
 SCF   energy in the final basis set =    -5265.6931588371
 Total energy in the final basis set =    -5265.6931588371
 
 --------------------------------------------------------------
 
                    Orbital Energies (a.u.)
 --------------------------------------------------------------
 
 Alpha MOs
 -- Occupied --
*******-482.833 -62.523 -62.491 -56.344 -56.340 -56.340 -56.312
-56.308 -56.308 -10.294 -10.272 -10.221  -8.710  -8.677  -6.541
 -6.527  -6.527  -6.506  -6.494  -6.494  -2.634  -2.630  -2.630
 -2.619  -2.619  -2.599  -2.596  -2.596  -2.587  -2.587  -0.858
 -0.792  -0.725  -0.702  -0.615  -0.499  -0.477  -0.457  -0.439
 -0.401  -0.384  -0.314  -0.292  -0.289  -0.267  -0.263
 -- Virtual --
 -0.092  -0.020   0.074   0.105   0.113   0.135   0.145   0.150
  0.188   0.211   0.226   0.250   0.324   0.325   0.341   0.351
  0.363   0.411   0.437   0.475   0.485   0.508   0.523   0.558
  0.575   0.598   0.626   0.633   0.654   0.664   0.684   0.716
  0.745   0.782   0.806   0.830   0.848   0.855   0.871   0.878
  0.895   0.930   0.977   1.096   1.307   1.318   1.357   1.419
  1.552   1.637   1.717   1.739   1.821   1.844   1.851   1.900
  1.988   2.008   2.040   2.064   2.079   2.142   2.218   2.228
  2.317   2.414   2.485   2.540   2.585   2.601   2.670   2.732
  2.804   2.839   2.868   3.164   3.217   3.297   3.410   3.420
  3.428   4.177   4.395   4.539   4.716   4.721   4.747   4.751
  4.768   4.778   4.801   4.814   4.914   4.974   6.287   6.315
 90.285  90.387
 
 Beta MOs
 -- Occupied --
*******-482.833 -62.523 -62.491 -56.344 -56.340 -56.340 -56.312
-56.308 -56.308 -10.294 -10.272 -10.221  -8.710  -8.677  -6.541
 -6.527  -6.527  -6.506  -6.494  -6.494  -2.634  -2.630  -2.630
 -2.619  -2.619  -2.599  -2.596  -2.596  -2.587  -2.587  -0.858
 -0.792  -0.725  -0.702  -0.615  -0.499  -0.477  -0.457  -0.439
 -0.401  -0.384  -0.314  -0.292  -0.289  -0.267  -0.263
 -- Virtual --
 -0.092  -0.020   0.074   0.105   0.113   0.135   0.145   0.150
  0.188   0.211   0.226   0.250   0.324   0.325   0.341   0.351
  0.363   0.411   0.437   0.475   0.485   0.508   0.523   0.558
  0.575   0.598   0.626   0.633   0.654   0.664   0.684   0.716
  0.745   0.782   0.806   0.830   0.848   0.855   0.871   0.878
  0.895   0.930   0.977   1.096   1.307   1.318   1.357   1.419
  1.552   1.637   1.717   1.739   1.821   1.844   1.851   1.900
  1.988   2.008   2.040   2.064   2.079   2.142   2.218   2.228
  2.317   2.414   2.485   2.540   2.585   2.601   2.670   2.732
  2.804   2.839   2.868   3.164   3.217   3.297   3.410   3.420
  3.428   4.177   4.395   4.539   4.716   4.721   4.747   4.751
  4.768   4.778   4.801   4.814   4.914   4.974   6.287   6.315
 90.285  90.387
 --------------------------------------------------------------
 
          Ground-State Mulliken Net Atomic Charges

     Atom                 Charge (a.u.)    Spin (a.u.)
  --------------------------------------------------------
      1 Br                   -0.253539      -0.000000
      2 Br                   -0.063199       0.000000
      3 C                    -0.070799       0.000000
      4 C                    -0.254436      -0.000000
      5 C                    -0.329912       0.000000
      6 H                     0.181909      -0.000000
      7 H                     0.187694       0.000000
      8 H                     0.166446      -0.000000
      9 H                     0.146084      -0.000000
     10 H                     0.159351      -0.000000
     11 H                     0.130401      -0.000000
  --------------------------------------------------------
  Sum of atomic charges =     0.000000
  Sum of spin   charges =    -0.000000

 -----------------------------------------------------------------
                    Cartesian Multipole Moments
 -----------------------------------------------------------------
    Charge (ESU x 10^10)
                -0.0000
    Dipole Moment (Debye)
         X      -1.5600      Y      -4.1509      Z      -0.1554
       Tot       4.4371
    Quadrupole Moments (Debye-Ang)
        XX     -58.1353     XY       3.2498     YY     -59.3988
        XZ       0.9610     YZ      -0.7922     ZZ     -55.3280
    Octopole Moments (Debye-Ang^2)
       XXX     -59.5506    XXY     -22.3041    XYY     -16.6695
       YYY     -74.4125    XXZ      -2.8007    XYZ      -1.0753
       YYZ       1.2017    XZZ     -18.8095    YZZ     -23.6705
       ZZZ       0.6245
    Hexadecapole Moments (Debye-Ang^3)
      XXXX    -917.7251   XXXY      97.3337   XXYY    -269.5802
      XYYY      79.0992   YYYY    -609.1231   XXXZ      25.4920
      XXYZ     -11.8821   XYYZ      11.5625   YYYZ     -18.0564
      XXZZ    -176.0810   XYZZ      27.7876   YYZZ    -125.7882
      XZZZ      36.0300   YZZZ     -28.1531   ZZZZ    -105.8437
 -----------------------------------------------------------------
 Calculating analytic gradient of the SCF energy
 Gradient of SCF Energy
            1           2           3           4           5           6
    1  -0.0031116   0.0001540   0.0028281   0.0000350  -0.0001116   0.0000738
    2   0.0383677   0.0002177  -0.0326467  -0.0023644  -0.0023533  -0.0020762
    3   0.0103935  -0.0000488  -0.0092322  -0.0003033  -0.0006980  -0.0003602
            7           8           9          10          11
    1   0.0000934   0.0001241  -0.0000363  -0.0000785   0.0000296
    2   0.0001661   0.0002884   0.0001366   0.0000784   0.0001857
    3  -0.0000182  -0.0000689   0.0000769   0.0001138   0.0001456
 Max gradient component =       3.837E-02
 RMS gradient           =       9.154E-03
 Gradient time:  CPU 16.76 s  wall 1.46 s
 Geometry Optimization Parameters
   NAtoms,    NIC,     NZ,  NCons,   NDum,   NFix, NCnnct, MaxDiis
       11      68       0       1       0       0       0       0

 Cartesian Hessian Update
 Hessian Updated using BFGS Update


** CONSTRAINED OPTIMIZATION IN DELOCALIZED INTERNAL COORDINATES **
   Searching for a Minimum

   Optimization Cycle:   3

                       Coordinates (Angstroms)
     ATOM                X               Y               Z
      1  Br       -0.7096758703    2.0640538478    0.2449447386
      2  Br        2.3999598884   -0.1723329201   -0.2641646517
      3  C        -0.5204135507   -0.2471916237   -0.3733754595
      4  C         0.6573896028   -0.7994285036    0.3740306459
      5  C        -1.8479221407   -0.8622276847   -0.0213710176
      6  H        -0.3507984897   -0.0932047760   -1.4360883406
      7  H         0.6061862178   -0.5785355268    1.4390809846
      8  H         0.6707677895   -1.8854890148    0.2340306669
      9  H        -2.0193488018   -0.8695789223    1.0577366392
     10  H        -2.6694877211   -0.3326209528   -0.5056486771
     11  H        -1.8518569242   -1.9024439229   -0.3783775286
   Point Group: c1    Number of degrees of freedom:    27


   Energy is  -5265.693158837

              Constraints and their Current Values
                                        Value     Constraint
   Distance(Angs):        1   3             2.399999     2.400000
 Hessian Updated using BFGS Update

   Using Lagrange Multiplier Algorithm


 26 Hessian modes will be used to form the next step
  Hessian Eigenvalues:
    -0.986778    0.032589    0.045029    0.045239    0.079973    0.082214
     0.084579    0.084912    0.085977    0.123390    0.159962    0.160000
     0.166956    0.172450    0.179103    0.223125    0.225478    0.317072
     0.324673    0.338308    0.343380    0.345189    0.347796    0.349755
     0.351899    1.014624

 Minimum Search - Taking P-RFO Step
 Searching for Lamda that Maximizes Along the Constraint modes Only
 Value Taken    Lamda =   0.00000000
 Searching for Lamda that Minimizes Along All other modes
 Value Taken    Lamda =  -0.00019313
 Step Taken.  Stepsize is  0.075242

                             Maximum     Tolerance    Cnvgd?
         Gradient            0.001787       0.000300      NO
         Displacement        0.055760       0.001200      NO
         Energy change      0.000010       0.000001      NO


 New Cartesian Coordinates Obtained by Inverse Iteration

 Displacement from previous Coordinates is:  0.063054
 ----------------------------------------------------------------
             Standard Nuclear Orientation (Angstroms)
    I     Atom           X                Y                Z
 ----------------------------------------------------------------
    1      Br     -0.7107225926     2.0484112076     0.2432773885
    2      Br      2.3986516576    -0.1636185408    -0.2626509726
    3      C      -0.5187111651    -0.2619120505    -0.3776392049
    4      C       0.6601528506    -0.7989352583     0.3741479019
    5      C      -1.8494219590    -0.8602942702    -0.0211559227
    6      H      -0.3505684557    -0.0882861093    -1.4372652088
    7      H       0.6035518588    -0.5765199367     1.4384530285
    8      H       0.6819345946    -1.8863788495     0.2385223053
    9      H      -2.0171880417    -0.8684369480     1.0582614268
   10      H      -2.6663001984    -0.3222416531    -0.5034140822
   11      H      -1.8665785492    -1.9007875913    -0.3797386598
 ----------------------------------------------------------------
 Nuclear Repulsion Energy =   540.7590769217 hartrees
 There are       47 alpha and       47 beta electrons

                       Distance Matrix (Angstroms)
             Br(  1)   Br(  2)   C (  3)   C (  4)   C (  5)   H (  6)
   Br(  2)  3.849318
   C (  3)  2.400000  2.921282
   C (  4)  3.162880  1.957426  1.497764
   C (  5)  3.134825  4.311590  1.501976  2.541259
   H (  6)  2.742154  2.990586  1.086842  2.192669  2.201800
   H (  7)  3.169547  2.507314  2.157926  1.088769  2.868461  3.068953
   H (  8)  4.173978  2.483182  2.111894  1.096085  2.743729  2.665983
   H (  9)  3.298341  4.662748  2.162202  2.764235  1.092407  3.100630
   H ( 10)  3.162567  5.073151  2.152115  3.473131  1.090579  2.507873
   H ( 11)  4.161769  4.606914  2.121948  2.857761  1.100683  2.588786
             H (  7)   H (  8)   H (  9)   H ( 10)
   H (  8)  1.778119
   H (  9)  2.664214  2.998907
   H ( 10)  3.811488  3.769306  1.777219
   H ( 11)  3.340816  2.622475  1.776591  1.773882
 
 Applying Cartesian multipole field
    Component          Value
    ---------          -----
     (2,0,0)        1.00000E-11
     (0,2,0)        2.00000E-11
     (0,0,2)       -3.00000E-10
 Nucleus-field energy     =     0.0000000083 hartrees
 Requested basis set is 6-31G(d,p)
 There are 46 shells and 145 basis functions
 A cutoff of  1.0D-14 yielded    972 shell pairs
 There are      9706 function pairs
 Smallest overlap matrix eigenvalue = 7.22E-04
 Guess from superposition of atomic densities
 Warning:  Energy on first SCF cycle will be non-variational
 SAD guess density has 93.945746 electrons

 -----------------------------------------------------------------------
  General SCF calculation program by
  Eric Jon Sundstrom, Paul Horn, Yuezhi Mao, Dmitri Zuev, Alec White,
  David Stuck, Shaama M.S., Shane Yost, Joonho Lee, David Small,
  Daniel Levine, Susi Lehtola, Hugh Burton, Evgeny Epifanovsky
 -----------------------------------------------------------------------
 Exchange:     0.2000 Hartree-Fock + 0.0800 Slater + 0.7200 B88
 Correlation:  0.1900 VWN1RPA + 0.8100 LYP
 Using SG-1 standard quadrature grid
 using 12 threads for integral computing
 -------------------------------------------------------
 OpenMP Integral computing Module                
 Release: version 1.0, May 2013, Q-Chem Inc. Pittsburgh 
 -------------------------------------------------------
 -------------------------------------------------------
 OpenMP BLAS3 based DFT computing Module                
 Release: version 1.0, May 2013, Q-Chem Inc. Pittsburgh 
 -------------------------------------------------------
 A unrestricted SCF calculation will be
 performed using DIIS
 SCF converges when DIIS error is below 1.0e-06
 Alpha HF Exchange    Energy = -19.62358415338814
 Beta HF Exchange     Energy = -19.62358415338814
 DFT Correlation      Energy =  -5.20586867112194
 DFT Exchange         Energy = -155.89452341665648
 One-Electron (alpha) Energy = -4197.15547637924465
 One-Electron (beta)  Energy = -4197.15547637924465
 Total Coulomb        Energy = 2780.98795570007496
 ---------------------------------------
  Cycle       Energy         DIIS error
 ---------------------------------------
    1   -5272.9114805230      1.83e-01  
 Alpha HF Exchange    Energy = -19.73244759018597
 Beta HF Exchange     Energy = -19.73244759018599
 DFT Correlation      Energy =  -5.25545224999302
 DFT Exchange         Energy = -157.05067140866112
 One-Electron (alpha) Energy = -4208.06987544339972
 One-Electron (beta)  Energy = -4208.06987544340245
 Total Coulomb        Energy = 2811.61248681517645
    2   -5265.5392059807      1.04e-02  
 Alpha HF Exchange    Energy = -19.59002102291372
 Beta HF Exchange     Energy = -19.59002102291370
 DFT Correlation      Energy =  -5.22194038419324
 DFT Exchange         Energy = -155.94260509981757
 One-Electron (alpha) Energy = -4190.57848439829286
 One-Electron (beta)  Energy = -4190.57848439829195
 Total Coulomb        Energy = 2775.31717035347265
    3   -5265.4253090430      5.31e-03  
 Alpha HF Exchange    Energy = -19.70392418498207
 Beta HF Exchange     Energy = -19.70392418498211
 DFT Correlation      Energy =  -5.24133569986584
 DFT Exchange         Energy = -156.78806116910528
 One-Electron (alpha) Energy = -4205.16538287490221
 One-Electron (beta)  Energy = -4205.16538287490494
 Total Coulomb        Energy = 2805.55256774635018
    4   -5265.4563663124      4.61e-03  
 Alpha HF Exchange    Energy = -19.67002391131208
 Beta HF Exchange     Energy = -19.67002391131205
 DFT Correlation      Energy =  -5.24164226975905
 DFT Exchange         Energy = -156.56906109587021
 One-Electron (alpha) Energy = -4200.79862647896152
 One-Electron (beta)  Energy = -4200.79862647895970
 Total Coulomb        Energy = 2796.31099021173259
    5   -5265.6779370045      1.17e-03  
 Alpha HF Exchange    Energy = -19.65856031910347
 Beta HF Exchange     Energy = -19.65856031910346
 DFT Correlation      Energy =  -5.23653791709904
 DFT Exchange         Energy = -156.46793087852024
 One-Electron (alpha) Energy = -4199.80580319035744
 One-Electron (beta)  Energy = -4199.80580319035471
 Total Coulomb        Energy = 2794.18153520307487
    6   -5265.6925836815      2.33e-04  
 Alpha HF Exchange    Energy = -19.65898018772417
 Beta HF Exchange     Energy = -19.65898018772419
 DFT Correlation      Energy =  -5.23690638378253
 DFT Exchange         Energy = -156.47319622456772
 One-Electron (alpha) Energy = -4199.70125594032925
 One-Electron (beta)  Energy = -4199.70125594033289
 Total Coulomb        Energy = 2793.97832576410428
    7   -5265.6931721704      9.26e-05  
 Alpha HF Exchange    Energy = -19.65959618793673
 Beta HF Exchange     Energy = -19.65959618793672
 DFT Correlation      Energy =  -5.23699530540883
 DFT Exchange         Energy = -156.47767228413193
 One-Electron (alpha) Energy = -4199.80826415899901
 One-Electron (beta)  Energy = -4199.80826415899810
 Total Coulomb        Energy = 2794.19805544046221
    8   -5265.6932559130      2.32e-05  
 Alpha HF Exchange    Energy = -19.65965359732435
 Beta HF Exchange     Energy = -19.65965359732435
 DFT Correlation      Energy =  -5.23702755721886
 DFT Exchange         Energy = -156.47805239101191
 One-Electron (alpha) Energy = -4199.82046825906491
 One-Electron (beta)  Energy = -4199.82046825906582
 Total Coulomb        Energy = 2794.22298434282220
    9   -5265.6932623882      3.46e-06  
 Alpha HF Exchange    Energy = -19.65965504380395
 Beta HF Exchange     Energy = -19.65965504380396
 DFT Correlation      Energy =  -5.23702879416049
 DFT Exchange         Energy = -156.47805842919109
 One-Electron (alpha) Energy = -4199.81993708923619
 One-Electron (beta)  Energy = -4199.81993708923892
 Total Coulomb        Energy = 2794.22193206523662
   10   -5265.6932624942      1.57e-06  
 Alpha HF Exchange    Energy = -19.65965728583858
 Beta HF Exchange     Energy = -19.65965728583862
 DFT Correlation      Energy =  -5.23702798851449
 DFT Exchange         Energy = -156.47807367682384
 One-Electron (alpha) Energy = -4199.82059976570235
 One-Electron (beta)  Energy = -4199.82059976570599
 Total Coulomb        Energy = 2794.22327632024144
   11   -5265.6932625182      2.63e-07  Convergence criterion met
 ---------------------------------------
 SCF time:   CPU 44.92s  wall 3.00s 
<S^2> =          0.000000000
 Alpha HF Exchange    Energy = -19.65965728583858
 Beta HF Exchange     Energy = -19.65965728583862
 DFT Correlation      Energy =  -5.23702798851449
 DFT Exchange         Energy = -156.47807367682384
 One-Electron (alpha) Energy = -4199.82059976570235
 One-Electron (beta)  Energy = -4199.82059976570599
 Total Coulomb        Energy = 2794.22327632024144
 Nuclear repulsion Energy = 540.75907692995679
 SCF   energy in the final basis set =    -5265.6932625182
 Total energy in the final basis set =    -5265.6932625182
 
 --------------------------------------------------------------
 
                    Orbital Energies (a.u.)
 --------------------------------------------------------------
 
 Alpha MOs
 -- Occupied --
*******-482.832 -62.523 -62.490 -56.344 -56.341 -56.340 -56.311
-56.307 -56.307 -10.294 -10.272 -10.221  -8.710  -8.675  -6.541
 -6.527  -6.527  -6.505  -6.493  -6.493  -2.634  -2.631  -2.630
 -2.620  -2.619  -2.598  -2.595  -2.595  -2.586  -2.586  -0.859
 -0.792  -0.724  -0.702  -0.615  -0.499  -0.478  -0.458  -0.440
 -0.401  -0.385  -0.312  -0.293  -0.289  -0.266  -0.263
 -- Virtual --
 -0.092  -0.020   0.074   0.104   0.113   0.134   0.144   0.150
  0.189   0.213   0.227   0.251   0.324   0.326   0.341   0.353
  0.364   0.411   0.436   0.476   0.484   0.508   0.522   0.557
  0.576   0.598   0.627   0.634   0.653   0.665   0.686   0.718
  0.746   0.782   0.806   0.830   0.847   0.855   0.872   0.878
  0.895   0.929   0.977   1.098   1.307   1.320   1.355   1.418
  1.550   1.637   1.717   1.742   1.821   1.848   1.852   1.900
  1.985   2.008   2.040   2.064   2.080   2.145   2.218   2.230
  2.317   2.415   2.481   2.541   2.586   2.601   2.667   2.735
  2.805   2.839   2.869   3.164   3.216   3.300   3.411   3.420
  3.425   4.178   4.395   4.538   4.716   4.721   4.748   4.752
  4.769   4.779   4.801   4.815   4.916   4.974   6.287   6.317
 90.289  90.388
 
 Beta MOs
 -- Occupied --
*******-482.832 -62.523 -62.490 -56.344 -56.341 -56.340 -56.311
-56.307 -56.307 -10.294 -10.272 -10.221  -8.710  -8.675  -6.541
 -6.527  -6.527  -6.505  -6.493  -6.493  -2.634  -2.631  -2.630
 -2.620  -2.619  -2.598  -2.595  -2.595  -2.586  -2.586  -0.859
 -0.792  -0.724  -0.702  -0.615  -0.499  -0.478  -0.458  -0.440
 -0.401  -0.385  -0.312  -0.293  -0.289  -0.266  -0.263
 -- Virtual --
 -0.092  -0.020   0.074   0.104   0.113   0.134   0.144   0.150
  0.189   0.213   0.227   0.251   0.324   0.326   0.341   0.353
  0.364   0.411   0.436   0.476   0.484   0.508   0.522   0.557
  0.576   0.598   0.627   0.634   0.653   0.665   0.686   0.718
  0.746   0.782   0.806   0.830   0.847   0.855   0.872   0.878
  0.895   0.929   0.977   1.098   1.307   1.320   1.355   1.418
  1.550   1.637   1.717   1.742   1.821   1.848   1.852   1.900
  1.985   2.008   2.040   2.064   2.080   2.145   2.218   2.230
  2.317   2.415   2.481   2.541   2.586   2.601   2.667   2.735
  2.805   2.839   2.869   3.164   3.216   3.300   3.411   3.420
  3.425   4.178   4.395   4.538   4.716   4.721   4.748   4.752
  4.769   4.779   4.801   4.815   4.916   4.974   6.287   6.317
 90.289  90.388
 --------------------------------------------------------------
 
          Ground-State Mulliken Net Atomic Charges

     Atom                 Charge (a.u.)    Spin (a.u.)
  --------------------------------------------------------
      1 Br                   -0.258592      -0.000000
      2 Br                   -0.061726      -0.000000
      3 C                    -0.070952      -0.000000
      4 C                    -0.254145       0.000000
      5 C                    -0.329165       0.000000
      6 H                     0.183409       0.000000
      7 H                     0.188161       0.000000
      8 H                     0.166224      -0.000000
      9 H                     0.146440      -0.000000
     10 H                     0.160351      -0.000000
     11 H                     0.129995      -0.000000
  --------------------------------------------------------
  Sum of atomic charges =     0.000000
  Sum of spin   charges =    -0.000000

 -----------------------------------------------------------------
                    Cartesian Multipole Moments
 -----------------------------------------------------------------
    Charge (ESU x 10^10)
                -0.0000
    Dipole Moment (Debye)
         X      -1.5407      Y      -4.1852      Z      -0.1667
       Tot       4.4629
    Quadrupole Moments (Debye-Ang)
        XX     -58.0688     XY       3.2613     YY     -59.4565
        XZ       0.9638     YZ      -0.8193     ZZ     -55.3029
    Octopole Moments (Debye-Ang^2)
       XXX     -59.4170    XXY     -22.1528    XYY     -16.5408
       YYY     -74.1129    XXZ      -2.7906    XYZ      -1.0735
       YYZ       1.1929    XZZ     -18.7809    YZZ     -23.5006
       ZZZ       0.6565
    Hexadecapole Moments (Debye-Ang^3)
      XXXX    -917.2070   XXXY      95.8658   XXYY    -268.1536
      XYYY      77.5597   YYYY    -602.9303   XXXZ      25.2130
      XXYZ     -11.7922   XYYZ      11.4646   YYYZ     -17.7693
      XXZZ    -176.0166   XYZZ      27.2547   YYZZ    -124.5643
      XZZZ      35.7070   YZZZ     -27.7364   ZZZZ    -105.7036
 -----------------------------------------------------------------
 Calculating analytic gradient of the SCF energy
 Gradient of SCF Energy
            1           2           3           4           5           6
    1  -0.0031142  -0.0000904   0.0030109  -0.0000719   0.0000985  -0.0000386
    2   0.0368911   0.0001013  -0.0367595   0.0001966   0.0002069  -0.0004593
    3   0.0101010   0.0000596  -0.0096599  -0.0000520   0.0000233  -0.0001653
            7           8           9          10          11
    1   0.0001192   0.0000043  -0.0000543  -0.0000159   0.0001525
    2  -0.0000613  -0.0000104  -0.0000281  -0.0000447  -0.0000325
    3  -0.0000405  -0.0002268  -0.0000137   0.0000579  -0.0000836
 Max gradient component =       3.689E-02
 RMS gradient           =       9.418E-03
 Gradient time:  CPU 16.81 s  wall 1.47 s
 Geometry Optimization Parameters
   NAtoms,    NIC,     NZ,  NCons,   NDum,   NFix, NCnnct, MaxDiis
       11      68       0       1       0       0       0       0

 Cartesian Hessian Update
 Hessian Updated using BFGS Update


** CONSTRAINED OPTIMIZATION IN DELOCALIZED INTERNAL COORDINATES **
   Searching for a Minimum

   Optimization Cycle:   4

                       Coordinates (Angstroms)
     ATOM                X               Y               Z
      1  Br       -0.7107225926    2.0484112076    0.2432773885
      2  Br        2.3986516576   -0.1636185408   -0.2626509726
      3  C        -0.5187111651   -0.2619120505   -0.3776392049
      4  C         0.6601528506   -0.7989352583    0.3741479019
      5  C        -1.8494219590   -0.8602942702   -0.0211559227
      6  H        -0.3505684557   -0.0882861093   -1.4372652088
      7  H         0.6035518588   -0.5765199367    1.4384530285
      8  H         0.6819345946   -1.8863788495    0.2385223053
      9  H        -2.0171880417   -0.8684369480    1.0582614268
     10  H        -2.6663001984   -0.3222416531   -0.5034140822
     11  H        -1.8665785492   -1.9007875913   -0.3797386598
   Point Group: c1    Number of degrees of freedom:    27


   Energy is  -5265.693262518

              Constraints and their Current Values
                                        Value     Constraint
   Distance(Angs):        1   3             2.400000     2.400000
 Hessian Updated using BFGS Update

 25 Hessian modes will be used to form the next step
  Hessian Eigenvalues:
     0.028226    0.045029    0.045765    0.079996    0.082254    0.084796
     0.085014    0.085983    0.123405    0.159979    0.160000    0.160185
     0.167326    0.172552    0.179131    0.223384    0.231406    0.317882
     0.329560    0.338488    0.343406    0.345195    0.347833    0.349752
     0.352104

 Minimum Search - Taking Simple RFO Step
 Searching for Lamda that Minimizes Along All modes
 Value Taken    Lamda =  -0.00000577
 Step Taken.  Stepsize is  0.011556

                             Maximum     Tolerance    Cnvgd?
         Gradient           0.000374      0.000300      NO
         Displacement       0.009098      0.001200      NO
         Energy change     -0.000104      0.000001      NO


 New Cartesian Coordinates Obtained by Inverse Iteration

 Displacement from previous Coordinates is:  0.010453
 ----------------------------------------------------------------
             Standard Nuclear Orientation (Angstroms)
    I     Atom           X                Y                Z
 ----------------------------------------------------------------
    1      Br     -0.7109959726     2.0475324935     0.2422437339
    2      Br      2.3992103779    -0.1640867731    -0.2626115344
    3      C      -0.5184742950    -0.2627946864    -0.3785002446
    4      C       0.6603167306    -0.7990930807     0.3740972609
    5      C      -1.8493680699    -0.8607442808    -0.0213086405
    6      H      -0.3504268875    -0.0852518281    -1.4373327304
    7      H       0.6020600316    -0.5757458854     1.4381784237
    8      H       0.6829110970    -1.8866968999     0.2401648016
    9      H      -2.0154580388    -0.8694219824     1.0583771132
   10      H      -2.6662244556    -0.3215858804    -0.5023990986
   11      H      -1.8687505177    -1.9011111963    -0.3801110846
 ----------------------------------------------------------------
 Nuclear Repulsion Energy =   540.7489853241 hartrees
 There are       47 alpha and       47 beta electrons

                       Distance Matrix (Angstroms)
             Br(  1)   Br(  2)   C (  3)   C (  4)   C (  5)   H (  6)
   Br(  2)  3.849613
   C (  3)  2.400000  2.921653
   C (  4)  3.162461  1.957647  1.497854
   C (  5)  3.134234  4.312073  1.502134  2.541390
   H (  6)  2.738568  2.991102  1.086687  2.193730  2.203029
   H (  7)  3.167959  2.508366  2.157280  1.088828  2.867198  3.068612
   H (  8)  4.173864  2.483114  2.112613  1.096052  2.744701  2.669642
   H (  9)  3.297926  4.661739  2.161845  2.762780  1.092420  3.100938
   H ( 10)  3.160717  5.073552  2.152124  3.473058  1.090593  2.508560
   H ( 11)  4.161671  4.609398  2.123047  2.859975  1.100672  2.592368
             H (  7)   H (  8)   H (  9)   H ( 10)
   H (  8)  1.777742
   H (  9)  2.661183  2.997585
   H ( 10)  3.809478  3.770634  1.777539
   H ( 11)  3.341807  2.626010  1.776275  1.773646
 
 Applying Cartesian multipole field
    Component          Value
    ---------          -----
     (2,0,0)        1.00000E-11
     (0,2,0)        2.00000E-11
     (0,0,2)       -3.00000E-10
 Nucleus-field energy     =     0.0000000083 hartrees
 Requested basis set is 6-31G(d,p)
 There are 46 shells and 145 basis functions
 A cutoff of  1.0D-14 yielded    972 shell pairs
 There are      9706 function pairs
 Smallest overlap matrix eigenvalue = 7.22E-04
 Guess from superposition of atomic densities
 Warning:  Energy on first SCF cycle will be non-variational
 SAD guess density has 93.945746 electrons

 -----------------------------------------------------------------------
  General SCF calculation program by
  Eric Jon Sundstrom, Paul Horn, Yuezhi Mao, Dmitri Zuev, Alec White,
  David Stuck, Shaama M.S., Shane Yost, Joonho Lee, David Small,
  Daniel Levine, Susi Lehtola, Hugh Burton, Evgeny Epifanovsky
 -----------------------------------------------------------------------
 Exchange:     0.2000 Hartree-Fock + 0.0800 Slater + 0.7200 B88
 Correlation:  0.1900 VWN1RPA + 0.8100 LYP
 Using SG-1 standard quadrature grid
 using 12 threads for integral computing
 -------------------------------------------------------
 OpenMP Integral computing Module                
 Release: version 1.0, May 2013, Q-Chem Inc. Pittsburgh 
 -------------------------------------------------------
 -------------------------------------------------------
 OpenMP BLAS3 based DFT computing Module                
 Release: version 1.0, May 2013, Q-Chem Inc. Pittsburgh 
 -------------------------------------------------------
 A unrestricted SCF calculation will be
 performed using DIIS
 SCF converges when DIIS error is below 1.0e-06
 Alpha HF Exchange    Energy = -19.62354109875911
 Beta HF Exchange     Energy = -19.62354109875911
 DFT Correlation      Energy =  -5.20586259531866
 DFT Exchange         Energy = -155.89444454433334
 One-Electron (alpha) Energy = -4197.14550953250182
 One-Electron (beta)  Energy = -4197.14550953250182
 Total Coulomb        Energy = 2780.97840108607443
 ---------------------------------------
  Cycle       Energy         DIIS error
 ---------------------------------------
    1   -5272.9110219837      1.83e-01  
 Alpha HF Exchange    Energy = -19.73244554638170
 Beta HF Exchange     Energy = -19.73244554638168
 DFT Correlation      Energy =  -5.25544420962708
 DFT Exchange         Energy = -157.05062753491075
 One-Electron (alpha) Energy = -4208.06183525060624
 One-Electron (beta)  Energy = -4208.06183525060624
 Total Coulomb        Energy = 2811.60651051466675
    2   -5265.5391374915      1.04e-02  
 Alpha HF Exchange    Energy = -19.58999852483908
[...]
             Standard Nuclear Orientation (Angstroms)
    I     Atom           X                Y                Z
 ----------------------------------------------------------------
    1      Br     -0.7126864579     2.0484945482     0.2444120807
    2      Br      2.3995341527    -0.1739837131    -0.2698737832
    3      C      -0.5186120320    -0.2612960642    -0.3778433372
    4      C       0.6599692506    -0.7983614002     0.3752221616
    5      C      -1.8487432745    -0.8628990907    -0.0233091377
    6      H      -0.3499126371    -0.0774541727    -1.4353473328
    7      H       0.6051366480    -0.5660058278     1.4376031309
    8      H       0.6775811913    -1.8870066481     0.2505538776
    9      H      -2.0141115975    -0.8760487606     1.0565317992
   10      H      -2.6666590274    -0.3225941390    -0.5012731480
   11      H      -1.8666962162    -1.9018447319    -0.3858783112
 ----------------------------------------------------------------
 Nuclear Repulsion Energy =   540.3469879072 hartrees
 There are       47 alpha and       47 beta electrons

                       Distance Matrix (Angstroms)
             Br(  1)   Br(  2)   C (  3)   C (  4)   C (  5)   H (  6)
   Br(  2)  3.858733
   C (  3)  2.400000  2.921448
   C (  4)  3.163208  1.957571  1.498199
   C (  5)  3.136640  4.310831  1.502288  2.540990
   H (  6)  2.733652  2.987826  1.086541  2.194933  2.203921
   H (  7)  3.161641  2.507792  2.156735  1.088875  2.871226  3.066700
   H (  8)  4.173853  2.484032  2.113929  1.095902  2.739729  2.678150
   H (  9)  3.302454  4.661815  2.161451  2.760603  1.092509  3.101092
   H ( 10)  3.161664  5.073652  2.152463  3.472903  1.090580  2.509961
   H ( 11)  4.163434  4.604311  2.123392  2.860243  1.100539  2.594305
             H (  7)   H (  8)   H (  9)   H ( 10)
   H (  8)  1.777464
   H (  9)  2.664921  2.986109
   H ( 10)  3.810923  3.767834  1.777326
   H ( 11)  3.349553  2.622711  1.776101  1.774060
 
 Applying Cartesian multipole field
    Component          Value
    ---------          -----
     (2,0,0)        1.00000E-11
     (0,2,0)        2.00000E-11
     (0,0,2)       -3.00000E-10
 Nucleus-field energy     =     0.0000000081 hartrees
 Requested basis set is 6-31G(d,p)
 There are 46 shells and 145 basis functions
 A cutoff of  1.0D-14 yielded    972 shell pairs
 There are      9706 function pairs
 Smallest overlap matrix eigenvalue = 7.22E-04
 Guess from superposition of atomic densities
 Warning:  Energy on first SCF cycle will be non-variational
 SAD guess density has 93.945746 electrons

 -----------------------------------------------------------------------
  General SCF calculation program by
  Eric Jon Sundstrom, Paul Horn, Yuezhi Mao, Dmitri Zuev, Alec White,
  David Stuck, Shaama M.S., Shane Yost, Joonho Lee, David Small,
  Daniel Levine, Susi Lehtola, Hugh Burton, Evgeny Epifanovsky
 -----------------------------------------------------------------------
 Exchange:     0.2000 Hartree-Fock + 0.0800 Slater + 0.7200 B88
 Correlation:  0.1900 VWN1RPA + 0.8100 LYP
 Using SG-1 standard quadrature grid
 using 12 threads for integral computing
 -------------------------------------------------------
 OpenMP Integral computing Module                
 Release: version 1.0, May 2013, Q-Chem Inc. Pittsburgh 
 -------------------------------------------------------
 -------------------------------------------------------
 OpenMP BLAS3 based DFT computing Module                
 Release: version 1.0, May 2013, Q-Chem Inc. Pittsburgh 
 -------------------------------------------------------
 A unrestricted SCF calculation will be
 performed using DIIS
 SCF converges when DIIS error is below 1.0e-06
 Alpha HF Exchange    Energy = -19.62350328935823
 Beta HF Exchange     Energy = -19.62350328935823
 DFT Correlation      Energy =  -5.20584637359042
 DFT Exchange         Energy = -155.89438007129917
 One-Electron (alpha) Energy = -4196.74387073138223
 One-Electron (beta)  Energy = -4196.74387073138223
 Total Coulomb        Energy = 2780.57873896532510
 ---------------------------------------
  Cycle       Energy         DIIS error
 ---------------------------------------
    1   -5272.9092476057      1.83e-01  
 Alpha HF Exchange    Energy = -19.73244020403191
 Beta HF Exchange     Energy = -19.73244020403190
 DFT Correlation      Energy =  -5.25542263328450
 DFT Exchange         Energy = -157.05057332645185
 One-Electron (alpha) Energy = -4207.65304978531549
 One-Electron (beta)  Energy = -4207.65304978531640
 Total Coulomb        Energy = 2811.19077039349668
    2   -5265.5392176296      1.04e-02  
 Alpha HF Exchange    Energy = -19.58999519602017
 Beta HF Exchange     Energy = -19.58999519602017
 DFT Correlation      Energy =  -5.22192637211141
 DFT Exchange         Energy = -155.94248392609285
 One-Electron (alpha) Energy = -4190.16476411520853
 One-Electron (beta)  Energy = -4190.16476411520762
 Total Coulomb        Energy = 2774.90245811591603
    3   -5265.4244828894      5.32e-03  
 Alpha HF Exchange    Energy = -19.70389937340833
 Beta HF Exchange     Energy = -19.70389937340830
 DFT Correlation      Energy =  -5.24129346721055
 DFT Exchange         Energy = -156.78777072940960
 One-Electron (alpha) Energy = -4204.74733851607471
 One-Electron (beta)  Energy = -4204.74733851607107
 Total Coulomb        Energy = 2805.12887984544022
    4   -5265.4556722148      4.61e-03  
 Alpha HF Exchange    Energy = -19.67001604533312
 Beta HF Exchange     Energy = -19.67001604533312
 DFT Correlation      Energy =  -5.24161778684415
 DFT Exchange         Energy = -156.56900694055997
 One-Electron (alpha) Energy = -4200.38670790990454
 One-Electron (beta)  Energy = -4200.38670790990454
 Total Coulomb        Energy = 2795.89909207977325
    5   -5265.6779926428      1.17e-03  
 Alpha HF Exchange    Energy = -19.65852878867090
 Beta HF Exchange     Energy = -19.65852878867091
 DFT Correlation      Energy =  -5.23650816390100
 DFT Exchange         Energy = -156.46768406734594
 One-Electron (alpha) Energy = -4199.39082828156188
 One-Electron (beta)  Energy = -4199.39082828156279
 Total Coulomb        Energy = 2793.76333293593734
    6   -5265.6925855204      2.34e-04  
 Alpha HF Exchange    Energy = -19.65895949854714
 Beta HF Exchange     Energy = -19.65895949854711
 DFT Correlation      Energy =  -5.23688118282720
 DFT Exchange         Energy = -156.47304737639502
 One-Electron (alpha) Energy = -4199.28707640475750
 One-Electron (beta)  Energy = -4199.28707640475386
 Total Coulomb        Energy = 2793.56183231140449
    7   -5265.6931801391      9.29e-05  
 Alpha HF Exchange    Energy = -19.65957774460664
 Beta HF Exchange     Energy = -19.65957774460664
 DFT Correlation      Energy =  -5.23697073981369
 DFT Exchange         Energy = -156.47754020605271
 One-Electron (alpha) Energy = -4199.39441052046732
 One-Electron (beta)  Energy = -4199.39441052046823
 Total Coulomb        Energy = 2793.78223515571790
    8   -5265.6932644049      2.33e-05  
 Alpha HF Exchange    Energy = -19.65963511875157
 Beta HF Exchange     Energy = -19.65963511875159
 DFT Correlation      Energy =  -5.23700294086169
 DFT Exchange         Energy = -156.47791924297587
 One-Electron (alpha) Energy = -4199.40664339212344
 One-Electron (beta)  Energy = -4199.40664339212526
 Total Coulomb        Energy = 2793.80722036443603
    9   -5265.6932709258      3.46e-06  
 Alpha HF Exchange    Energy = -19.65963648368814
 Beta HF Exchange     Energy = -19.65963648368817
 DFT Correlation      Energy =  -5.23700415989958
 DFT Exchange         Energy = -156.47792463474138
 One-Electron (alpha) Energy = -4199.40609230201062
 One-Electron (beta)  Energy = -4199.40609230201335
 Total Coulomb        Energy = 2793.80612741886262
   10   -5265.6932710318      1.57e-06  
 Alpha HF Exchange    Energy = -19.65963875884748
 Beta HF Exchange     Energy = -19.65963875884746
 DFT Correlation      Energy =  -5.23700335685414
 DFT Exchange         Energy = -156.47794012392561
 One-Electron (alpha) Energy = -4199.40676263904970
 One-Electron (beta)  Energy = -4199.40676263904788
 Total Coulomb        Energy = 2793.80748730526147
   11   -5265.6932710560      2.64e-07  Convergence criterion met
 ---------------------------------------
 SCF time:   CPU 45.08s  wall 4.00s 
<S^2> =         -0.000000000
 Alpha HF Exchange    Energy = -19.65963875884748
 Beta HF Exchange     Energy = -19.65963875884746
 DFT Correlation      Energy =  -5.23700335685414
 DFT Exchange         Energy = -156.47794012392561
 One-Electron (alpha) Energy = -4199.40676263904970
 One-Electron (beta)  Energy = -4199.40676263904788
 Total Coulomb        Energy = 2793.80748730526147
 Nuclear repulsion Energy = 540.34698791534868
 SCF   energy in the final basis set =    -5265.6932710560
 Total energy in the final basis set =    -5265.6932710560
 
 --------------------------------------------------------------
 
                    Orbital Energies (a.u.)
 --------------------------------------------------------------
 
 Alpha MOs
 -- Occupied --
*******-482.832 -62.523 -62.490 -56.345 -56.341 -56.341 -56.311
-56.307 -56.307 -10.294 -10.273 -10.221  -8.710  -8.675  -6.541
 -6.527  -6.527  -6.505  -6.493  -6.493  -2.635  -2.631  -2.630
 -2.620  -2.620  -2.598  -2.595  -2.595  -2.586  -2.586  -0.859
 -0.792  -0.724  -0.702  -0.615  -0.499  -0.479  -0.458  -0.440
 -0.402  -0.385  -0.312  -0.293  -0.289  -0.266  -0.263
 -- Virtual --
 -0.092  -0.020   0.074   0.104   0.113   0.134   0.144   0.150
  0.189   0.213   0.227   0.251   0.324   0.325   0.341   0.353
  0.364   0.411   0.436   0.476   0.484   0.508   0.521   0.557
  0.575   0.597   0.627   0.634   0.653   0.664   0.686   0.718
  0.746   0.782   0.805   0.830   0.847   0.855   0.872   0.879
  0.895   0.929   0.975   1.098   1.307   1.319   1.355   1.418
  1.550   1.637   1.717   1.743   1.821   1.846   1.853   1.900
  1.984   2.008   2.040   2.064   2.081   2.146   2.218   2.230
  2.318   2.414   2.481   2.541   2.585   2.601   2.667   2.735
  2.805   2.839   2.869   3.164   3.216   3.301   3.411   3.420
  3.425   4.178   4.395   4.538   4.716   4.720   4.748   4.752
  4.769   4.778   4.801   4.815   4.916   4.974   6.287   6.317
 90.288  90.388
 
 Beta MOs
 -- Occupied --
*******-482.832 -62.523 -62.490 -56.345 -56.341 -56.341 -56.311
-56.307 -56.307 -10.294 -10.273 -10.221  -8.710  -8.675  -6.541
 -6.527  -6.527  -6.505  -6.493  -6.493  -2.635  -2.631  -2.630
 -2.620  -2.620  -2.598  -2.595  -2.595  -2.586  -2.586  -0.859
 -0.792  -0.724  -0.702  -0.615  -0.499  -0.479  -0.458  -0.440
 -0.402  -0.385  -0.312  -0.293  -0.289  -0.266  -0.263
 -- Virtual --
 -0.092  -0.020   0.074   0.104   0.113   0.134   0.144   0.150
  0.189   0.213   0.227   0.251   0.324   0.325   0.341   0.353
  0.364   0.411   0.436   0.476   0.484   0.508   0.521   0.557
  0.575   0.597   0.627   0.634   0.653   0.664   0.686   0.718
  0.746   0.782   0.805   0.830   0.847   0.855   0.872   0.879
  0.895   0.929   0.975   1.098   1.307   1.319   1.355   1.418
  1.550   1.637   1.717   1.743   1.821   1.846   1.853   1.900
  1.984   2.008   2.040   2.064   2.081   2.146   2.218   2.230
  2.318   2.414   2.481   2.541   2.585   2.601   2.667   2.735
  2.805   2.839   2.869   3.164   3.216   3.301   3.411   3.420
  3.425   4.178   4.395   4.538   4.716   4.720   4.748   4.752
  4.769   4.778   4.801   4.815   4.916   4.974   6.287   6.317
 90.288  90.388
 --------------------------------------------------------------
 
          Ground-State Mulliken Net Atomic Charges

     Atom                 Charge (a.u.)    Spin (a.u.)
  --------------------------------------------------------
      1 Br                   -0.259395      -0.000000
      2 Br                   -0.062059      -0.000000
      3 C                    -0.071067       0.000000
      4 C                    -0.254363      -0.000000
      5 C                    -0.329526       0.000000
      6 H                     0.184277      -0.000000
      7 H                     0.188709       0.000000
      8 H                     0.166269      -0.000000
      9 H                     0.146328      -0.000000
     10 H                     0.160451       0.000000
     11 H                     0.130377      -0.000000
  --------------------------------------------------------
  Sum of atomic charges =    -0.000000
  Sum of spin   charges =    -0.000000

 -----------------------------------------------------------------
                    Cartesian Multipole Moments
 -----------------------------------------------------------------
    Charge (ESU x 10^10)
                 0.0000
    Dipole Moment (Debye)
         X      -1.5404      Y      -4.1800      Z      -0.1620
       Tot       4.4577
    Quadrupole Moments (Debye-Ang)
        XX     -58.0759     XY       3.2848     YY     -59.4806
        XZ       0.9787     YZ      -0.8464     ZZ     -55.3018
    Octopole Moments (Debye-Ang^2)
       XXX     -59.3547    XXY     -22.0183    XYY     -16.5782
       YYY     -73.6167    XXZ      -2.7137    XYZ      -1.0700
       YYZ       1.3178    XZZ     -18.7262    YZZ     -23.2852
       ZZZ       0.9861
    Hexadecapole Moments (Debye-Ang^3)
      XXXX    -917.7597   XXXY      97.1835   XXYY    -268.4814
      XYYY      79.1629   YYYY    -603.6169   XXXZ      25.9780
      XXYZ     -11.8848   XYYZ      11.8415   YYYZ     -18.1980
      XXZZ    -176.1247   XYZZ      27.7862   YYZZ    -124.7556
      XZZZ      36.6366   YZZZ     -28.1051   ZZZZ    -106.2406
 -----------------------------------------------------------------
 Calculating analytic gradient of the SCF energy
 Gradient of SCF Energy
            1           2           3           4           5           6
    1  -0.0031216  -0.0000123   0.0030762   0.0000337  -0.0000061  -0.0000455
    2   0.0367571   0.0000606  -0.0367307  -0.0000262  -0.0000938   0.0000936
    3   0.0099059  -0.0000361  -0.0098429  -0.0000543  -0.0000327   0.0000260
            7           8           9          10          11
    1   0.0000112   0.0000292   0.0000220  -0.0000147   0.0000280
    2  -0.0000166   0.0000237  -0.0000345  -0.0000210  -0.0000123
    3  -0.0000158  -0.0000516   0.0000247   0.0000596   0.0000171
 Max gradient component =       3.676E-02
 RMS gradient           =       9.398E-03
 Gradient time:  CPU 16.83 s  wall 1.47 s
 Geometry Optimization Parameters
   NAtoms,    NIC,     NZ,  NCons,   NDum,   NFix, NCnnct, MaxDiis
       11      68       0       1       0       0       0       0

 Cartesian Hessian Update
 Hessian Updated using BFGS Update


** CONSTRAINED OPTIMIZATION IN DELOCALIZED INTERNAL COORDINATES **
   Searching for a Minimum

   Optimization Cycle:   9

                       Coordinates (Angstroms)
     ATOM                X               Y               Z
      1  Br       -0.7126864579    2.0484945482    0.2444120807
      2  Br        2.3995341527   -0.1739837131   -0.2698737832
      3  C        -0.5186120320   -0.2612960642   -0.3778433372
      4  C         0.6599692506   -0.7983614002    0.3752221616
      5  C        -1.8487432745   -0.8628990907   -0.0233091377
      6  H        -0.3499126371   -0.0774541727   -1.4353473328
      7  H         0.6051366480   -0.5660058278    1.4376031309
      8  H         0.6775811913   -1.8870066481    0.2505538776
      9  H        -2.0141115975   -0.8760487606    1.0565317992
     10  H        -2.6666590274   -0.3225941390   -0.5012731480
     11  H        -1.8666962162   -1.9018447319   -0.3858783112
   Point Group: c1    Number of degrees of freedom:    27


   Energy is  -5265.693271056

              Constraints and their Current Values
                                        Value     Constraint
   Distance(Angs):        1   3             2.400000     2.400000
 Hessian Updated using BFGS Update

 26 Hessian modes will be used to form the next step
  Hessian Eigenvalues:
     0.004630    0.029300    0.045005    0.074286    0.079357    0.082402
     0.084902    0.086204    0.123400    0.159409    0.159977    0.160103
     0.160239    0.170599    0.178260    0.178447    0.208359    0.223477
     0.317320    0.326318    0.338631    0.343430    0.345288    0.347771
     0.349720    0.351467

 Minimum Search - Taking Simple RFO Step
 Searching for Lamda that Minimizes Along All modes
 Value Taken    Lamda =   0.00000000
 Step Taken.  Stepsize is  0.004460

                             Maximum     Tolerance    Cnvgd?
         Gradient           0.000088      0.000300     YES
         Displacement       0.002454      0.001200      NO
         Energy change     -0.000001      0.000001     YES


                       Distance Matrix (Angstroms)
             Br(  1)   Br(  2)   C (  3)   C (  4)   C (  5)   H (  6)
   Br(  2)  3.858733
   C (  3)  2.400000  2.921448
   C (  4)  3.163208  1.957571  1.498199
   C (  5)  3.136640  4.310831  1.502288  2.540990
   H (  6)  2.733652  2.987826  1.086541  2.194933  2.203921
   H (  7)  3.161641  2.507792  2.156735  1.088875  2.871226  3.066700
   H (  8)  4.173853  2.484032  2.113929  1.095902  2.739729  2.678150
   H (  9)  3.302454  4.661815  2.161451  2.760603  1.092509  3.101092
   H ( 10)  3.161664  5.073652  2.152463  3.472903  1.090580  2.509961
   H ( 11)  4.163434  4.604311  2.123392  2.860243  1.100539  2.594305
             H (  7)   H (  8)   H (  9)   H ( 10)
   H (  8)  1.777464
   H (  9)  2.664921  2.986109
   H ( 10)  3.810923  3.767834  1.777326
   H ( 11)  3.349553  2.622711  1.776101  1.774060
 
 Final energy is   -5265.69327105596     


 ******************************
 **  OPTIMIZATION CONVERGED  **
 ******************************

                       Coordinates (Angstroms)
     ATOM                X               Y               Z
      1  Br       -0.7126864579    2.0484945482    0.2444120807
      2  Br        2.3995341527   -0.1739837131   -0.2698737832
      3  C        -0.5186120320   -0.2612960642   -0.3778433372
      4  C         0.6599692506   -0.7983614002    0.3752221616
      5  C        -1.8487432745   -0.8628990907   -0.0233091377
      6  H        -0.3499126371   -0.0774541727   -1.4353473328
      7  H         0.6051366480   -0.5660058278    1.4376031309
      8  H         0.6775811913   -1.8870066481    0.2505538776
      9  H        -2.0141115975   -0.8760487606    1.0565317992
     10  H        -2.6666590274   -0.3225941390   -0.5012731480
     11  H        -1.8666962162   -1.9018447319   -0.3858783112

Z-matrix Print:
$molecule
0 1
Br
C  1 1.957571
H  2 1.088875 1 107.349994
H  2 1.095902 1 105.371380 3 -115.956165 0
C  2 1.498199 1 114.776452 3 125.177487 0
H  5 1.086541 2 115.323446 1 32.532574 0
C  5 1.502288 2 115.743289 1 172.203837 0
H  7 1.090580 5 111.235950 2 171.588741 0
H  7 1.092509 5 111.845145 2 49.437474 0
H  7 1.100539 5 108.345164 2 -69.695173 0
Br 5 2.400000 2 106.158185 1 -72.220621 0
$end

PES scan, value:    2.4000 energy: -5265.6932710560
------- Summary of potential scan: ------ 
    2.4000     -5265.6932710560
----------------------------------------- 
Archival summary:
1\1\hpc0242\JobtypUnspecified\ProcedureUnspecified\6-31G**\r236\knomura\WedMar1319:04:002019WedMar1319:04:002019\0\\#,JobtypUnspecified,ProcedureUnspecified,6-31G**,\\0,1\Br\C,1,1.95757\H,2,1.08888,1,107.35\H,2,1.0959,1,105.371,3,-115.956,0\C,2,1.4982,1,114.776,3,125.177,0\H,5,1.08654,2,115.323,1,32.5326,0\C,5,1.50229,2,115.743,1,172.204,0\H,7,1.09058,5,111.236,2,171.589,0\H,7,1.09251,5,111.845,2,49.4375,0\H,7,1.10054,5,108.345,2,-69.6952,0\Br,5,2.4,2,106.158,1,-72.2206,0\\\@

 Total job time:  52.21s(wall), 607.75s(cpu) 
 Wed Mar 13 19:04:00 2019

        *************************************************************
        *                                                           *
        *  Thank you very much for using Q-Chem.  Have a nice day.  *
        *                                                           *
        *************************************************************


