
Running Job 1 of 1 halogens/Bromine/03/Br_1_3.xyz.data/inputs/bond_triplet_4.9.in
qchem halogens/Bromine/03/Br_1_3.xyz.data/inputs/bond_triplet_4.9.in_2669.0 /staging/scratch/2868759/qchem2669/ 1
/usr/usc/qchem/5.1.1/exe/qcprog.exe_s halogens/Bromine/03/Br_1_3.xyz.data/inputs/bond_triplet_4.9.in_2669.0 /staging/scratch/2868759/qchem2669/
Check license passed

                  Welcome to Q-Chem
     A Quantum Leap Into The Future Of Chemistry


 Q-Chem 5.1, Q-Chem, Inc., Pleasanton, CA (2018)

 Yihan Shao,  Zhengting Gan,  E. Epifanovsky,  A. T. B. Gilbert,  M. Wormit,  
 J. Kussmann,  A. W. Lange,  A. Behn,  Jia Deng,  Xintian Feng,  D. Ghosh,  
 M. Goldey,  P. R. Horn,  L. D. Jacobson,  I. Kaliman,  T. Kus,  A. Landau,  
 Jie Liu,  E. I. Proynov,  R. M. Richard,  R. P. Steele,  E. J. Sundstrom,  
 H. L. Woodcock III,  P. M. Zimmerman,  D. Zuev,  B. Albrecht,  E. Alguire,  
 S. A. Baeppler,  D. Barton,  Z. Benda,  Y. A. Bernard,  E. J. Berquist,  
 K. B. Bravaya,  H. Burton,  D. Casanova,  Chun-Min Chang,  Yunqing Chen,  
 A. Chien,  K. D. Closser,  M. P. Coons,  S. Coriani,  S. Dasgupta,  
 A. L. Dempwolff,  M. Diedenhofen,  Hainam Do,  R. G. Edgar,  Po-Tung Fang,  
 S. Faraji,  S. Fatehi,  Qingguo Feng,  K. D. Fenk,  J. Fosso-Tande,  
 Qinghui Ge,  A. Ghysels,  G. Gidofalvi,  J. Gomes,  J. Gonthier,  A. Gunina,  
 D. Hait,  M. W. D. Hanson-Heine,  P. H. P. Harbach,  A. W. Hauser,  
 J. E. Herr,  E. G. Hohenstein,  Z. C. Holden,  Kerwin Hui,  B. C. Huynh,  
 T.-C. Jagau,  Hyunjun Ji,  B. Kaduk,  K. Khistyaev,  Jaehoon Kim,  
 P. Klunzinger,  K. Koh,  D. Kosenkov,  L. Koulias,  T. Kowalczyk,  
 C. M. Krauter,  A. Kunitsa,  Ka Un Lao,  A. Laurent,  K. V. Lawler,  
 Joonho Lee,  D. Lefrancois,  S. Lehtola,  D. S. Levine,  Yi-Pei Li,  
 You-Sheng Lin,  Fenglai Liu,  E. Livshits,  A. Luenser,  P. Manohar,  
 E. Mansoor,  S. F. Manzer,  Shan-Ping Mao,  Yuezhi Mao,  N. Mardirossian,  
 A. V. Marenich,  T. Markovich,  L. A. Martinez-Martinez,  S. A. Maurer,  
 N. J. Mayhall,  S. C. McKenzie,  J.-M. Mewes,  A. F. Morrison,  
 J. W. Mullinax,  K. Nanda,  T. S. Nguyen-Beck,  R. Olivares-Amaya,  
 J. A. Parkhill,  T. M. Perrine,  F. Plasser,  P. Pokhilko,  S. Prager,  
 A. Prociuk,  E. Ramos,  D. R. Rehn,  F. Rob,  M. Schneider,  N. Sergueev,  
 S. M. Sharada,  S. Sharma,  D. W. Small,  T. Stauch,  T. Stein,  
 Yu-Chuan Su,  A. J. W. Thom,  A. Tkatchenko,  T. Tsuchimochi,  N. M. Tubman,  
 L. Vogt,  M. L. Vidal,  O. Vydrov,  M. A. Watson,  J. Wenzel,  
 M. de Wergifosse,  T. A. Wesolowski,  A. White,  J. Witte,  A. Yamada,  
 Jun Yang,  K. Yao,  S. Yeganeh,  S. R. Yost,  Zhi-Qiang You,  A. Zech,  
 Igor Ying Zhang,  Xing Zhang,  Yan Zhao,  Ying Zhu,  B. R. Brooks,  
 G. K. L. Chan,  C. J. Cramer,  M. S. Gordon,  W. J. Hehre,  A. Klamt,  
 M. W. Schmidt,  C. D. Sherrill,  D. G. Truhlar,  A. Aspuru-Guzik,  R. Baer,  
 A. T. Bell,  N. A. Besley,  Jeng-Da Chai,  A. E. DePrince, III,  
 R. A. DiStasio Jr.,  A. Dreuw,  B. D. Dunietz,  T. R. Furlani,  
 Chao-Ping Hsu,  Yousung Jung,  Jing Kong,  D. S. Lambrecht,  WanZhen Liang,  
 C. Ochsenfeld,  V. A. Rassolov,  L. V. Slipchenko,  J. E. Subotnik,  
 T. Van Voorhis,  J. M. Herbert,  A. I. Krylov,  P. M. W. Gill,  M. Head-Gordon

 Contributors to earlier versions of Q-Chem not listed above: 
 R. D. Adamson,  B. Austin,  J. Baker,  G. J. O. Beran,  K. Brandhorst,  
 S. T. Brown,  E. F. C. Byrd,  A. K. Chakraborty,  C.-L. Cheng,  
 Siu Hung Chien,  D. M. Chipman,  D. L. Crittenden,  H. Dachsel,  
 R. J. Doerksen,  A. D. Dutoi,  L. Fusti-Molnar,  W. A. Goddard III,  
 A. Golubeva-Zadorozhnaya,  S. R. Gwaltney,  G. Hawkins,  A. Heyden,  
 S. Hirata,  G. Kedziora,  F. J. Keil,  C. Kelley,  Jihan Kim,  R. A. King,  
 R. Z. Khaliullin,  P. P. Korambath,  W. Kurlancheek,  A. M. Lee,  M. S. Lee,  
 S. V. Levchenko,  Ching Yeh Lin,  D. Liotard,  R. C. Lochan,  I. Lotan,  
 P. E. Maslen,  N. Nair,  D. P. O'Neill,  D. Neuhauser,  E. Neuscamman,  
 C. M. Oana,  R. Olson,  B. Peters,  R. Peverati,  P. A. Pieniazek,  
 Y. M. Rhee,  J. Ritchie,  M. A. Rohrdanz,  E. Rosta,  N. J. Russ,  
 H. F. Schaefer III,  N. E. Schultz,  N. Shenvi,  A. C. Simmonett,  A. Sodt,  
 D. Stuck,  K. S. Thanthiriwatte,  V. Vanovschi,  Tao Wang,  A. Warshel,  
 C. F. Williams,  Q. Wu,  X. Xu,  W. Zhang

 Please cite Q-Chem as follows:
 Y. Shao et al., Mol. Phys. 113, 184-215 (2015)
 DOI: 10.1080/00268976.2014.952696

 Q-Chem 5.1.1 for Intel X86 EM64T Linux

 Parts of Q-Chem use Armadillo 8.300.2 (Tropical Shenanigans).
 http://arma.sourceforge.net/

 Q-Chem begins on Wed Mar 13 20:47:53 2019  

Host: 
0

     Scratch files written to /staging/scratch/2868759/qchem2669//
 Aug318 |scratch|qcdevops|jenkins|workspace|build_RNUM 6013   
Processing $rem in /usr/usc/qchem/5.1.1/config/preferences.
 MEM_TOTAL  2000 
Input Ideriv = 2
Curr. Ideriv = -1
Max.  Ideriv = 2

Checking the input file for inconsistencies... 	...done.

--------------------------------------------------------------
User input:
--------------------------------------------------------------

$comment
potential surface scanner
$end

$rem
JOBTYPE  PES_SCAN
UNRESTRICTED TRUE
SYM_IGNORE  TRUE
GEOM_OPT_MAX_CYCLES 400
SCF_MAX_CYCLES 400
METHOD   B3LYP
BASIS   6-31G**
PDB_PRINT 2
SCF_CONVERGENCE 6
THRESH 14
SCF_PRINT 1
$end
$molecule
0 3
Br 2.681538 2.457557 0.383588
Br -0.196744 1.872835 0.477437
C -0.817106 -0.983275 -0.575669
C 0.390344 -0.535464 -0.089534
C -1.908296 -1.554960 0.258504
H -1.016064 -0.865575 -1.639854
H 0.682181 -0.737153 0.935622
H 1.177814 -0.215465 -0.761586
H -1.631987 -1.621415 1.313192
H -2.814466 -0.940929 0.170939
H -2.182416 -2.555159 -0.101833
$end
$scan
stre 1 3 4.900000 4.901000 0.100000
$end
--------------------------------------------------------------
 ----------------------------------------------------------------
             Standard Nuclear Orientation (Angstroms)
    I     Atom           X                Y                Z
 ----------------------------------------------------------------
    1      Br      2.6815380000     2.4575570000     0.3835880000
    2      Br     -0.1967440000     1.8728350000     0.4774370000
    3      C      -0.8171060000    -0.9832750000    -0.5756690000
    4      C       0.3903440000    -0.5354640000    -0.0895340000
    5      C      -1.9082960000    -1.5549600000     0.2585040000
    6      H      -1.0160640000    -0.8655750000    -1.6398540000
    7      H       0.6821810000    -0.7371530000     0.9356220000
    8      H       1.1778140000    -0.2154650000    -0.7615860000
    9      H      -1.6319870000    -1.6214150000     1.3131920000
   10      H      -2.8144660000    -0.9409290000     0.1709390000
   11      H      -2.1824160000    -2.5551590000    -0.1018330000
 ----------------------------------------------------------------
 Nuclear Repulsion Energy =   523.3365617300 hartrees
 There are       48 alpha and       46 beta electrons
 Requested basis set is 6-31G(d,p)
 There are 46 shells and 145 basis functions

 Total QAlloc Memory Limit   2000 MB
 Mega-Array Size       188 MB
 MEM_STATIC part       192 MB
A total of 1 constraints
  
            1
    1   1.0100000
    2   1.0100000
    3   3.0100000
    4   4.9000000
    5   4.9010000
    6   0.1000000
    7   0.0000000
    8   0.0000000
    9   0.0000000
   10   0.0000000

                       Distance Matrix (Angstroms)
             Br(  1)   Br(  2)   C (  3)   C (  4)   C (  5)   H (  6)
   Br(  2)  2.938574
   C (  3)  5.000001  3.106645
   C (  4)  3.798893  2.542839  1.376516
   C (  5)  6.097747  3.837593  1.487738  2.538552
   H (  6)  5.367475  3.557119  1.089003  2.119068  2.207961
   H (  7)  3.808982  2.791860  2.142997  1.084800  2.799619  3.087654
   H (  8)  3.273783  2.790266  2.145647  1.083588  3.515523  2.450938
   H (  9)  6.009049  3.868875  2.153845  2.690121  1.092305  3.109845
   H ( 10)  6.465368  3.855344  2.132760  3.240842  1.098110  2.553214
   H ( 11)  7.001500  4.887287  2.135278  3.270843  1.097899  2.565264
             H (  7)   H (  8)   H (  9)   H ( 10)
   H (  8)  1.843455
   H (  9)  2.505963  3.765153
   H ( 10)  3.585081  4.163436  1.779342
   H ( 11)  3.547869  4.147359  1.782455  1.754888
 
 A cutoff of  1.0D-14 yielded    916 shell pairs
 There are      8936 function pairs
 
 -------------------------------------------------------
 OpenMP Integral Computing Module                       
 Release: version 1.0, May 2013, Q-Chem Inc. Pittsburgh 
 -------------------------------------------------------
 Integral Job Info:
 Integral job number is                      11
 Integral operator is                         1
 short-range coefficients                     0
 long-range coefficients              100000000
 Omega coefficients                           0
 if combine SR and LR in K                    0
 Integral screening is                        0
 Integral computing path is                   2
 max size of driver memory is            800000
 size of driver memory is                593474
 size of scratch memory is             15267112
 max col of scratch BK array               1296
 max len of scratch array in speh3          155
 max len of scratch index in speh4           18
 max int batch size is                      520
 min int batch size is                       52
 fixed nKL is                                52
 max L of basis functions is                  2
 order of int derivative is                   0
 number of shells is                         46
 number of basis is                         145
 number of cartesian basis is               145
 number of contracted shell pairs           916
 number of primitive shell pairs           3898
 maxK2 (contraction) of shell pair           36
 max number of K2 of shell pair               1
 max number of CS2 of shell pair             67
 max number of PS2 of shell pair            402
 mem total for path MDJ                  528444
 -------------------------------------------------------
 Smallest overlap matrix eigenvalue = 7.24E-04

 Scale SEOQF with 1.000000e-01/1.000000e-01/1.000000e-01

 Standard Electronic Orientation quadrupole field applied
 Nucleus-field energy     =     0.0000000346 hartrees
 Guess from superposition of atomic densities
 Warning:  Energy on first SCF cycle will be non-variational
 SAD guess density has 93.945746 electrons

 -----------------------------------------------------------------------
  General SCF calculation program by
  Eric Jon Sundstrom, Paul Horn, Yuezhi Mao, Dmitri Zuev, Alec White,
  David Stuck, Shaama M.S., Shane Yost, Joonho Lee, David Small,
  Daniel Levine, Susi Lehtola, Hugh Burton, Evgeny Epifanovsky
 -----------------------------------------------------------------------
 Exchange:     0.2000 Hartree-Fock + 0.0800 Slater + 0.7200 B88
 Correlation:  0.1900 VWN1RPA + 0.8100 LYP
 Using SG-1 standard quadrature grid
 using 12 threads for integral computing
 -------------------------------------------------------
 OpenMP Integral computing Module                
 Release: version 1.0, May 2013, Q-Chem Inc. Pittsburgh 
 -------------------------------------------------------
 -------------------------------------------------------
 OpenMP BLAS3 based DFT computing Module                
 Release: version 1.0, May 2013, Q-Chem Inc. Pittsburgh 
 -------------------------------------------------------
 A unrestricted SCF calculation will be
 performed using DIIS
 SCF converges when DIIS error is below 1.0e-06
 Alpha HF Exchange    Energy = -19.60225558721266
 Beta HF Exchange     Energy = -19.60225558721266
 DFT Correlation      Energy =  -5.19364509841219
 DFT Exchange         Energy = -155.85805569329534
 One-Electron (alpha) Energy = -4179.70015224597591
 One-Electron (beta)  Energy = -4179.70015224597591
 Total Coulomb        Energy = 2763.52537935157216
 ---------------------------------------
  Cycle       Energy         DIIS error
 ---------------------------------------
    1   -5272.7945753419      1.83e-01  
 Alpha HF Exchange    Energy = -19.84028526997202
 Beta HF Exchange     Energy = -19.61645911257022
 DFT Correlation      Energy =  -5.24174207285121
 DFT Exchange         Energy = -157.04576770688780
 One-Electron (alpha) Energy = -4217.32938971737531
 One-Electron (beta)  Energy = -4164.42172805315113
 Total Coulomb        Energy = 2794.67374253550042
    2   -5265.4850676327      1.04e-02  
 Alpha HF Exchange    Energy = -19.69347535248331
 Beta HF Exchange     Energy = -19.49542466008307
 DFT Correlation      Energy =  -5.20208259015287
 DFT Exchange         Energy = -155.96677997935427
 One-Electron (alpha) Energy = -4200.95137595645429
 One-Electron (beta)  Energy = -4144.91781894909764
 Total Coulomb        Energy = 2757.65320299498535
    3   -5265.2371927280      5.17e-03  
 Alpha HF Exchange    Energy = -19.80100499530819
 Beta HF Exchange     Energy = -19.59824476043121
 DFT Correlation      Energy =  -5.22392486665191
 DFT Exchange         Energy = -156.76526273715854
 One-Electron (alpha) Energy = -4214.21000261354129
 One-Electron (beta)  Energy = -4161.42788992809710
 Total Coulomb        Energy = 2788.49429441519533
    4   -5265.1954737214      5.60e-03  
 Alpha HF Exchange    Energy = -19.78523778563817
 Beta HF Exchange     Energy = -19.56182317267213
 DFT Correlation      Energy =  -5.22631627666152
 DFT Exchange         Energy = -156.60115631450455
 One-Electron (alpha) Energy = -4211.82143872098732
 One-Electron (beta)  Energy = -4158.16271423821581
 Total Coulomb        Energy = 2782.21106146634111
    5   -5265.6110632777      1.15e-03  
 Alpha HF Exchange    Energy = -19.76690398314000
 Beta HF Exchange     Energy = -19.54363876648027
 DFT Correlation      Energy =  -5.22147870012773
 DFT Exchange         Energy = -156.45795848228559
 One-Electron (alpha) Energy = -4209.62960272655164
 One-Electron (beta)  Energy = -4155.24570970538207
 Total Coulomb        Energy = 2776.89823044611876
    6   -5265.6305001532      4.05e-04  
 Alpha HF Exchange    Energy = -19.76867697843675
 Beta HF Exchange     Energy = -19.54563823986321
 DFT Correlation      Energy =  -5.22134904812981
 DFT Exchange         Energy = -156.46959723898382
 One-Electron (alpha) Energy = -4209.78332405117726
 One-Electron (beta)  Energy = -4155.43479102926540
 Total Coulomb        Energy = 2777.25349102974724
    7   -5265.6333237915      2.11e-04  
 Alpha HF Exchange    Energy = -19.76888662107089
 Beta HF Exchange     Energy = -19.54560683870355
 DFT Correlation      Energy =  -5.22156347529259
 DFT Exchange         Energy = -156.47087816312205
 One-Electron (alpha) Energy = -4209.77361069917424
 One-Electron (beta)  Energy = -4155.12360925184748
 Total Coulomb        Energy = 2776.93360885819811
    8   -5265.6339844264      1.18e-04  
 Alpha HF Exchange    Energy = -19.76863961390288
 Beta HF Exchange     Energy = -19.54572066125291
 DFT Correlation      Energy =  -5.22125702624328
 DFT Exchange         Energy = -156.46853490454339
 One-Electron (alpha) Energy = -4209.81279402334167
 One-Electron (beta)  Energy = -4155.22904857557296
 Total Coulomb        Energy = 2777.07522038270736
    9   -5265.6342126575      5.24e-05  
 Alpha HF Exchange    Energy = -19.76877966437872
 Beta HF Exchange     Energy = -19.54592345785883
 DFT Correlation      Energy =  -5.22120091748630
 DFT Exchange         Energy = -156.46938134099886
 One-Electron (alpha) Energy = -4209.78587611998501
 One-Electron (beta)  Energy = -4155.16333746302917
 Total Coulomb        Energy = 2776.98366159093666
   10   -5265.6342756082      2.95e-05  
 Alpha HF Exchange    Energy = -19.76884954512846
 Beta HF Exchange     Energy = -19.54611206232640
 DFT Correlation      Energy =  -5.22117404061443
 DFT Exchange         Energy = -156.47007988554785
 One-Electron (alpha) Energy = -4209.79494808951040
 One-Electron (beta)  Energy = -4155.16806442004872
 Total Coulomb        Energy = 2776.99837678203448
   11   -5265.6342894965      1.02e-05  
 Alpha HF Exchange    Energy = -19.76886945344141
 Beta HF Exchange     Energy = -19.54617473296089
 DFT Correlation      Energy =  -5.22115717365763
 DFT Exchange         Energy = -156.47022441012950
 One-Electron (alpha) Energy = -4209.79369364020295
 One-Electron (beta)  Energy = -4155.17749076642122
 Total Coulomb        Energy = 2777.00675514685145
   12   -5265.6342932653      4.01e-06  
 Alpha HF Exchange    Energy = -19.76885885569435
 Beta HF Exchange     Energy = -19.54619839539911
 DFT Correlation      Energy =  -5.22115026752736
 DFT Exchange         Energy = -156.47021785472674
 One-Electron (alpha) Energy = -4209.78983983974013
 One-Electron (beta)  Energy = -4155.18056423611324
 Total Coulomb        Energy = 2777.00597393851149
   13   -5265.6342937461      1.80e-06  
 Alpha HF Exchange    Energy = -19.76885615804919
 Beta HF Exchange     Energy = -19.54620333210266
 DFT Correlation      Energy =  -5.22114561137755
 DFT Exchange         Energy = -156.47021353560390
 One-Electron (alpha) Energy = -4209.78840267649048
 One-Electron (beta)  Energy = -4155.18168417634388
 Total Coulomb        Energy = 2777.00564992045793
   14   -5265.6342938049      6.76e-07  Convergence criterion met
 ---------------------------------------
 SCF time:   CPU 52.76s  wall 4.00s 
<S^2> =          2.011633033
 Alpha HF Exchange    Energy = -19.76885615804919
 Beta HF Exchange     Energy = -19.54620333210266
 DFT Correlation      Energy =  -5.22114561137755
 DFT Exchange         Energy = -156.47021353560390
 One-Electron (alpha) Energy = -4209.78840267649048
 One-Electron (beta)  Energy = -4155.18168417634388
 Total Coulomb        Energy = 2777.00564992045793
 Nuclear repulsion Energy = 523.33656176463728
 SCF   energy in the final basis set =    -5265.6342938049
 Total energy in the final basis set =    -5265.6342938049
 
 --------------------------------------------------------------
 
                    Orbital Energies (a.u.)
 --------------------------------------------------------------
 
 Alpha MOs
 -- Occupied --
*******-482.829 -62.528 -62.487 -56.350 -56.347 -56.345 -56.310
-56.304 -56.304 -10.266 -10.255 -10.225  -8.715  -8.674  -6.544
 -6.537  -6.531  -6.506  -6.491  -6.490  -2.638  -2.637  -2.632
 -2.627  -2.626  -2.598  -2.595  -2.594  -2.583  -2.583  -0.849
 -0.780  -0.735  -0.726  -0.611  -0.519  -0.474  -0.460  -0.418
 -0.402  -0.373  -0.352  -0.304  -0.275  -0.262  -0.261  -0.252
 -- Virtual --
 -0.047   0.072   0.096   0.112   0.134   0.135   0.149   0.207
  0.236   0.251   0.293   0.322   0.334   0.369   0.371   0.380
  0.415   0.462   0.474   0.499   0.517   0.524   0.552   0.564
  0.571   0.585   0.617   0.637   0.638   0.648   0.653   0.666
  0.687   0.740   0.806   0.815   0.821   0.851   0.859   0.890
  0.908   0.963   1.130   1.241   1.250   1.274   1.343   1.452
  1.575   1.736   1.759   1.773   1.793   1.842   1.874   1.962
  1.998   2.044   2.064   2.069   2.137   2.249   2.314   2.332
  2.420   2.441   2.492   2.582   2.614   2.646   2.780   2.818
  2.823   2.937   3.138   3.231   3.373   3.383   3.422   3.576
  4.146   4.373   4.525   4.663   4.694   4.706   4.722   4.746
  4.747   4.747   4.749   4.845   4.876   6.258   6.311  90.214
 90.346
 
 Beta MOs
 -- Occupied --
*******-482.827 -62.527 -62.486 -56.346 -56.345 -56.344 -56.305
-56.303 -56.303 -10.260 -10.254 -10.225  -8.712  -8.671  -6.537
 -6.533  -6.529  -6.498  -6.489  -6.489  -2.632  -2.631  -2.628
 -2.624  -2.624  -2.592  -2.590  -2.589  -2.582  -2.582  -0.836
 -0.752  -0.725  -0.694  -0.604  -0.515  -0.471  -0.450  -0.416
 -0.400  -0.336  -0.308  -0.292  -0.255  -0.250
 -- Virtual --
 -0.176  -0.154  -0.020   0.074   0.097   0.114   0.137   0.139
  0.153   0.214   0.239   0.260   0.299   0.327   0.352   0.376
  0.378   0.395   0.430   0.468   0.483   0.519   0.540   0.546
  0.571   0.579   0.588   0.605   0.629   0.645   0.646   0.670
  0.678   0.687   0.697   0.752   0.811   0.819   0.826   0.855
  0.877   0.898   0.910   0.974   1.133   1.249   1.259   1.280
  1.358   1.455   1.577   1.747   1.769   1.781   1.805   1.850
  1.883   1.971   2.001   2.047   2.068   2.071   2.146   2.252
  2.317   2.338   2.426   2.450   2.495   2.589   2.618   2.650
  2.783   2.820   2.826   2.939   3.140   3.232   3.375   3.386
  3.423   3.578   4.157   4.375   4.531   4.673   4.701   4.718
  4.732   4.749   4.750   4.757   4.759   4.855   4.889   6.272
  6.324  90.219  90.352
 --------------------------------------------------------------
 
          Ground-State Mulliken Net Atomic Charges

     Atom                 Charge (a.u.)    Spin (a.u.)
  --------------------------------------------------------
      1 Br                   -0.244387       0.738285
      2 Br                   -0.098120       0.803743
      3 C                     0.020752       0.462478
      4 C                    -0.248523       0.001386
      5 C                    -0.361185      -0.031883
      6 H                     0.137990      -0.020380
      7 H                     0.169423       0.000975
      8 H                     0.184960       0.001066
      9 H                     0.138389       0.000403
     10 H                     0.155746       0.024060
     11 H                     0.144955       0.019867
  --------------------------------------------------------
  Sum of atomic charges =    -0.000000
  Sum of spin   charges =     2.000000

 -----------------------------------------------------------------
                    Cartesian Multipole Moments
 -----------------------------------------------------------------
    Charge (ESU x 10^10)
                -0.0000
    Dipole Moment (Debye)
         X      -3.8828      Y      -5.4318      Z      -1.0692
       Tot       6.7620
    Quadrupole Moments (Debye-Ang)
        XX     -60.1212     XY      -4.7557     YY     -63.3910
        XZ      -0.8616     YZ      -1.1395     ZZ     -56.0730
    Octopole Moments (Debye-Ang^2)
       XXX    -114.2445    XXY     -81.1658    XYY     -53.4727
       YYY    -203.9492    XXZ     -18.0401    XYZ      -3.6138
       YYZ     -15.2588    XZZ     -34.0690    YZZ     -65.5921
       ZZZ     -44.9466
    Hexadecapole Moments (Debye-Ang^3)
      XXXX   -1089.0661   XXXY    -447.7120   XXYY    -428.1562
      XYYY    -470.6165   YYYY   -1335.5646   XXXZ     -56.7334
      XXYZ     -40.0762   XYYZ     -22.6639   YYYZ    -103.6632
      XXZZ    -211.9903   XYZZ    -148.2630   YYZZ    -245.5028
      XZZZ     -50.6056   YZZZ    -106.9439   ZZZZ    -140.9105
 -----------------------------------------------------------------
 Calculating analytic gradient of the SCF energy
 Gradient of SCF Energy
            1           2           3           4           5           6
    1   0.0005785  -0.0000876  -0.0007214   0.0002967   0.0000139   0.0000869
    2   0.0004457   0.0000977  -0.0005359  -0.0000598   0.0000491  -0.0001047
    3   0.0000881  -0.0001679  -0.0001241   0.0000934   0.0000213   0.0000007
            7           8           9          10          11
    1  -0.0000347  -0.0000209  -0.0000494  -0.0000169  -0.0000451
    2   0.0000165  -0.0000608   0.0000909   0.0000436   0.0000174
    3   0.0000573  -0.0000192   0.0000214  -0.0000385   0.0000677
 Max gradient component =       7.214E-04
 RMS gradient           =       2.176E-04
 Gradient time:  CPU 14.68 s  wall 1.30 s
 Geometry Optimization Parameters
   NAtoms,    NIC,     NZ,  NCons,   NDum,   NFix, NCnnct, MaxDiis
       11      84       0       1       0       0       0       0


** CONSTRAINED OPTIMIZATION IN DELOCALIZED INTERNAL COORDINATES **
   Searching for a Minimum

   Optimization Cycle:   1

                       Coordinates (Angstroms)
     ATOM                X               Y               Z
      1  Br        2.6815380000    2.4575570000    0.3835880000
      2  Br       -0.1967440000    1.8728350000    0.4774370000
      3  C        -0.8171060000   -0.9832750000   -0.5756690000
      4  C         0.3903440000   -0.5354640000   -0.0895340000
      5  C        -1.9082960000   -1.5549600000    0.2585040000
      6  H        -1.0160640000   -0.8655750000   -1.6398540000
      7  H         0.6821810000   -0.7371530000    0.9356220000
      8  H         1.1778140000   -0.2154650000   -0.7615860000
      9  H        -1.6319870000   -1.6214150000    1.3131920000
     10  H        -2.8144660000   -0.9409290000    0.1709390000
     11  H        -2.1824160000   -2.5551590000   -0.1018330000
   Point Group: c1    Number of degrees of freedom:    27


   Energy is  -5265.634293805

              Constraints and their Current Values
                                        Value     Constraint
   Distance(Angs):        1   3             5.000001     4.900000

 Attempting to Generate Delocalized Internal Coordinates

   Using Lagrange Multiplier Algorithm


 28 Hessian modes will be used to form the next step
  Hessian Eigenvalues:
    -0.998261    0.029890    0.045000    0.045000    0.045035    0.048275
     0.059225    0.061417    0.065929    0.079249    0.092352    0.092371
     0.095264    0.113607    0.159835    0.160000    0.160000    0.160000
     0.220043    0.304571    0.321121    0.336986    0.338920    0.339155
     0.345476    0.349281    0.445792    1.001742

 Minimum Search - Taking P-RFO Step
 Searching for Lamda that Maximizes Along the Constraint modes Only
 Value Taken    Lamda =   0.01747439
 Searching for Lamda that Minimizes Along All other modes
 Value Taken    Lamda =  -0.01762158
 Step Taken.  Stepsize is  0.185726

                             Maximum     Tolerance    Cnvgd?
         Gradient            0.188974       0.000300      NO
         Displacement        0.185715       0.001200      NO
         Energy change     *********       0.000001      NO


 New Cartesian Coordinates Obtained by Inverse Iteration

 Displacement from previous Coordinates is:  0.191542
 ----------------------------------------------------------------
             Standard Nuclear Orientation (Angstroms)
    I     Atom           X                Y                Z
 ----------------------------------------------------------------
    1      Br      2.6470289014     2.3836491499     0.3604667872
    2      Br     -0.2281950553     1.8684954031     0.4793084365
    3      C      -0.8034910523    -0.9710856048    -0.5704308116
    4      C       0.3868054051    -0.5276685367    -0.0849928132
    5      C      -1.8960244439    -1.5481321934     0.2583326078
    6      H      -0.9996119344    -0.8501816556    -1.6347884690
    7      H       0.6789965094    -0.7292771281     0.9397232672
    8      H       1.1722013668    -0.2036546651    -0.7540937393
    9      H      -1.6230091861    -1.6175527900     1.3136992803
   10      H      -2.8032990838    -0.9358703859     0.1698921513
   11      H      -2.1666034268    -2.5477245935    -0.1063106971
 ----------------------------------------------------------------
 Nuclear Repulsion Energy =   527.3607903199 hartrees
 There are       48 alpha and       46 beta electrons

                       Distance Matrix (Angstroms)
             Br(  1)   Br(  2)   C (  3)   C (  4)   C (  5)   H (  6)
   Br(  2)  2.923426
   C (  3)  4.901725  3.081580
   C (  4)  3.712521  2.537373  1.359807
   C (  5)  6.009049  3.808389  1.487770  2.523991
   H (  6)  5.266564  3.529263  1.089008  2.104290  2.207849
   H (  7)  3.728136  2.789875  2.129978  1.084465  2.786674  3.075785
   H (  8)  3.179859  2.788583  2.127450  1.081447  3.499519  2.431130
   H (  9)  5.928870  3.846329  2.153944  2.680213  1.092317  3.109833
   H ( 10)  6.384481  3.819865  2.132733  3.226199  1.098105  2.552940
   H ( 11)  6.907053  4.858331  2.135245  3.255914  1.097890  2.565105
             H (  7)   H (  8)   H (  9)   H ( 10)
   H (  8)  1.840800
   H (  9)  2.495621  3.753409
   H ( 10)  3.572353  4.146624  1.779345
   H ( 11)  3.535304  4.130606  1.782454  1.754920
 
 Applying Cartesian multipole field
    Component          Value
    ---------          -----
     (2,0,0)        1.00000E-11
     (0,2,0)        2.00000E-11
     (0,0,2)       -3.00000E-11
 Nucleus-field energy     =     0.0000000335 hartrees
 Requested basis set is 6-31G(d,p)
 There are 46 shells and 145 basis functions
 A cutoff of  1.0D-14 yielded    921 shell pairs
 There are      9024 function pairs
 Smallest overlap matrix eigenvalue = 7.24E-04
 Guess from superposition of atomic densities
 Warning:  Energy on first SCF cycle will be non-variational
 SAD guess density has 93.945746 electrons

 -----------------------------------------------------------------------
  General SCF calculation program by
  Eric Jon Sundstrom, Paul Horn, Yuezhi Mao, Dmitri Zuev, Alec White,
  David Stuck, Shaama M.S., Shane Yost, Joonho Lee, David Small,
  Daniel Levine, Susi Lehtola, Hugh Burton, Evgeny Epifanovsky
 -----------------------------------------------------------------------
 Exchange:     0.2000 Hartree-Fock + 0.0800 Slater + 0.7200 B88
 Correlation:  0.1900 VWN1RPA + 0.8100 LYP
 Using SG-1 standard quadrature grid
 using 12 threads for integral computing
 -------------------------------------------------------
 OpenMP Integral computing Module                
 Release: version 1.0, May 2013, Q-Chem Inc. Pittsburgh 
 -------------------------------------------------------
 -------------------------------------------------------
 OpenMP BLAS3 based DFT computing Module                
 Release: version 1.0, May 2013, Q-Chem Inc. Pittsburgh 
 -------------------------------------------------------
 A unrestricted SCF calculation will be
 performed using DIIS
 SCF converges when DIIS error is below 1.0e-06
 Alpha HF Exchange    Energy = -19.60524873270901
 Beta HF Exchange     Energy = -19.60524873270901
 DFT Correlation      Energy =  -5.19467611304509
 DFT Exchange         Energy = -155.86398367945463
 One-Electron (alpha) Energy = -4183.70753911177053
 One-Electron (beta)  Energy = -4183.70753911177053
 Total Coulomb        Energy = 2767.49307476040713
 ---------------------------------------
  Cycle       Energy         DIIS error
 ---------------------------------------
    1   -5272.8303703677      1.83e-01  
 Alpha HF Exchange    Energy = -19.84216480059119
 Beta HF Exchange     Energy = -19.61732950173245
 DFT Correlation      Energy =  -5.24292456543063
 DFT Exchange         Energy = -157.05640543747671
 One-Electron (alpha) Energy = -4221.45590613834247
 One-Electron (beta)  Energy = -4168.17588966546373
 Total Coulomb        Energy = 2798.54344549964753
    2   -5265.4863842560      1.04e-02  
 Alpha HF Exchange    Energy = -19.69551718002004
 Beta HF Exchange     Energy = -19.49149770019706
 DFT Correlation      Energy =  -5.20398850947449
 DFT Exchange         Energy = -155.96774202613096
 One-Electron (alpha) Energy = -4205.22985260233418
 One-Electron (beta)  Energy = -4149.23174978672432
 Total Coulomb        Energy = 2762.16339693332566
    3   -5265.2961605182      5.00e-03  
 Alpha HF Exchange    Energy = -19.80382875518157
 Beta HF Exchange     Energy = -19.59722114444301
 DFT Correlation      Energy =  -5.22597407095182
 DFT Exchange         Energy = -156.77745044565569
 One-Electron (alpha) Energy = -4218.35205190949364
 One-Electron (beta)  Energy = -4164.79951844265906
 Total Coulomb        Energy = 2791.94029605736932
    4   -5265.2549583576      5.26e-03  
 Alpha HF Exchange    Energy = -19.78605134849283
 Beta HF Exchange     Energy = -19.55884663559866
 DFT Correlation      Energy =  -5.22747253208359
 DFT Exchange         Energy = -156.59982355202010
 One-Electron (alpha) Energy = -4215.82870157958132
 One-Electron (beta)  Energy = -4161.33819721339569
 Total Coulomb        Energy = 2785.35658669957047
    5   -5265.6217158082      1.00e-03  
 Alpha HF Exchange    Energy = -19.76849243509400
 Beta HF Exchange     Energy = -19.54297877382740
 DFT Correlation      Energy =  -5.22262873336087
 DFT Exchange         Energy = -156.46424362468795
 One-Electron (alpha) Energy = -4213.79782629546662
 One-Electron (beta)  Energy = -4158.81077407660814
 Total Coulomb        Energy = 2780.61624064502166
    6   -5265.6299129406      4.34e-04  
 Alpha HF Exchange    Energy = -19.77006055780236
 Beta HF Exchange     Energy = -19.54537515788669
 DFT Correlation      Energy =  -5.22242825368891
 DFT Exchange         Energy = -156.47541048435306
 One-Electron (alpha) Energy = -4213.97473170001012
 One-Electron (beta)  Energy = -4159.17473797419188
 Total Coulomb        Energy = 2781.16905339771438
    7   -5265.6329003768      2.04e-04  
 Alpha HF Exchange    Energy = -19.77065051371551
 Beta HF Exchange     Energy = -19.54619041478357
 DFT Correlation      Energy =  -5.22266928015453
 DFT Exchange         Energy = -156.48012130804426
 One-Electron (alpha) Energy = -4213.94813953778612
 One-Electron (beta)  Energy = -4158.94665978732519
 Total Coulomb        Energy = 2780.91989330797242
    8   -5265.6337471805      9.66e-05  
 Alpha HF Exchange    Energy = -19.77045664484669
 Beta HF Exchange     Energy = -19.54672576860383
 DFT Correlation      Energy =  -5.22241137857070
 DFT Exchange         Energy = -156.47900519848571
 One-Electron (alpha) Energy = -4213.97453515304005
 One-Electron (beta)  Energy = -4159.04976975888076
 Total Coulomb        Energy = 2781.04809377106494
    9   -5265.6340197780      4.14e-05  
 Alpha HF Exchange    Energy = -19.77043789319820
 Beta HF Exchange     Energy = -19.54714534808586
 DFT Correlation      Energy =  -5.22229352984157
 DFT Exchange         Energy = -156.47933332190405
 One-Electron (alpha) Energy = -4213.93355325782795
 One-Electron (beta)  Energy = -4159.03322849213964
 Total Coulomb        Energy = 2780.99111135337307
   10   -5265.6340901362      2.38e-05  
 Alpha HF Exchange    Energy = -19.77044358669116
 Beta HF Exchange     Energy = -19.54731122528613
 DFT Correlation      Energy =  -5.22226773249824
 DFT Exchange         Energy = -156.47971426085564
 One-Electron (alpha) Energy = -4213.93039509183291
 One-Electron (beta)  Energy = -4159.03452675212156
 Total Coulomb        Energy = 2780.98976760912547
   11   -5265.6341006868      8.12e-06  
 Alpha HF Exchange    Energy = -19.77045037944518
 Beta HF Exchange     Energy = -19.54737937257380
 DFT Correlation      Energy =  -5.22225424297991
 DFT Exchange         Energy = -156.47986594942319
 One-Electron (alpha) Energy = -4213.92588079792586
 One-Electron (beta)  Energy = -4159.04609604938196
 Total Coulomb        Energy = 2780.99703311000849
   12   -5265.6341033283      3.62e-06  
 Alpha HF Exchange    Energy = -19.77044123595867
 Beta HF Exchange     Energy = -19.54739491071187
 DFT Correlation      Energy =  -5.22225439732283
 DFT Exchange         Energy = -156.47987192692239
 One-Electron (alpha) Energy = -4213.92266133575140
 One-Electron (beta)  Energy = -4159.04843473975143
 Total Coulomb        Energy = 2780.99616444408730
   13   -5265.6341037489      1.78e-06  
 Alpha HF Exchange    Energy = -19.77043948815839
 Beta HF Exchange     Energy = -19.54740122711591
 DFT Correlation      Energy =  -5.22224968702632
 DFT Exchange         Energy = -156.47987833591105
 One-Electron (alpha) Energy = -4213.92098887602060
 One-Electron (beta)  Energy = -4159.05096801893524
 Total Coulomb        Energy = 2780.99703138644054
   14   -5265.6341038933      4.91e-07  Convergence criterion met
 ---------------------------------------
 SCF time:   CPU 52.29s  wall 4.00s 
<S^2> =          2.010723426
 Alpha HF Exchange    Energy = -19.77043948815839
 Beta HF Exchange     Energy = -19.54740122711591
 DFT Correlation      Energy =  -5.22224968702632
 DFT Exchange         Energy = -156.47987833591105
 One-Electron (alpha) Energy = -4213.92098887602060
 One-Electron (beta)  Energy = -4159.05096801893524
 Total Coulomb        Energy = 2780.99703138644054
 Nuclear repulsion Energy = 527.36079035338605
 SCF   energy in the final basis set =    -5265.6341038933
 Total energy in the final basis set =    -5265.6341038933
 
 --------------------------------------------------------------
 
                    Orbital Energies (a.u.)
 --------------------------------------------------------------
 
 Alpha MOs
 -- Occupied --
*******-482.830 -62.529 -62.487 -56.351 -56.349 -56.346 -56.310
-56.305 -56.304 -10.263 -10.252 -10.224  -8.717  -8.674  -6.545
 -6.539  -6.532  -6.506  -6.491  -6.490  -2.639  -2.638  -2.633
 -2.628  -2.628  -2.598  -2.595  -2.594  -2.583  -2.583  -0.852
 -0.781  -0.735  -0.727  -0.610  -0.519  -0.474  -0.460  -0.418
 -0.400  -0.374  -0.354  -0.305  -0.275  -0.262  -0.261  -0.252
 -- Virtual --
 -0.043   0.073   0.096   0.113   0.136   0.137   0.151   0.208
  0.237   0.251   0.296   0.322   0.333   0.370   0.372   0.380
  0.418   0.465   0.474   0.498   0.515   0.524   0.550   0.566
  0.570   0.584   0.620   0.636   0.638   0.650   0.656   0.666
  0.691   0.748   0.810   0.816   0.822   0.854   0.861   0.893
  0.912   0.970   1.136   1.248   1.252   1.275   1.345   1.455
  1.574   1.736   1.760   1.774   1.796   1.842   1.889   1.967
  1.999   2.045   2.068   2.073   2.146   2.253   2.316   2.335
  2.421   2.448   2.499   2.589   2.620   2.651   2.787   2.821
  2.826   2.947   3.138   3.236   3.377   3.384   3.425   3.591
  4.154   4.375   4.529   4.661   4.692   4.706   4.723   4.746
  4.747   4.748   4.751   4.848   4.880   6.257   6.313  90.209
 90.355
 
 Beta MOs
 -- Occupied --
*******-482.828 -62.528 -62.486 -56.347 -56.346 -56.345 -56.305
-56.304 -56.303 -10.257 -10.251 -10.224  -8.713  -8.671  -6.538
 -6.534  -6.530  -6.498  -6.489  -6.489  -2.633  -2.632  -2.629
 -2.626  -2.625  -2.592  -2.590  -2.589  -2.582  -2.582  -0.839
 -0.752  -0.725  -0.694  -0.603  -0.516  -0.471  -0.449  -0.415
 -0.398  -0.337  -0.310  -0.293  -0.255  -0.250
 -- Virtual --
 -0.176  -0.154  -0.016   0.075   0.097   0.115   0.138   0.140
  0.154   0.215   0.241   0.260   0.302   0.327   0.352   0.376
  0.380   0.394   0.433   0.472   0.484   0.518   0.539   0.545
  0.570   0.581   0.586   0.603   0.631   0.644   0.645   0.673
  0.679   0.688   0.700   0.759   0.814   0.820   0.827   0.857
  0.880   0.901   0.914   0.982   1.139   1.256   1.260   1.281
  1.360   1.458   1.577   1.748   1.770   1.783   1.808   1.850
  1.897   1.976   2.002   2.048   2.071   2.075   2.155   2.256
  2.318   2.342   2.426   2.457   2.502   2.596   2.624   2.656
  2.789   2.823   2.829   2.949   3.141   3.238   3.380   3.387
  3.426   3.593   4.165   4.377   4.536   4.670   4.699   4.718
  4.732   4.749   4.751   4.758   4.761   4.857   4.892   6.270
  6.326  90.214  90.360
 --------------------------------------------------------------
 
          Ground-State Mulliken Net Atomic Charges

     Atom                 Charge (a.u.)    Spin (a.u.)
  --------------------------------------------------------
      1 Br                   -0.246806       0.734563
      2 Br                   -0.091708       0.814697
      3 C                     0.023009       0.447369
      4 C                    -0.250179       0.009194
      5 C                    -0.361203      -0.030674
      6 H                     0.137133      -0.019729
      7 H                     0.168340       0.000780
      8 H                     0.184399       0.000779
      9 H                     0.137676       0.000374
     10 H                     0.155031       0.023382
     11 H                     0.144308       0.019264
  --------------------------------------------------------
  Sum of atomic charges =     0.000000
  Sum of spin   charges =     2.000000

 -----------------------------------------------------------------
                    Cartesian Multipole Moments
 -----------------------------------------------------------------
    Charge (ESU x 10^10)
                -0.0000
    Dipole Moment (Debye)
         X      -3.8306      Y      -5.2844      Z      -1.0291
       Tot       6.6073
    Quadrupole Moments (Debye-Ang)
        XX     -60.0797     XY      -4.5856     YY     -62.9772
        XZ      -0.8047     YZ      -1.0385     ZZ     -56.0417
    Octopole Moments (Debye-Ang^2)
       XXX    -110.1338    XXY     -79.0955    XYY     -51.4268
       YYY    -198.4241    XXZ     -17.5359    XYZ      -3.4081
       YYZ     -14.5991    XZZ     -32.8573    YZZ     -64.0882
       ZZZ     -43.7980
    Hexadecapole Moments (Debye-Ang^3)
      XXXX   -1065.7291   XXXY    -427.1697   XXYY    -415.8921
      XYYY    -448.2670   YYYY   -1285.8891   XXXZ     -51.4805
      XXYZ     -38.1290   XYYZ     -20.4488   YYYZ     -97.7005
      XXZZ    -207.8216   XYZZ    -141.2997   YYZZ    -237.2574
      XZZZ     -45.3068   YZZZ    -101.8221   ZZZZ    -138.8214
 -----------------------------------------------------------------
 Calculating analytic gradient of the SCF energy
 Gradient of SCF Energy
            1           2           3           4           5           6
    1  -0.0002441   0.0004521   0.0127616  -0.0123556   0.0007875   0.0005412
    2  -0.0001277  -0.0008364   0.0044074  -0.0031350   0.0003463   0.0001359
    3  -0.0000098  -0.0004415   0.0049877  -0.0050386   0.0002917   0.0001252
            7           8           9          10          11
    1  -0.0002646  -0.0015321  -0.0001204  -0.0000032  -0.0000224
    2  -0.0001149  -0.0008758   0.0000698   0.0001240   0.0000065
    3  -0.0003091   0.0004271   0.0000376  -0.0000796   0.0000092
 Max gradient component =       1.276E-02
 RMS gradient           =       3.485E-03
 Gradient time:  CPU 14.83 s  wall 1.31 s
 Geometry Optimization Parameters
   NAtoms,    NIC,     NZ,  NCons,   NDum,   NFix, NCnnct, MaxDiis
       11      84       0       1       0       0       0       0

 Cartesian Hessian Update
 Hessian Updated using BFGS Update


** CONSTRAINED OPTIMIZATION IN DELOCALIZED INTERNAL COORDINATES **
   Searching for a Minimum

   Optimization Cycle:   2

                       Coordinates (Angstroms)
     ATOM                X               Y               Z
      1  Br        2.6470289014    2.3836491499    0.3604667872
      2  Br       -0.2281950553    1.8684954031    0.4793084365
      3  C        -0.8034910523   -0.9710856048   -0.5704308116
      4  C         0.3868054051   -0.5276685367   -0.0849928132
      5  C        -1.8960244439   -1.5481321934    0.2583326078
      6  H        -0.9996119344   -0.8501816556   -1.6347884690
      7  H         0.6789965094   -0.7292771281    0.9397232672
      8  H         1.1722013668   -0.2036546651   -0.7540937393
      9  H        -1.6230091861   -1.6175527900    1.3136992803
     10  H        -2.8032990838   -0.9358703859    0.1698921513
     11  H        -2.1666034268   -2.5477245935   -0.1063106971
   Point Group: c1    Number of degrees of freedom:    27


   Energy is  -5265.634103893

              Constraints and their Current Values
                                        Value     Constraint
   Distance(Angs):        1   3             4.901725     4.900000
 Hessian Updated using BFGS Update

   Using Lagrange Multiplier Algorithm


 27 Hessian modes will be used to form the next step
  Hessian Eigenvalues:
    -0.992265    0.030030    0.044998    0.045000    0.045043    0.048270
     0.059227    0.061515    0.066202    0.079319    0.092370    0.092386
     0.095269    0.113620    0.159961    0.160000    0.160257    0.220326
     0.305132    0.322216    0.337122    0.338920    0.339155    0.345476
     0.349292    0.756980    1.021538

 Minimum Search - Taking P-RFO Step
 Searching for Lamda that Maximizes Along the Constraint modes Only
 Value Taken    Lamda =   0.00001523
 Searching for Lamda that Minimizes Along All other modes
 Value Taken    Lamda =  -0.00028768
 Step Taken.  Stepsize is  0.022401

                             Maximum     Tolerance    Cnvgd?
         Gradient            0.007888       0.000300      NO
         Displacement        0.011726       0.001200      NO
         Energy change      0.000190       0.000001      NO


 New Cartesian Coordinates Obtained by Inverse Iteration

 Displacement from previous Coordinates is:  0.034880
 ----------------------------------------------------------------
             Standard Nuclear Orientation (Angstroms)
    I     Atom           X                Y                Z
 ----------------------------------------------------------------
    1      Br      2.6459372582     2.3810764400     0.3543565979
    2      Br     -0.2260372201     1.8717479926     0.4827040376
    3      C      -0.8057208312    -0.9716598905    -0.5704232652
    4      C       0.3925377435    -0.5254545817    -0.0821950073
    5      C      -1.8993705452    -1.5499926958     0.2569858545
    6      H      -1.0035491441    -0.8511562878    -1.6346730012
    7      H       0.6853398825    -0.7264084553     0.9427886197
    8      H       1.1787830989    -0.1994451108    -0.7512905988
    9      H      -1.6269653906    -1.6199555792     1.3124916349
   10      H      -2.8069465581    -0.9382638715     0.1684221711
   11      H      -2.1692102938    -2.5494909600    -0.1083610431
 ----------------------------------------------------------------
 Nuclear Repulsion Energy =   527.3943991234 hartrees
 There are       48 alpha and       46 beta electrons

                       Distance Matrix (Angstroms)
             Br(  1)   Br(  2)   C (  3)   C (  4)   C (  5)   H (  6)
   Br(  2)  2.919611
   C (  3)  4.900000  3.087083
   C (  4)  3.703554  2.539355  1.368682
   C (  5)  6.010209  3.815665  1.488336  2.533291
   H (  6)  5.265199  3.535819  1.089167  2.113132  2.206636
   H (  7)  3.721110  2.791541  2.138509  1.084761  2.798097  3.084026
   H (  8)  3.167663  2.790359  2.137121  1.082660  3.509363  2.442881
   H (  9)  5.931608  3.852680  2.154089  2.687280  1.092333  3.108935
   H ( 10)  6.386434  3.828320  2.133521  3.235726  1.098066  2.551663
   H ( 11)  6.907261  4.865453  2.135920  3.264960  1.097856  2.563735
             H (  7)   H (  8)   H (  9)   H ( 10)
   H (  8)  1.841489
   H (  9)  2.506364  3.761552
   H ( 10)  3.583377  4.156653  1.779313
   H ( 11)  3.546407  4.140668  1.782383  1.754813
 
 Applying Cartesian multipole field
    Component          Value
    ---------          -----
     (2,0,0)        1.00000E-11
     (0,2,0)        2.00000E-11
     (0,0,2)       -3.00000E-11
 Nucleus-field energy     =     0.0000000335 hartrees
 Requested basis set is 6-31G(d,p)
 There are 46 shells and 145 basis functions
 A cutoff of  1.0D-14 yielded    921 shell pairs
 There are      9024 function pairs
 Smallest overlap matrix eigenvalue = 7.24E-04
 Guess from superposition of atomic densities
 Warning:  Energy on first SCF cycle will be non-variational
 SAD guess density has 93.945746 electrons

 -----------------------------------------------------------------------
  General SCF calculation program by
  Eric Jon Sundstrom, Paul Horn, Yuezhi Mao, Dmitri Zuev, Alec White,
  David Stuck, Shaama M.S., Shane Yost, Joonho Lee, David Small,
  Daniel Levine, Susi Lehtola, Hugh Burton, Evgeny Epifanovsky
 -----------------------------------------------------------------------
 Exchange:     0.2000 Hartree-Fock + 0.0800 Slater + 0.7200 B88
 Correlation:  0.1900 VWN1RPA + 0.8100 LYP
 Using SG-1 standard quadrature grid
 using 12 threads for integral computing
 -------------------------------------------------------
 OpenMP Integral computing Module                
 Release: version 1.0, May 2013, Q-Chem Inc. Pittsburgh 
 -------------------------------------------------------
 -------------------------------------------------------
 OpenMP BLAS3 based DFT computing Module                
 Release: version 1.0, May 2013, Q-Chem Inc. Pittsburgh 
 -------------------------------------------------------
 A unrestricted SCF calculation will be
 performed using DIIS
 SCF converges when DIIS error is below 1.0e-06
 Alpha HF Exchange    Energy = -19.60387574048930
 Beta HF Exchange     Energy = -19.60387574048930
 DFT Correlation      Energy =  -5.19440001072830
 DFT Exchange         Energy = -155.86119525337429
 One-Electron (alpha) Energy = -4183.74908872358628
 One-Electron (beta)  Energy = -4183.74908872358628
 Total Coulomb        Energy = 2767.54860622523347
 ---------------------------------------
  Cycle       Energy         DIIS error
 ---------------------------------------
    1   -5272.8185188101      1.83e-01  
 Alpha HF Exchange    Energy = -19.84125932757505
 Beta HF Exchange     Energy = -19.61696750975044
 DFT Correlation      Energy =  -5.24252026515889
 DFT Exchange         Energy = -157.05123992581051
 One-Electron (alpha) Energy = -4221.48490584426418
 One-Electron (beta)  Energy = -4168.29612606593491
 Total Coulomb        Energy = 2798.65234778926333
    2   -5265.4862719923      1.04e-02  
 Alpha HF Exchange    Energy = -19.69456842090823
 Beta HF Exchange     Energy = -19.49124488530048
 DFT Correlation      Energy =  -5.20367490410414
 DFT Exchange         Energy = -155.96346482727392
 One-Electron (alpha) Energy = -4205.17119494492817
 One-Electron (beta)  Energy = -4149.14920958673883
 Total Coulomb        Energy = 2761.99183731955600
    3   -5265.2871210928      5.05e-03  
 Alpha HF Exchange    Energy = -19.80309357577545
 Beta HF Exchange     Energy = -19.59700487589124
 DFT Correlation      Energy =  -5.22549241826407
 DFT Exchange         Energy = -156.77286248969980
 One-Electron (alpha) Energy = -4218.43322978929700
 One-Electron (beta)  Energy = -4165.02598571848375
 Total Coulomb        Energy = 2792.21603197264494
    4   -5265.2472377379      5.31e-03  
 Alpha HF Exchange    Energy = -19.78532148197837
 Beta HF Exchange     Energy = -19.55877884919219
 DFT Correlation      Energy =  -5.22715351342267
 DFT Exchange         Energy = -156.59623278598843
 One-Electron (alpha) Energy = -4215.85625638132751
 One-Electron (beta)  Energy = -4161.48702520233746
 Total Coulomb        Energy = 2785.49518121173651
    5   -5265.6211878456      1.00e-03  
 Alpha HF Exchange    Energy = -19.76764012208460
 Beta HF Exchange     Energy = -19.54255709249707
 DFT Correlation      Energy =  -5.22228547050569
 DFT Exchange         Energy = -156.45946261210293
 One-Electron (alpha) Energy = -4213.81072855242928
 One-Electron (beta)  Energy = -4158.91881246993125
 Total Coulomb        Energy = 2780.69683491746537
    6   -5265.6302522452      4.24e-04  
 Alpha HF Exchange    Energy = -19.76929665685551
 Beta HF Exchange     Energy = -19.54498415147621
 DFT Correlation      Energy =  -5.22210958195877
 DFT Exchange         Energy = -156.47114719339942
 One-Electron (alpha) Energy = -4213.98199529474550
 One-Electron (beta)  Energy = -4159.26055936526245
 Total Coulomb        Energy = 2781.22257741593376
    7   -5265.6331156709      2.02e-04  
 Alpha HF Exchange    Energy = -19.76985458748074
 Beta HF Exchange     Energy = -19.54571544740736
 DFT Correlation      Energy =  -5.22234920582553
 DFT Exchange         Energy = -156.47554673654315
 One-Electron (alpha) Energy = -4213.95922266612888
 One-Electron (beta)  Energy = -4159.02678274390655
 Total Coulomb        Energy = 2780.97113443174885
    8   -5265.6339377986      9.96e-05  
 Alpha HF Exchange    Energy = -19.76965770945931
 Beta HF Exchange     Energy = -19.54621211540846
 DFT Correlation      Energy =  -5.22208339382847
 DFT Exchange         Energy = -156.47431641824323
 One-Electron (alpha) Energy = -4213.98770309796510
 One-Electron (beta)  Energy = -4159.13313201434994
 Total Coulomb        Energy = 2781.10449429068194
    9   -5265.6342113017      4.37e-05  
 Alpha HF Exchange    Energy = -19.76965742065260
 Beta HF Exchange     Energy = -19.54659556916911
 DFT Correlation      Energy =  -5.22196931052255
 DFT Exchange         Energy = -156.47466086773827
 One-Electron (alpha) Energy = -4213.94677644412604
 One-Electron (beta)  Energy = -4159.11068562050150
 Total Coulomb        Energy = 2781.04166332086515
   10   -5265.6342827549      2.54e-05  
 Alpha HF Exchange    Energy = -19.76966912198346
 Beta HF Exchange     Energy = -19.54677128565433
 DFT Correlation      Energy =  -5.22194202638562
 DFT Exchange         Energy = -156.47508869657247
 One-Electron (alpha) Energy = -4213.94425489258720
 One-Electron (beta)  Energy = -4159.11252181103464
 Total Coulomb        Energy = 2781.04155395019416
   11   -5265.6342947271      8.24e-06  
 Alpha HF Exchange    Energy = -19.76967874249057
 Beta HF Exchange     Energy = -19.54684195295592
 DFT Correlation      Energy =  -5.22192830276638
 DFT Exchange         Energy = -156.47525678090011
 One-Electron (alpha) Energy = -4213.93998229971021
 One-Electron (beta)  Energy = -4159.12447665905620
 Total Coulomb        Energy = 2781.04946800324706
   12   -5265.6342975777      3.67e-06  
 Alpha HF Exchange    Energy = -19.76966862244314
 Beta HF Exchange     Energy = -19.54685732249899
 DFT Correlation      Energy =  -5.22192768331747
 DFT Exchange         Energy = -156.47525596050133
 One-Electron (alpha) Energy = -4213.93649161021858
 One-Electron (beta)  Energy = -4159.12692293975488
 Total Coulomb        Energy = 2781.04842696517699
   13   -5265.6342980166      1.85e-06  
 Alpha HF Exchange    Energy = -19.76966662489912
 Beta HF Exchange     Energy = -19.54686331028124
 DFT Correlation      Energy =  -5.22192274965031
 DFT Exchange         Energy = -156.47526000447004
 One-Electron (alpha) Energy = -4213.93478590822087
 One-Electron (beta)  Energy = -4159.12929312613232
 Total Coulomb        Energy = 2781.04909441079735
   14   -5265.6342981559      4.99e-07  Convergence criterion met
 ---------------------------------------
 SCF time:   CPU 53.34s  wall 5.00s 
<S^2> =          2.011023069
 Alpha HF Exchange    Energy = -19.76966662489912
 Beta HF Exchange     Energy = -19.54686331028124
 DFT Correlation      Energy =  -5.22192274965031
 DFT Exchange         Energy = -156.47526000447004
 One-Electron (alpha) Energy = -4213.93478590822087
 One-Electron (beta)  Energy = -4159.12929312613232
 Total Coulomb        Energy = 2781.04909441079735
 Nuclear repulsion Energy = 527.39439915691037
 SCF   energy in the final basis set =    -5265.6342981559
 Total energy in the final basis set =    -5265.6342981559
 
 --------------------------------------------------------------
 
                    Orbital Energies (a.u.)
 --------------------------------------------------------------
 
 Alpha MOs
 -- Occupied --
*******-482.829 -62.529 -62.487 -56.350 -56.348 -56.346 -56.309
-56.304 -56.304 -10.265 -10.253 -10.224  -8.716  -8.674  -6.545
 -6.538  -6.531  -6.506  -6.491  -6.490  -2.639  -2.638  -2.633
 -2.628  -2.627  -2.598  -2.594  -2.594  -2.583  -2.583  -0.850
 -0.781  -0.735  -0.726  -0.610  -0.519  -0.474  -0.460  -0.418
 -0.401  -0.373  -0.354  -0.305  -0.275  -0.261  -0.261  -0.251
 -- Virtual --
 -0.045   0.073   0.096   0.113   0.135   0.136   0.150   0.208
  0.236   0.251   0.295   0.322   0.333   0.370   0.371   0.379
  0.419   0.464   0.474   0.498   0.515   0.524   0.549   0.564
  0.570   0.584   0.619   0.637   0.638   0.651   0.656   0.666
  0.690   0.745   0.809   0.816   0.822   0.854   0.862   0.893
  0.911   0.968   1.133   1.245   1.251   1.275   1.344   1.453
  1.575   1.736   1.759   1.773   1.797   1.842   1.880   1.964
  1.999   2.045   2.067   2.071   2.141   2.250   2.316   2.334
  2.421   2.445   2.495   2.586   2.617   2.649   2.783   2.819
  2.824   2.943   3.138   3.233   3.374   3.383   3.423   3.584
  4.150   4.374   4.526   4.661   4.692   4.706   4.723   4.747
  4.747   4.748   4.751   4.848   4.881   6.257   6.314  90.207
 90.357
 
 Beta MOs
 -- Occupied --
*******-482.827 -62.528 -62.485 -56.347 -56.346 -56.345 -56.305
-56.303 -56.303 -10.259 -10.253 -10.225  -8.712  -8.671  -6.537
 -6.533  -6.530  -6.498  -6.489  -6.488  -2.633  -2.632  -2.629
 -2.625  -2.625  -2.592  -2.590  -2.589  -2.582  -2.582  -0.837
 -0.752  -0.725  -0.694  -0.603  -0.515  -0.471  -0.450  -0.415
 -0.399  -0.337  -0.310  -0.293  -0.255  -0.250
 -- Virtual --
 -0.176  -0.153  -0.018   0.075   0.097   0.115   0.138   0.140
  0.154   0.215   0.240   0.260   0.301   0.327   0.352   0.376
  0.379   0.393   0.433   0.471   0.485   0.519   0.538   0.544
  0.570   0.579   0.586   0.603   0.630   0.644   0.646   0.673
  0.680   0.688   0.699   0.757   0.814   0.820   0.827   0.857
  0.880   0.902   0.914   0.980   1.136   1.253   1.260   1.281
  1.359   1.455   1.578   1.747   1.770   1.782   1.809   1.850
  1.889   1.974   2.002   2.048   2.070   2.073   2.150   2.254
  2.318   2.340   2.426   2.454   2.499   2.593   2.621   2.653
  2.785   2.822   2.828   2.945   3.140   3.235   3.377   3.386
  3.424   3.587   4.161   4.376   4.533   4.670   4.699   4.718
  4.732   4.749   4.751   4.758   4.761   4.857   4.893   6.270
  6.326  90.213  90.363
 --------------------------------------------------------------
 
          Ground-State Mulliken Net Atomic Charges

     Atom                 Charge (a.u.)    Spin (a.u.)
  --------------------------------------------------------
      1 Br                   -0.248339       0.732789
      2 Br                   -0.093248       0.811213
      3 C                     0.021187       0.454379
      4 C                    -0.248671       0.007909
      5 C                    -0.361037      -0.031258
      6 H                     0.137700      -0.020046
      7 H                     0.169136       0.000762
      8 H                     0.185382       0.000772
      9 H                     0.137962       0.000390
     10 H                     0.155308       0.023578
     11 H                     0.144618       0.019513
  --------------------------------------------------------
  Sum of atomic charges =     0.000000
  Sum of spin   charges =     2.000000

 -----------------------------------------------------------------
                    Cartesian Multipole Moments
 -----------------------------------------------------------------
    Charge (ESU x 10^10)
                -0.0000
    Dipole Moment (Debye)
         X      -3.8474      Y      -5.3174      Z      -1.0278
       Tot       6.6433
    Quadrupole Moments (Debye-Ang)
        XX     -60.0886     XY      -4.5984     YY     -63.0301
        XZ      -0.7849     YZ      -1.0380     ZZ     -56.0481
    Octopole Moments (Debye-Ang^2)
       XXX    -110.4623    XXY     -79.3175    XYY     -51.5841
       YYY    -198.6162    XXZ     -17.5142    XYZ      -3.4108
       YYZ     -14.5486    XZZ     -32.8865    YZZ     -64.1137
       ZZZ     -43.6491
    Hexadecapole Moments (Debye-Ang^3)
      XXXX   -1066.3626   XXXY    -427.4451   XXYY    -416.2891
      XYYY    -448.2959   YYYY   -1286.4066   XXXZ     -50.7850
      XXYZ     -38.0331   XYYZ     -20.1290   YYYZ     -97.2381
      XXZZ    -207.8050   XYZZ    -141.2379   YYZZ    -237.2693
      XZZZ     -44.4042   YZZZ    -101.3999   ZZZZ    -138.6444
 -----------------------------------------------------------------
 Calculating analytic gradient of the SCF energy
 Gradient of SCF Energy
            1           2           3           4           5           6
    1  -0.0004523   0.0005040   0.0059570  -0.0052951   0.0000501   0.0000223
    2  -0.0001923  -0.0003307   0.0021859  -0.0013452   0.0000364  -0.0000972
    3  -0.0000111  -0.0003544   0.0022192  -0.0020040   0.0000044  -0.0000058
            7           8           9          10          11
    1   0.0000603  -0.0006734  -0.0000419  -0.0000367  -0.0000942
    2   0.0000484  -0.0004762   0.0001027   0.0000483   0.0000200
    3  -0.0000639   0.0001514   0.0000141  -0.0000332   0.0000834
 Max gradient component =       5.957E-03
 RMS gradient           =       1.562E-03
 Gradient time:  CPU 14.75 s  wall 1.30 s
 Geometry Optimization Parameters
   NAtoms,    NIC,     NZ,  NCons,   NDum,   NFix, NCnnct, MaxDiis
       11      84       0       1       0       0       0       0

 Cartesian Hessian Update
 Hessian Updated using BFGS Update


** CONSTRAINED OPTIMIZATION IN DELOCALIZED INTERNAL COORDINATES **
   Searching for a Minimum

   Optimization Cycle:   3

                       Coordinates (Angstroms)
     ATOM                X               Y               Z
      1  Br        2.6459372582    2.3810764400    0.3543565979
      2  Br       -0.2260372201    1.8717479926    0.4827040376
      3  C        -0.8057208312   -0.9716598905   -0.5704232652
      4  C         0.3925377435   -0.5254545817   -0.0821950073
      5  C        -1.8993705452   -1.5499926958    0.2569858545
      6  H        -1.0035491441   -0.8511562878   -1.6346730012
      7  H         0.6853398825   -0.7264084553    0.9427886197
      8  H         1.1787830989   -0.1994451108   -0.7512905988
      9  H        -1.6269653906   -1.6199555792    1.3124916349
     10  H        -2.8069465581   -0.9382638715    0.1684221711
     11  H        -2.1692102938   -2.5494909600   -0.1083610431
   Point Group: c1    Number of degrees of freedom:    27


   Energy is  -5265.634298156

              Constraints and their Current Values
                                        Value     Constraint
   Distance(Angs):        1   3             4.900000     4.900000
 Hessian Updated using BFGS Update

 26 Hessian modes will be used to form the next step
  Hessian Eigenvalues:
     0.029982    0.044971    0.045001    0.045043    0.047791    0.059255
     0.061888    0.066003    0.079299    0.092188    0.092371    0.095278
     0.113679    0.159917    0.159998    0.160000    0.161536    0.220980
     0.304013    0.321479    0.337255    0.338919    0.339155    0.345470
     0.349256    0.463082

 Minimum Search - Taking Simple RFO Step
 Searching for Lamda that Minimizes Along All modes
 Value Taken    Lamda =  -0.00008858
 Step Taken.  Stepsize is  0.018843

                             Maximum     Tolerance    Cnvgd?
         Gradient           0.003042      0.000300      NO
         Displacement       0.009424      0.001200      NO
         Energy change     -0.000194      0.000001      NO


 New Cartesian Coordinates Obtained by Inverse Iteration

 Displacement from previous Coordinates is:  0.025990
 ----------------------------------------------------------------
             Standard Nuclear Orientation (Angstroms)
    I     Atom           X                Y                Z
 ----------------------------------------------------------------
    1      Br      2.6474886559     2.3782511043     0.3474689521
    2      Br     -0.2266231073     1.8736495909     0.4867166286
    3      C      -0.8080953161    -0.9721526639    -0.5710822252
    4      C       0.3956000560    -0.5237230987    -0.0799354548
    5      C      -1.9011606234    -1.5512406896     0.2562082110
    6      H      -1.0047714492    -0.8509127030    -1.6353390445
    7      H       0.6871316757    -0.7252700140     0.9453337146
    8      H       1.1831023821    -0.1953028222    -0.7478765841
    9      H      -1.6294400405    -1.6212639392     1.3119354848
   10      H      -2.8090410234    -0.9401102802     0.1671022668
   11      H      -2.1693932098    -2.5509274847    -0.1097259494
 ----------------------------------------------------------------
 Nuclear Repulsion Energy =   527.0920831660 hartrees
 There are       48 alpha and       46 beta electrons

                       Distance Matrix (Angstroms)
             Br(  1)   Br(  2)   C (  3)   C (  4)   C (  5)   H (  6)
   Br(  2)  2.921392
   C (  3)  4.900000  3.091220
   C (  4)  3.697990  2.540798  1.375208
   C (  5)  6.011609  3.819304  1.488134  2.538483
   H (  6)  5.262892  3.540039  1.089047  2.118342  2.207243
   H (  7)  3.719178  2.792787  2.143868  1.084799  2.802923  3.088397
   H (  8)  3.157117  2.791435  2.144673  1.083589  3.515598  2.450348
   H (  9)  5.934512  3.855295  2.154462  2.691224  1.092381  3.109675
   H ( 10)  6.388879  3.832529  2.133009  3.241008  1.098029  2.551889
   H ( 11)  6.907111  4.868982  2.135067  3.269501  1.097830  2.563960
             H (  7)   H (  8)   H (  9)   H ( 10)
   H (  8)  1.842231
   H (  9)  2.510718  3.766508
   H ( 10)  3.588178  4.162828  1.779346
   H ( 11)  3.550480  4.146737  1.782399  1.755140
 
 Applying Cartesian multipole field
    Component          Value
    ---------          -----
     (2,0,0)        1.00000E-11
     (0,2,0)        2.00000E-11
     (0,0,2)       -3.00000E-11
 Nucleus-field energy     =     0.0000000335 hartrees
 Requested basis set is 6-31G(d,p)
 There are 46 shells and 145 basis functions
 A cutoff of  1.0D-14 yielded    921 shell pairs
 There are      9024 function pairs
 Smallest overlap matrix eigenvalue = 7.24E-04
 Guess from superposition of atomic densities
 Warning:  Energy on first SCF cycle will be non-variational
 SAD guess density has 93.945746 electrons

 -----------------------------------------------------------------------
  General SCF calculation program by
  Eric Jon Sundstrom, Paul Horn, Yuezhi Mao, Dmitri Zuev, Alec White,
  David Stuck, Shaama M.S., Shane Yost, Joonho Lee, David Small,
  Daniel Levine, Susi Lehtola, Hugh Burton, Evgeny Epifanovsky
 -----------------------------------------------------------------------
 Exchange:     0.2000 Hartree-Fock + 0.0800 Slater + 0.7200 B88
 Correlation:  0.1900 VWN1RPA + 0.8100 LYP
 Using SG-1 standard quadrature grid
 using 12 threads for integral computing
 -------------------------------------------------------
 OpenMP Integral computing Module                
 Release: version 1.0, May 2013, Q-Chem Inc. Pittsburgh 
 -------------------------------------------------------
 -------------------------------------------------------
 OpenMP BLAS3 based DFT computing Module                
 Release: version 1.0, May 2013, Q-Chem Inc. Pittsburgh 
 -------------------------------------------------------
 A unrestricted SCF calculation will be
 performed using DIIS
 SCF converges when DIIS error is below 1.0e-06
 Alpha HF Exchange    Energy = -19.60291279371142
 Beta HF Exchange     Energy = -19.60291279371142
 DFT Correlation      Energy =  -5.19418128461870
 DFT Exchange         Energy = -155.85922528812222
 One-Electron (alpha) Energy = -4183.45235714587761
 One-Electron (beta)  Energy = -4183.45235714587761
 Total Coulomb        Energy = 2767.26292534673257
 ---------------------------------------
  Cycle       Energy         DIIS error
 ---------------------------------------
    1   -5272.8089379058      1.83e-01  
 Alpha HF Exchange    Energy = -19.84060979282417
 Beta HF Exchange     Energy = -19.61670943725238
 DFT Correlation      Energy =  -5.24221207794036
 DFT Exchange         Energy = -157.04760974094322
 One-Electron (alpha) Energy = -4221.16782387904550
 One-Electron (beta)  Energy = -4168.05892643445804
 Total Coulomb        Energy = 2798.39573130975305
    2   -5265.4860768533      1.04e-02  
 Alpha HF Exchange    Energy = -19.69390619909765
 Beta HF Exchange     Energy = -19.49399757986409
 DFT Correlation      Energy =  -5.20293917195659
 DFT Exchange         Energy = -155.96601568594275
 One-Electron (alpha) Energy = -4204.79778637751951
 One-Electron (beta)  Energy = -4148.67192172525301
 Total Coulomb        Energy = 2761.48007354225501
    3   -5265.2544099980      5.13e-03  
 Alpha HF Exchange    Energy = -19.80177091913625
 Beta HF Exchange     Energy = -19.59767323406492
 DFT Correlation      Energy =  -5.22471628552146
 DFT Exchange         Energy = -156.76759569229677
 One-Electron (alpha) Energy = -4218.08562519511725
 One-Electron (beta)  Energy = -4164.96133505744638
 Total Coulomb        Energy = 2792.13223241552168
    4   -5265.2144007686      5.50e-03  
 Alpha HF Exchange    Energy = -19.78528475239679
 Beta HF Exchange     Energy = -19.56094566377891
 DFT Correlation      Energy =  -5.22683561560256
 DFT Exchange         Energy = -156.59972934105144
 One-Electron (alpha) Energy = -4215.61385089510350
 One-Electron (beta)  Energy = -4161.63704751426940
 Total Coulomb        Energy = 2785.71618116625814
    5   -5265.6154294165      1.09e-03  
 Alpha HF Exchange    Energy = -19.76714925955575
 Beta HF Exchange     Energy = -19.54326871486617
 DFT Correlation      Energy =  -5.22202186142862
 DFT Exchange         Energy = -156.45864435411565
 One-Electron (alpha) Energy = -4213.46690502002639
 One-Electron (beta)  Energy = -4158.81187191814843
 Total Coulomb        Energy = 2780.54727135211351
    6   -5265.6305065766      4.10e-04  
 Alpha HF Exchange    Energy = -19.76885259639022
 Beta HF Exchange     Energy = -19.54546481216329
 DFT Correlation      Energy =  -5.22185004522106
 DFT Exchange         Energy = -156.47004982753148
 One-Electron (alpha) Energy = -4213.62261349768323
 One-Electron (beta)  Energy = -4159.08009510227566
 Total Coulomb        Energy = 2780.98357449140485
    7   -5265.6332681904      2.06e-04  
 Alpha HF Exchange    Energy = -19.76921519672034
 Beta HF Exchange     Energy = -19.54575376271045
 DFT Correlation      Energy =  -5.22208167277222
 DFT Exchange         Energy = -156.47270366078845
 One-Electron (alpha) Energy = -4213.60937201785873
 One-Electron (beta)  Energy = -4158.79733301762008
 Total Coulomb        Energy = 2780.69036628698450
    8   -5265.6340098421      1.10e-04  
 Alpha HF Exchange    Energy = -19.76897211524711
 Beta HF Exchange     Energy = -19.54599528743748
 DFT Correlation      Energy =  -5.22178890093251
 DFT Exchange         Energy = -156.47067665502516
 One-Electron (alpha) Energy = -4213.64301120033542
 One-Electron (beta)  Energy = -4158.90045904355520
 Total Coulomb        Energy = 2780.82456115238756
    9   -5265.6342588507      5.07e-05  
 Alpha HF Exchange    Energy = -19.76905586614460
 Beta HF Exchange     Energy = -19.54623398961679
 DFT Correlation      Energy =  -5.22171305813062
 DFT Exchange         Energy = -156.47124951636167
 One-Electron (alpha) Energy = -4213.61024477364390
 One-Electron (beta)  Energy = -4158.85040506310725
 Total Coulomb        Energy = 2780.74249154959762
   10   -5265.6343275180      2.84e-05  
 Alpha HF Exchange    Energy = -19.76910885500460
 Beta HF Exchange     Energy = -19.54642906013947
 DFT Correlation      Energy =  -5.22168529047374
 DFT Exchange         Energy = -156.47189360161502
 One-Electron (alpha) Energy = -4213.61471166155206
 One-Electron (beta)  Energy = -4158.85432868290718
 Total Coulomb        Energy = 2780.75173164190619
   11   -5265.6343423104      9.34e-06  
 Alpha HF Exchange    Energy = -19.76912482297617
 Beta HF Exchange     Energy = -19.54649526284526
 DFT Correlation      Energy =  -5.22167130798142
 DFT Exchange         Energy = -156.47205525286617
 One-Electron (alpha) Energy = -4213.61244747862111
 One-Electron (beta)  Energy = -4158.86525729176992
 Total Coulomb        Energy = 2780.76062226861086
   12   -5265.6343459490      3.74e-06  
 Alpha HF Exchange    Energy = -19.76911410929011
 Beta HF Exchange     Energy = -19.54651489597431
 DFT Correlation      Energy =  -5.22166701306646
 DFT Exchange         Energy = -156.47204807532398
 One-Electron (alpha) Energy = -4213.60867862667328
 One-Electron (beta)  Energy = -4158.86829013367424
 Total Coulomb        Energy = 2780.75988320999431
   13   -5265.6343464446      1.86e-06  
 Alpha HF Exchange    Energy = -19.76911147348580
 Beta HF Exchange     Energy = -19.54651952332047
 DFT Correlation      Energy =  -5.22166225176076
 DFT Exchange         Energy = -156.47204357667908
 One-Electron (alpha) Energy = -4213.60720861668506
 One-Electron (beta)  Energy = -4158.86965868808329
 Total Coulomb        Energy = 2780.75977439564758
   14   -5265.6343465349      6.14e-07  Convergence criterion met
 ---------------------------------------
 SCF time:   CPU 52.38s  wall 5.00s 
<S^2> =          2.011248284
 Alpha HF Exchange    Energy = -19.76911147348580
 Beta HF Exchange     Energy = -19.54651952332047
 DFT Correlation      Energy =  -5.22166225176076
 DFT Exchange         Energy = -156.47204357667908
 One-Electron (alpha) Energy = -4213.60720861668506
 One-Electron (beta)  Energy = -4158.86965868808329
 Total Coulomb        Energy = 2780.75977439564758
 Nuclear repulsion Energy = 527.09208319942297
 SCF   energy in the final basis set =    -5265.6343465349
 Total energy in the final basis set =    -5265.6343465349
 
 --------------------------------------------------------------
 
                    Orbital Energies (a.u.)
 --------------------------------------------------------------
 
 Alpha MOs
 -- Occupied --
*******-482.829 -62.529 -62.486 -56.350 -56.348 -56.346 -56.309
-56.304 -56.304 -10.266 -10.255 -10.225  -8.716  -8.673  -6.544
 -6.538  -6.531  -6.506  -6.491  -6.490  -2.638  -2.637  -2.632
 -2.628  -2.627  -2.598  -2.594  -2.594  -2.583  -2.583  -0.849
 -0.780  -0.734  -0.726  -0.611  -0.518  -0.474  -0.460  -0.418
 -0.402  -0.373  -0.354  -0.305  -0.274  -0.261  -0.261  -0.251
 -- Virtual --
 -0.047   0.073   0.096   0.113   0.134   0.136   0.150   0.208
  0.236   0.251   0.294   0.322   0.333   0.369   0.371   0.379
  0.418   0.463   0.474   0.498   0.515   0.524   0.549   0.564
  0.570   0.584   0.619   0.637   0.638   0.651   0.656   0.666
  0.689   0.744   0.809   0.816   0.821   0.854   0.862   0.892
  0.911   0.967   1.131   1.244   1.250   1.275   1.343   1.452
  1.575   1.736   1.759   1.773   1.797   1.842   1.874   1.963
  1.999   2.044   2.066   2.070   2.137   2.249   2.315   2.333
  2.421   2.443   2.493   2.584   2.614   2.647   2.781   2.819
  2.823   2.939   3.138   3.231   3.372   3.383   3.422   3.579
  4.148   4.374   4.525   4.661   4.692   4.706   4.723   4.747
  4.747   4.748   4.752   4.848   4.881   6.257   6.314  90.209
 90.357
 
 Beta MOs
 -- Occupied --
*******-482.827 -62.527 -62.485 -56.346 -56.345 -56.345 -56.305
-56.303 -56.303 -10.259 -10.254 -10.225  -8.712  -8.670  -6.537
 -6.533  -6.529  -6.497  -6.489  -6.488  -2.632  -2.632  -2.628
 -2.625  -2.624  -2.592  -2.589  -2.589  -2.581  -2.581  -0.836
 -0.752  -0.725  -0.694  -0.604  -0.515  -0.471  -0.450  -0.415
 -0.400  -0.336  -0.310  -0.292  -0.255  -0.250
 -- Virtual --
 -0.175  -0.153  -0.019   0.075   0.097   0.115   0.138   0.139
  0.153   0.215   0.239   0.260   0.301   0.327   0.352   0.376
  0.378   0.393   0.433   0.470   0.485   0.519   0.538   0.544
  0.570   0.578   0.586   0.603   0.630   0.644   0.646   0.673
  0.680   0.688   0.698   0.755   0.813   0.821   0.827   0.857
  0.880   0.901   0.913   0.978   1.134   1.251   1.259   1.281
  1.358   1.454   1.578   1.747   1.770   1.781   1.809   1.850
  1.884   1.972   2.001   2.047   2.069   2.072   2.147   2.252
  2.317   2.339   2.426   2.452   2.497   2.591   2.618   2.651
  2.783   2.821   2.827   2.941   3.141   3.233   3.375   3.386
  3.423   3.581   4.159   4.376   4.531   4.670   4.700   4.718
  4.733   4.749   4.752   4.758   4.761   4.857   4.893   6.270
  6.327  90.214  90.362
 --------------------------------------------------------------
 
          Ground-State Mulliken Net Atomic Charges

     Atom                 Charge (a.u.)    Spin (a.u.)
  --------------------------------------------------------
      1 Br                   -0.249037       0.731973
      2 Br                   -0.095088       0.807770
      3 C                     0.019955       0.459795
      4 C                    -0.247451       0.007037
      5 C                    -0.360909      -0.031691
      6 H                     0.138168      -0.020285
      7 H                     0.169598       0.000750
      8 H                     0.186113       0.000761
      9 H                     0.138251       0.000398
     10 H                     0.155557       0.023754
     11 H                     0.144845       0.019738
  --------------------------------------------------------
  Sum of atomic charges =    -0.000000
  Sum of spin   charges =     2.000000

 -----------------------------------------------------------------
                    Cartesian Multipole Moments
 -----------------------------------------------------------------
    Charge (ESU x 10^10)
                -0.0000
    Dipole Moment (Debye)
         X      -3.8574      Y      -5.3425      Z      -1.0259
       Tot       6.6689
    Quadrupole Moments (Debye-Ang)
        XX     -60.0955     XY      -4.5964     YY     -63.0617
        XZ      -0.7686     YZ      -1.0355     ZZ     -56.0474
    Octopole Moments (Debye-Ang^2)
       XXX    -110.6326    XXY     -79.4168    XYY     -51.6671
       YYY    -198.6845    XXZ     -17.4712    XYZ      -3.3966
       YYZ     -14.4754    XZZ     -32.9094    YZZ     -64.1093
       ZZZ     -43.4891
    Hexadecapole Moments (Debye-Ang^3)
      XXXX   -1067.9638   XXXY    -427.5139   XXYY    -416.6708
      XYYY    -448.2281   YYYY   -1286.0230   XXXZ     -49.9299
      XXYZ     -37.9070   XYYZ     -19.7590   YYYZ     -96.6592
      XXZZ    -208.0177   XYZZ    -141.1565   YYZZ    -237.1347
      XZZZ     -43.3542   YZZZ    -100.8879   ZZZZ    -138.5003
 -----------------------------------------------------------------
 Calculating analytic gradient of the SCF energy
 Gradient of SCF Energy
            1           2           3           4           5           6
    1  -0.0004228   0.0003622   0.0005542  -0.0004025  -0.0001188  -0.0000265
    2  -0.0002105   0.0000378   0.0003379  -0.0001871  -0.0000277  -0.0001519
    3  -0.0000187  -0.0002785   0.0001286   0.0001294  -0.0000050  -0.0000029
            7           8           9          10          11
    1   0.0001565  -0.0000382  -0.0000678   0.0000181  -0.0000144
    2   0.0001353  -0.0001371   0.0000827   0.0000740   0.0000466
    3   0.0000084  -0.0000688   0.0000714  -0.0000347   0.0000707
 Max gradient component =       5.542E-04
 RMS gradient           =       1.925E-04
 Gradient time:  CPU 14.75 s  wall 1.31 s
 Geometry Optimization Parameters
   NAtoms,    NIC,     NZ,  NCons,   NDum,   NFix, NCnnct, MaxDiis
       11      84       0       1       0       0       0       0

 Cartesian Hessian Update
 Hessian Updated using BFGS Update


** CONSTRAINED OPTIMIZATION IN DELOCALIZED INTERNAL COORDINATES **
   Searching for a Minimum

   Optimization Cycle:   4

                       Coordinates (Angstroms)
     ATOM                X               Y               Z
      1  Br        2.6474886559    2.3782511043    0.3474689521
      2  Br       -0.2266231073    1.8736495909    0.4867166286
      3  C        -0.8080953161   -0.9721526639   -0.5710822252
      4  C         0.3956000560   -0.5237230987   -0.0799354548
      5  C        -1.9011606234   -1.5512406896    0.2562082110
      6  H        -1.0047714492   -0.8509127030   -1.6353390445
      7  H         0.6871316757   -0.7252700140    0.9453337146
      8  H         1.1831023821   -0.1953028222   -0.7478765841
      9  H        -1.6294400405   -1.6212639392    1.3119354848
     10  H        -2.8090410234   -0.9401102802    0.1671022668
     11  H        -2.1693932098   -2.5509274847   -0.1097259494
   Point Group: c1    Number of degrees of freedom:    27


   Energy is  -5265.634346535

              Constraints and their Current Values
                                        Value     Constraint
   Distance(Angs):        1   3             4.900000     4.900000
 Hessian Updated using BFGS Update

 26 Hessian modes will be used to form the next step
  Hessian Eigenvalues:
     0.030054    0.042958    0.045000    0.045045    0.045241    0.059237
     0.061741    0.066184    0.079352    0.091261    0.092371    0.095281
     0.112826    0.159841    0.160000    0.160023    0.161031    0.220295
     0.304314    0.321726    0.336604    0.338924    0.339159    0.345490
     0.349164    0.472570

 Minimum Search - Taking Simple RFO Step
 Searching for Lamda that Minimizes Along All modes
 Value Taken    Lamda =  -0.00000481
 Step Taken.  Stepsize is  0.009872

                             Maximum     Tolerance    Cnvgd?
         Gradient           0.000236      0.000300     YES
         Displacement       0.004482      0.001200      NO
         Energy change     -0.000048      0.000001      NO


 New Cartesian Coordinates Obtained by Inverse Iteration

 Displacement from previous Coordinates is:  0.012418
 ----------------------------------------------------------------
[...]
   Br(  2)  2.961628
   C (  3)  4.900000  3.100874
   C (  4)  3.907545  2.535104  1.377550
   C (  5)  6.166749  3.871459  1.487631  2.539998
   H (  6)  4.977598  3.519187  1.088878  2.119135  2.207923
   H (  7)  4.286668  2.814668  2.141237  1.084976  2.796179  3.086528
   H (  8)  3.185861  2.753315  2.146737  1.083612  3.516366  2.451728
   H (  9)  6.337898  3.955796  2.154346  2.693370  1.092481  3.110240
   H ( 10)  6.424485  3.865548  2.132338  3.229765  1.098276  2.565436
   H ( 11)  7.020366  4.910458  2.134244  3.282379  1.097521  2.551676
             H (  7)   H (  8)   H (  9)   H ( 10)
   H (  8)  1.846120
   H (  9)  2.501905  3.766203
   H ( 10)  3.559436  4.157876  1.779257
   H ( 11)  3.566715  4.153636  1.782845  1.755111
 
 Applying Cartesian multipole field
    Component          Value
    ---------          -----
     (2,0,0)        1.00000E-11
     (0,2,0)        2.00000E-11
     (0,0,2)       -3.00000E-11
 Nucleus-field energy     =     0.0000000345 hartrees
 Requested basis set is 6-31G(d,p)
 There are 46 shells and 145 basis functions
 A cutoff of  1.0D-14 yielded    912 shell pairs
 There are      8930 function pairs
 Smallest overlap matrix eigenvalue = 7.24E-04
 Guess from superposition of atomic densities
 Warning:  Energy on first SCF cycle will be non-variational
 SAD guess density has 93.945746 electrons

 -----------------------------------------------------------------------
  General SCF calculation program by
  Eric Jon Sundstrom, Paul Horn, Yuezhi Mao, Dmitri Zuev, Alec White,
  David Stuck, Shaama M.S., Shane Yost, Joonho Lee, David Small,
  Daniel Levine, Susi Lehtola, Hugh Burton, Evgeny Epifanovsky
 -----------------------------------------------------------------------
 Exchange:     0.2000 Hartree-Fock + 0.0800 Slater + 0.7200 B88
 Correlation:  0.1900 VWN1RPA + 0.8100 LYP
 Using SG-1 standard quadrature grid
 using 12 threads for integral computing
 -------------------------------------------------------
 OpenMP Integral computing Module                
 Release: version 1.0, May 2013, Q-Chem Inc. Pittsburgh 
 -------------------------------------------------------
 -------------------------------------------------------
 OpenMP BLAS3 based DFT computing Module                
 Release: version 1.0, May 2013, Q-Chem Inc. Pittsburgh 
 -------------------------------------------------------
 A unrestricted SCF calculation will be
 performed using DIIS
 SCF converges when DIIS error is below 1.0e-06
 Alpha HF Exchange    Energy = -19.60199157282158
 Beta HF Exchange     Energy = -19.60199157282158
 DFT Correlation      Energy =  -5.19344650201674
 DFT Exchange         Energy = -155.85764504855413
 One-Electron (alpha) Energy = -4177.04725853219315
 One-Electron (beta)  Energy = -4177.04725853219315
 Total Coulomb        Energy = 2760.88429392510761
 ---------------------------------------
  Cycle       Energy         DIIS error
 ---------------------------------------
    1   -5272.7844670238      1.83e-01  
 Alpha HF Exchange    Energy = -19.83996972980755
 Beta HF Exchange     Energy = -19.61606221048033
 DFT Correlation      Energy =  -5.24152419825998
 DFT Exchange         Energy = -157.04376381675553
 One-Electron (alpha) Energy = -4214.57624787259374
 One-Electron (beta)  Energy = -4161.74236740640117
 Total Coulomb        Energy = 2791.89290998041997
    2   -5265.4861944422      1.04e-02  
 Alpha HF Exchange    Energy = -19.69353363616851
 Beta HF Exchange     Energy = -19.49465696283628
 DFT Correlation      Energy =  -5.20201337047034
 DFT Exchange         Energy = -155.96614531745436
 One-Electron (alpha) Energy = -4198.35724098453193
 One-Electron (beta)  Energy = -4142.44943963698915
 Total Coulomb        Energy = 2755.23617719847925
    3   -5265.2460218983      5.11e-03  
 Alpha HF Exchange    Energy = -19.80056306917973
 Beta HF Exchange     Energy = -19.59837666906947
 DFT Correlation      Energy =  -5.22374543257152
 DFT Exchange         Energy = -156.76448666026502
 One-Electron (alpha) Energy = -4211.36583453641015
 One-Electron (beta)  Energy = -4158.71103199891422
 Total Coulomb        Energy = 2785.57533699793930
    4   -5265.2078705568      5.51e-03  
 Alpha HF Exchange    Energy = -19.78482233965045
 Beta HF Exchange     Energy = -19.56102042949740
 DFT Correlation      Energy =  -5.22609817055339
 DFT Exchange         Energy = -156.59783897416992
 One-Electron (alpha) Energy = -4209.08533804842136
 One-Electron (beta)  Energy = -4155.44949563090086
 Total Coulomb        Energy = 2779.41083725726276
    5   -5265.6129455243      1.13e-03  
 Alpha HF Exchange    Energy = -19.76677641527551
 Beta HF Exchange     Energy = -19.54314408484413
 DFT Correlation      Energy =  -5.22132073944494
 DFT Exchange         Energy = -156.45691455560592
 One-Electron (alpha) Energy = -4206.91304229264824
 One-Electron (beta)  Energy = -4152.57123238387157
 Total Coulomb        Energy = 2774.16072298661538
    6   -5265.6308766734      3.95e-04  
 Alpha HF Exchange    Energy = -19.76845770914711
 Beta HF Exchange     Energy = -19.54539768517184
 DFT Correlation      Energy =  -5.22114248570445
 DFT Exchange         Energy = -156.46839524902097
 One-Electron (alpha) Energy = -4207.09732540396453
 One-Electron (beta)  Energy = -4152.83124011051768
 Total Coulomb        Energy = 2774.61757401181603
    7   -5265.6335538200      2.19e-04  
 Alpha HF Exchange    Energy = -19.76868927191985
 Beta HF Exchange     Energy = -19.54538721067048
 DFT Correlation      Energy =  -5.22136306462464
 DFT Exchange         Energy = -156.46977780381670
 One-Electron (alpha) Energy = -4207.06367206157847
 One-Electron (beta)  Energy = -4152.50088297999264
 Total Coulomb        Energy = 2774.25462524103068
    8   -5265.6343163399      1.18e-04  
 Alpha HF Exchange    Energy = -19.76841809318410
 Beta HF Exchange     Energy = -19.54558588484520
 DFT Correlation      Energy =  -5.22105496956284
 DFT Exchange         Energy = -156.46749252497079
 One-Electron (alpha) Energy = -4207.10167331286266
 One-Electron (beta)  Energy = -4152.60084695479145
 Total Coulomb        Energy = 2774.38966525962087
    9   -5265.6345756689      4.94e-05  
 Alpha HF Exchange    Energy = -19.76856100513754
 Beta HF Exchange     Energy = -19.54586778103682
 DFT Correlation      Energy =  -5.22098043609003
 DFT Exchange         Energy = -156.46845323442056
 One-Electron (alpha) Energy = -4207.07817362167134
 One-Electron (beta)  Energy = -4152.55181312251534
 Total Coulomb        Energy = 2774.31837647629027
   10   -5265.6346419129      2.82e-05  
 Alpha HF Exchange    Energy = -19.76861551472633
 Beta HF Exchange     Energy = -19.54604608188034
 DFT Correlation      Energy =  -5.22095807285548
 DFT Exchange         Energy = -156.46908091407286
 One-Electron (alpha) Energy = -4207.08397136624262
 One-Electron (beta)  Energy = -4152.55117027217511
 Total Coulomb        Energy = 2774.32435564454909
   11   -5265.6346557657      1.04e-05  
 Alpha HF Exchange    Energy = -19.76863454493952
 Beta HF Exchange     Energy = -19.54611089434342
 DFT Correlation      Energy =  -5.22094063558654
 DFT Exchange         Energy = -156.46922911041037
 One-Electron (alpha) Energy = -4207.08280139672206
 One-Electron (beta)  Energy = -4152.56172188732762
 Total Coulomb        Energy = 2774.33394748917499
   12   -5265.6346601685      4.12e-06  
 Alpha HF Exchange    Energy = -19.76862496456655
 Beta HF Exchange     Energy = -19.54613634877713
 DFT Correlation      Energy =  -5.22093359415922
 DFT Exchange         Energy = -156.46923145693734
 One-Electron (alpha) Energy = -4207.07892687470394
 One-Electron (beta)  Energy = -4152.56478648293705
 Total Coulomb        Energy = 2774.33314804271004
   13   -5265.6346608677      1.92e-06  
 Alpha HF Exchange    Energy = -19.76862288395340
 Beta HF Exchange     Energy = -19.54614112705079
 DFT Correlation      Energy =  -5.22092846911287
 DFT Exchange         Energy = -156.46922830694945
 One-Electron (alpha) Energy = -4207.07757924610814
 One-Electron (beta)  Energy = -4152.56598588480392
 Total Coulomb        Energy = 2774.33299413410441
   14   -5265.6346609722      7.14e-07  Convergence criterion met
 ---------------------------------------
 SCF time:   CPU 51.17s  wall 5.00s 
<S^2> =          2.011645147
 Alpha HF Exchange    Energy = -19.76862288395340
 Beta HF Exchange     Energy = -19.54614112705079
 DFT Correlation      Energy =  -5.22092846911287
 DFT Exchange         Energy = -156.46922830694945
 One-Electron (alpha) Energy = -4207.07757924610814
 One-Electron (beta)  Energy = -4152.56598588480392
 Total Coulomb        Energy = 2774.33299413410441
 Nuclear repulsion Energy = 520.68083081166947
 SCF   energy in the final basis set =    -5265.6346609722
 Total energy in the final basis set =    -5265.6346609722
 
 --------------------------------------------------------------
 
                    Orbital Energies (a.u.)
 --------------------------------------------------------------
 
 Alpha MOs
 -- Occupied --
*******-482.830 -62.528 -62.487 -56.350 -56.347 -56.345 -56.310
-56.305 -56.305 -10.266 -10.256 -10.225  -8.715  -8.674  -6.544
 -6.537  -6.531  -6.507  -6.491  -6.491  -2.638  -2.637  -2.632
 -2.627  -2.626  -2.599  -2.595  -2.594  -2.583  -2.583  -0.849
 -0.779  -0.735  -0.726  -0.611  -0.519  -0.474  -0.460  -0.419
 -0.403  -0.373  -0.350  -0.304  -0.274  -0.262  -0.261  -0.253
 -- Virtual --
 -0.047   0.072   0.095   0.112   0.134   0.135   0.149   0.208
  0.235   0.256   0.298   0.321   0.336   0.369   0.372   0.382
  0.410   0.448   0.476   0.498   0.516   0.529   0.554   0.562
  0.570   0.587   0.613   0.638   0.638   0.642   0.649   0.667
  0.691   0.737   0.809   0.815   0.820   0.847   0.860   0.891
  0.924   0.962   1.136   1.238   1.249   1.277   1.344   1.452
  1.575   1.734   1.759   1.776   1.792   1.842   1.872   1.962
  1.998   2.043   2.062   2.068   2.136   2.248   2.315   2.330
  2.423   2.437   2.488   2.584   2.613   2.647   2.782   2.818
  2.821   2.934   3.137   3.234   3.373   3.381   3.422   3.575
  4.149   4.373   4.524   4.664   4.696   4.703   4.728   4.745
  4.746   4.746   4.750   4.849   4.871   6.260   6.310  90.222
 90.342
 
 Beta MOs
 -- Occupied --
*******-482.828 -62.527 -62.486 -56.346 -56.345 -56.344 -56.306
-56.304 -56.304 -10.260 -10.255 -10.226  -8.711  -8.671  -6.537
 -6.532  -6.529  -6.498  -6.490  -6.489  -2.632  -2.631  -2.628
 -2.624  -2.624  -2.593  -2.590  -2.590  -2.582  -2.582  -0.836
 -0.752  -0.724  -0.694  -0.604  -0.515  -0.471  -0.450  -0.416
 -0.400  -0.336  -0.306  -0.292  -0.255  -0.250
 -- Virtual --
 -0.175  -0.155  -0.020   0.075   0.096   0.114   0.137   0.139
  0.152   0.215   0.240   0.266   0.302   0.328   0.352   0.377
  0.380   0.395   0.426   0.454   0.484   0.518   0.538   0.549
  0.572   0.578   0.589   0.607   0.626   0.645   0.646   0.663
  0.676   0.683   0.702   0.749   0.816   0.819   0.824   0.855
  0.872   0.899   0.927   0.973   1.139   1.246   1.258   1.283
  1.360   1.454   1.577   1.746   1.770   1.783   1.805   1.848
  1.884   1.971   2.001   2.046   2.065   2.070   2.146   2.251
  2.317   2.336   2.428   2.446   2.492   2.591   2.617   2.651
  2.784   2.820   2.825   2.936   3.140   3.236   3.376   3.385
  3.423   3.578   4.160   4.375   4.531   4.673   4.703   4.715
  4.738   4.748   4.750   4.755   4.760   4.858   4.883   6.273
  6.323  90.227  90.348
 --------------------------------------------------------------
 
          Ground-State Mulliken Net Atomic Charges

     Atom                 Charge (a.u.)    Spin (a.u.)
  --------------------------------------------------------
      1 Br                   -0.241910       0.739710
      2 Br                   -0.098534       0.798690
      3 C                     0.022830       0.464741
      4 C                    -0.252391       0.001981
      5 C                    -0.362033      -0.032488
      6 H                     0.140953      -0.020451
      7 H                     0.162415       0.000300
      8 H                     0.190188       0.002281
      9 H                     0.135743       0.000480
     10 H                     0.157673       0.025623
     11 H                     0.145067       0.019134
  --------------------------------------------------------
  Sum of atomic charges =    -0.000000
  Sum of spin   charges =     2.000000

 -----------------------------------------------------------------
                    Cartesian Multipole Moments
 -----------------------------------------------------------------
    Charge (ESU x 10^10)
                -0.0000
    Dipole Moment (Debye)
         X      -3.7411      Y      -5.6061      Z      -0.3594
       Tot       6.7493
    Quadrupole Moments (Debye-Ang)
        XX     -59.5153     XY      -4.9542     YY     -64.2651
        XZ       0.6892     YZ       0.1651     ZZ     -56.0040
    Octopole Moments (Debye-Ang^2)
       XXX    -111.8181    XXY     -82.5186    XYY     -53.3533
       YYY    -213.3032    XXZ      -9.8481    XYZ      -1.0117
       YYZ      -4.9257    XZZ     -32.8189    YZZ     -66.9567
       ZZZ     -24.7761
    Hexadecapole Moments (Debye-Ang^3)
      XXXX   -1014.7577   XXXY    -465.8225   XXYY    -427.4334
      XYYY    -492.2937   YYYY   -1432.9860   XXXZ      34.1812
      XXYZ     -15.1350   XYYZ      14.2810   YYYZ     -22.2974
      XXZZ    -198.9947   XYZZ    -152.1636   YYZZ    -259.5649
      XZZZ      44.9209   YZZZ     -34.9602   ZZZZ    -167.9072
 -----------------------------------------------------------------
 Calculating analytic gradient of the SCF energy
 Gradient of SCF Energy
            1           2           3           4           5           6
    1   0.0009938   0.0000410  -0.0011199   0.0001620  -0.0000153   0.0000171
    2   0.0010628   0.0000383  -0.0010466  -0.0001623  -0.0000001  -0.0000523
    3   0.0000686  -0.0000317  -0.0001129   0.0000054   0.0000014  -0.0000040
            7           8           9          10          11
    1  -0.0000442   0.0000049  -0.0000189  -0.0000033  -0.0000172
    2   0.0000364   0.0000566   0.0000355   0.0000225   0.0000092
    3   0.0000343   0.0000106   0.0000117  -0.0000064   0.0000230
 Max gradient component =       1.120E-03
 RMS gradient           =       3.715E-04
 Gradient time:  CPU 14.56 s  wall 1.29 s
 Geometry Optimization Parameters
   NAtoms,    NIC,     NZ,  NCons,   NDum,   NFix, NCnnct, MaxDiis
       11      84       0       1       0       0       0       0

 Cartesian Hessian Update
 Hessian Updated using BFGS Update


** CONSTRAINED OPTIMIZATION IN DELOCALIZED INTERNAL COORDINATES **
   Searching for a Minimum

   Optimization Cycle:  25

                       Coordinates (Angstroms)
     ATOM                X               Y               Z
      1  Br        2.5471628140    2.6500586026   -0.2760945843
      2  Br       -0.0920210535    1.7960462718    0.7615034211
      3  C        -0.7690212742   -0.9496550747   -0.5105872464
      4  C         0.4122772974   -0.6003542663    0.1059902656
      5  C        -1.9402339123   -1.5553772223    0.1781842323
      6  H        -0.8800373212   -0.7201988361   -1.5692088525
      7  H         0.6078429963   -0.9053855985    1.1286746736
      8  H         1.2632297240   -0.2590650622   -0.4716051965
      9  H        -1.7374909237   -1.7706570473    1.2298805133
     10  H        -2.8052257112   -0.8812362160    0.1187417323
     11  H        -2.2416846356   -2.4831785511   -0.3246729586
   Point Group: c1    Number of degrees of freedom:    27


   Energy is  -5265.634660972

              Constraints and their Current Values
                                        Value     Constraint
   Distance(Angs):        1   3             4.900000     4.900000
 Hessian Updated using BFGS Update

 26 Hessian modes will be used to form the next step
  Hessian Eigenvalues:
     0.001972    0.003468    0.006796    0.013913    0.026578    0.041995
     0.044850    0.066823    0.073285    0.089909    0.091928    0.095242
     0.098955    0.159549    0.159982    0.160711    0.169583    0.222260
     0.304922    0.334326    0.337728    0.338806    0.339612    0.346604
     0.351501    0.692781

 Minimum Search - Taking Simple RFO Step
 Searching for Lamda that Minimizes Along All modes
 Value Taken    Lamda =   0.00000000
 Step Taken.  Stepsize is  0.004453

                             Maximum     Tolerance    Cnvgd?
         Gradient           0.000067      0.000300     YES
         Displacement       0.001876      0.001200      NO
         Energy change     -0.000001      0.000001     YES


                       Distance Matrix (Angstroms)
             Br(  1)   Br(  2)   C (  3)   C (  4)   C (  5)   H (  6)
   Br(  2)  2.961628
   C (  3)  4.900000  3.100874
   C (  4)  3.907545  2.535104  1.377550
   C (  5)  6.166749  3.871459  1.487631  2.539998
   H (  6)  4.977598  3.519187  1.088878  2.119135  2.207923
   H (  7)  4.286668  2.814668  2.141237  1.084976  2.796179  3.086528
   H (  8)  3.185861  2.753315  2.146737  1.083612  3.516366  2.451728
   H (  9)  6.337898  3.955796  2.154346  2.693370  1.092481  3.110240
   H ( 10)  6.424485  3.865548  2.132338  3.229765  1.098276  2.565436
   H ( 11)  7.020366  4.910458  2.134244  3.282379  1.097521  2.551676
             H (  7)   H (  8)   H (  9)   H ( 10)
   H (  8)  1.846120
   H (  9)  2.501905  3.766203
   H ( 10)  3.559436  4.157876  1.779257
   H ( 11)  3.566715  4.153636  1.782845  1.755111
 
 Final energy is   -5265.63466097220     


 ******************************
 **  OPTIMIZATION CONVERGED  **
 ******************************

                       Coordinates (Angstroms)
     ATOM                X               Y               Z
      1  Br        2.5471628140    2.6500586026   -0.2760945843
      2  Br       -0.0920210535    1.7960462718    0.7615034211
      3  C        -0.7690212742   -0.9496550747   -0.5105872464
      4  C         0.4122772974   -0.6003542663    0.1059902656
      5  C        -1.9402339123   -1.5553772223    0.1781842323
      6  H        -0.8800373212   -0.7201988361   -1.5692088525
      7  H         0.6078429963   -0.9053855985    1.1286746736
      8  H         1.2632297240   -0.2590650622   -0.4716051965
      9  H        -1.7374909237   -1.7706570473    1.2298805133
     10  H        -2.8052257112   -0.8812362160    0.1187417323
     11  H        -2.2416846356   -2.4831785511   -0.3246729586

Z-matrix Print:
$molecule
0 3
Br
C  1 2.535104
H  2 1.083612 1 89.789128
H  2 1.084976 1 93.318491 3 116.741659 0
C  2 1.377550 1 100.651939 3 -121.536167 0
H  5 1.088878 2 117.979080 1 86.379348 0
C  5 1.487631 2 124.830469 1 -90.212200 0
H  7 1.092481 5 112.323919 2 -4.482003 0
H  7 1.097521 5 110.384397 2 -126.346585 0
H  7 1.098276 5 110.186798 2 116.759039 0
Br 1 2.961628 2 90.270609 3 -12.215155 0
$end

PES scan, value:    4.9000 energy: -5265.6346609722
------- Summary of potential scan: ------ 
    4.9000     -5265.6346609722
----------------------------------------- 
Archival summary:
1\1\hpc0242\JobtypUnspecified\ProcedureUnspecified\6-31G**\r236(3)\knomura\WedMar1320:50:272019WedMar1320:50:272019\0\\#,JobtypUnspecified,ProcedureUnspecified,6-31G**,\\0,3\Br\C,1,2.5351\H,2,1.08361,1,89.7891\H,2,1.08498,1,93.3185,3,116.742,0\C,2,1.37755,1,100.652,3,-121.536,0\H,5,1.08888,2,117.979,1,86.3793,0\C,5,1.48763,2,124.83,1,-90.2122,0\H,7,1.09248,5,112.324,2,-4.482,0\H,7,1.09752,5,110.384,2,-126.347,0\H,7,1.09828,5,110.187,2,116.759,0\Br,1,2.96163,2,90.2706,3,-12.2152,0\\\@

 Total job time:  154.30s(wall), 1803.99s(cpu) 
 Wed Mar 13 20:50:27 2019

        *************************************************************
        *                                                           *
        *  Thank you very much for using Q-Chem.  Have a nice day.  *
        *                                                           *
        *************************************************************


