
Running Job 1 of 1 halogens/Bromine/03/Br_1_3.xyz.data/inputs/bond_triplet_5.0.in
qchem halogens/Bromine/03/Br_1_3.xyz.data/inputs/bond_triplet_5.0.in_2586.0 /staging/scratch/2868759/qchem2586/ 1
/usr/usc/qchem/5.1.1/exe/qcprog.exe_s halogens/Bromine/03/Br_1_3.xyz.data/inputs/bond_triplet_5.0.in_2586.0 /staging/scratch/2868759/qchem2586/
Check license passed

                  Welcome to Q-Chem
     A Quantum Leap Into The Future Of Chemistry


 Q-Chem 5.1, Q-Chem, Inc., Pleasanton, CA (2018)

 Yihan Shao,  Zhengting Gan,  E. Epifanovsky,  A. T. B. Gilbert,  M. Wormit,  
 J. Kussmann,  A. W. Lange,  A. Behn,  Jia Deng,  Xintian Feng,  D. Ghosh,  
 M. Goldey,  P. R. Horn,  L. D. Jacobson,  I. Kaliman,  T. Kus,  A. Landau,  
 Jie Liu,  E. I. Proynov,  R. M. Richard,  R. P. Steele,  E. J. Sundstrom,  
 H. L. Woodcock III,  P. M. Zimmerman,  D. Zuev,  B. Albrecht,  E. Alguire,  
 S. A. Baeppler,  D. Barton,  Z. Benda,  Y. A. Bernard,  E. J. Berquist,  
 K. B. Bravaya,  H. Burton,  D. Casanova,  Chun-Min Chang,  Yunqing Chen,  
 A. Chien,  K. D. Closser,  M. P. Coons,  S. Coriani,  S. Dasgupta,  
 A. L. Dempwolff,  M. Diedenhofen,  Hainam Do,  R. G. Edgar,  Po-Tung Fang,  
 S. Faraji,  S. Fatehi,  Qingguo Feng,  K. D. Fenk,  J. Fosso-Tande,  
 Qinghui Ge,  A. Ghysels,  G. Gidofalvi,  J. Gomes,  J. Gonthier,  A. Gunina,  
 D. Hait,  M. W. D. Hanson-Heine,  P. H. P. Harbach,  A. W. Hauser,  
 J. E. Herr,  E. G. Hohenstein,  Z. C. Holden,  Kerwin Hui,  B. C. Huynh,  
 T.-C. Jagau,  Hyunjun Ji,  B. Kaduk,  K. Khistyaev,  Jaehoon Kim,  
 P. Klunzinger,  K. Koh,  D. Kosenkov,  L. Koulias,  T. Kowalczyk,  
 C. M. Krauter,  A. Kunitsa,  Ka Un Lao,  A. Laurent,  K. V. Lawler,  
 Joonho Lee,  D. Lefrancois,  S. Lehtola,  D. S. Levine,  Yi-Pei Li,  
 You-Sheng Lin,  Fenglai Liu,  E. Livshits,  A. Luenser,  P. Manohar,  
 E. Mansoor,  S. F. Manzer,  Shan-Ping Mao,  Yuezhi Mao,  N. Mardirossian,  
 A. V. Marenich,  T. Markovich,  L. A. Martinez-Martinez,  S. A. Maurer,  
 N. J. Mayhall,  S. C. McKenzie,  J.-M. Mewes,  A. F. Morrison,  
 J. W. Mullinax,  K. Nanda,  T. S. Nguyen-Beck,  R. Olivares-Amaya,  
 J. A. Parkhill,  T. M. Perrine,  F. Plasser,  P. Pokhilko,  S. Prager,  
 A. Prociuk,  E. Ramos,  D. R. Rehn,  F. Rob,  M. Schneider,  N. Sergueev,  
 S. M. Sharada,  S. Sharma,  D. W. Small,  T. Stauch,  T. Stein,  
 Yu-Chuan Su,  A. J. W. Thom,  A. Tkatchenko,  T. Tsuchimochi,  N. M. Tubman,  
 L. Vogt,  M. L. Vidal,  O. Vydrov,  M. A. Watson,  J. Wenzel,  
 M. de Wergifosse,  T. A. Wesolowski,  A. White,  J. Witte,  A. Yamada,  
 Jun Yang,  K. Yao,  S. Yeganeh,  S. R. Yost,  Zhi-Qiang You,  A. Zech,  
 Igor Ying Zhang,  Xing Zhang,  Yan Zhao,  Ying Zhu,  B. R. Brooks,  
 G. K. L. Chan,  C. J. Cramer,  M. S. Gordon,  W. J. Hehre,  A. Klamt,  
 M. W. Schmidt,  C. D. Sherrill,  D. G. Truhlar,  A. Aspuru-Guzik,  R. Baer,  
 A. T. Bell,  N. A. Besley,  Jeng-Da Chai,  A. E. DePrince, III,  
 R. A. DiStasio Jr.,  A. Dreuw,  B. D. Dunietz,  T. R. Furlani,  
 Chao-Ping Hsu,  Yousung Jung,  Jing Kong,  D. S. Lambrecht,  WanZhen Liang,  
 C. Ochsenfeld,  V. A. Rassolov,  L. V. Slipchenko,  J. E. Subotnik,  
 T. Van Voorhis,  J. M. Herbert,  A. I. Krylov,  P. M. W. Gill,  M. Head-Gordon

 Contributors to earlier versions of Q-Chem not listed above: 
 R. D. Adamson,  B. Austin,  J. Baker,  G. J. O. Beran,  K. Brandhorst,  
 S. T. Brown,  E. F. C. Byrd,  A. K. Chakraborty,  C.-L. Cheng,  
 Siu Hung Chien,  D. M. Chipman,  D. L. Crittenden,  H. Dachsel,  
 R. J. Doerksen,  A. D. Dutoi,  L. Fusti-Molnar,  W. A. Goddard III,  
 A. Golubeva-Zadorozhnaya,  S. R. Gwaltney,  G. Hawkins,  A. Heyden,  
 S. Hirata,  G. Kedziora,  F. J. Keil,  C. Kelley,  Jihan Kim,  R. A. King,  
 R. Z. Khaliullin,  P. P. Korambath,  W. Kurlancheek,  A. M. Lee,  M. S. Lee,  
 S. V. Levchenko,  Ching Yeh Lin,  D. Liotard,  R. C. Lochan,  I. Lotan,  
 P. E. Maslen,  N. Nair,  D. P. O'Neill,  D. Neuhauser,  E. Neuscamman,  
 C. M. Oana,  R. Olson,  B. Peters,  R. Peverati,  P. A. Pieniazek,  
 Y. M. Rhee,  J. Ritchie,  M. A. Rohrdanz,  E. Rosta,  N. J. Russ,  
 H. F. Schaefer III,  N. E. Schultz,  N. Shenvi,  A. C. Simmonett,  A. Sodt,  
 D. Stuck,  K. S. Thanthiriwatte,  V. Vanovschi,  Tao Wang,  A. Warshel,  
 C. F. Williams,  Q. Wu,  X. Xu,  W. Zhang

 Please cite Q-Chem as follows:
 Y. Shao et al., Mol. Phys. 113, 184-215 (2015)
 DOI: 10.1080/00268976.2014.952696

 Q-Chem 5.1.1 for Intel X86 EM64T Linux

 Parts of Q-Chem use Armadillo 8.300.2 (Tropical Shenanigans).
 http://arma.sourceforge.net/

 Q-Chem begins on Wed Mar 13 20:47:08 2019  

Host: 
0

     Scratch files written to /staging/scratch/2868759/qchem2586//
 Aug318 |scratch|qcdevops|jenkins|workspace|build_RNUM 6013   
Processing $rem in /usr/usc/qchem/5.1.1/config/preferences.
 MEM_TOTAL  2000 
Input Ideriv = 2
Curr. Ideriv = -1
Max.  Ideriv = 2

Checking the input file for inconsistencies... 	...done.

--------------------------------------------------------------
User input:
--------------------------------------------------------------

$comment
potential surface scanner
$end

$rem
JOBTYPE  PES_SCAN
UNRESTRICTED TRUE
SYM_IGNORE  TRUE
GEOM_OPT_MAX_CYCLES 400
SCF_MAX_CYCLES 400
METHOD   B3LYP
BASIS   6-31G**
PDB_PRINT 2
SCF_CONVERGENCE 6
THRESH 14
SCF_PRINT 1
$end
$molecule
0 3
Br 2.704447 2.545364 0.427796
Br -0.160567 1.870417 0.461345
C -0.825500 -0.994977 -0.579904
C 0.386638 -0.551744 -0.100908
C -1.915720 -1.557142 0.261852
H -1.029552 -0.879615 -1.643391
H 0.681458 -0.751892 0.923693
H 1.174524 -0.243318 -0.778057
H -1.634029 -1.622845 1.315155
H -2.818085 -0.936992 0.177729
H -2.198816 -2.556258 -0.094505
$end
$scan
stre 1 3 5.000000 5.001000 0.100000
$end
--------------------------------------------------------------
 ----------------------------------------------------------------
             Standard Nuclear Orientation (Angstroms)
    I     Atom           X                Y                Z
 ----------------------------------------------------------------
    1      Br      2.7044470000     2.5453640000     0.4277960000
    2      Br     -0.1605670000     1.8704170000     0.4613450000
    3      C      -0.8255000000    -0.9949770000    -0.5799040000
    4      C       0.3866380000    -0.5517440000    -0.1009080000
    5      C      -1.9157200000    -1.5571420000     0.2618520000
    6      H      -1.0295520000    -0.8796150000    -1.6433910000
    7      H       0.6814580000    -0.7518920000     0.9236930000
    8      H       1.1745240000    -0.2433180000    -0.7780570000
    9      H      -1.6340290000    -1.6228450000     1.3151550000
   10      H      -2.8180850000    -0.9369920000     0.1777290000
   11      H      -2.1988160000    -2.5562580000    -0.0945050000
 ----------------------------------------------------------------
 Nuclear Repulsion Energy =   520.5583511241 hartrees
 There are       48 alpha and       46 beta electrons
 Requested basis set is 6-31G(d,p)
 There are 46 shells and 145 basis functions

 Total QAlloc Memory Limit   2000 MB
 Mega-Array Size       188 MB
 MEM_STATIC part       192 MB
A total of 1 constraints
  
            1
    1   1.0100000
    2   1.0100000
    3   3.0100000
    4   5.0000000
    5   5.0010000
    6   0.1000000
    7   0.0000000
    8   0.0000000
    9   0.0000000
   10   0.0000000

                       Distance Matrix (Angstroms)
             Br(  1)   Br(  2)   C (  3)   C (  4)   C (  5)   H (  6)
   Br(  2)  2.943635
   C (  3)  5.100000  3.120387
   C (  4)  3.904337  2.546061  1.376652
   C (  5)  6.180941  3.855972  1.487670  2.538360
   H (  6)  5.473851  3.570396  1.089013  2.119516  2.207779
   H (  7)  3.900038  2.792718  2.142619  1.084797  2.798534  3.087683
   H (  8)  3.401690  2.790423  2.145775  1.083707  3.515274  2.451862
   H (  9)  6.081426  3.886253  2.153877  2.689905  1.092298  3.109787
   H ( 10)  6.533582  3.876130  2.132549  3.239800  1.098146  2.553159
   H ( 11)  7.095163  4.904985  2.135230  3.271497  1.097892  2.564636
             H (  7)   H (  8)   H (  9)   H ( 10)
   H (  8)  1.843289
   H (  9)  2.504652  3.764652
   H ( 10)  3.582949  4.163609  1.779360
   H ( 11)  3.548019  4.146849  1.782522  1.754887
 
 A cutoff of  1.0D-14 yielded    915 shell pairs
 There are      8918 function pairs
 
 -------------------------------------------------------
 OpenMP Integral Computing Module                       
 Release: version 1.0, May 2013, Q-Chem Inc. Pittsburgh 
 -------------------------------------------------------
 Integral Job Info:
 Integral job number is                      11
 Integral operator is                         1
 short-range coefficients                     0
 long-range coefficients              100000000
 Omega coefficients                           0
 if combine SR and LR in K                    0
 Integral screening is                        0
 Integral computing path is                   2
 max size of driver memory is            800000
 size of driver memory is                593474
 size of scratch memory is             15267112
 max col of scratch BK array               1296
 max len of scratch array in speh3          155
 max len of scratch index in speh4           18
 max int batch size is                      520
 min int batch size is                       52
 fixed nKL is                                52
 max L of basis functions is                  2
 order of int derivative is                   0
 number of shells is                         46
 number of basis is                         145
 number of cartesian basis is               145
 number of contracted shell pairs           915
 number of primitive shell pairs           3883
 maxK2 (contraction) of shell pair           36
 max number of K2 of shell pair               1
 max number of CS2 of shell pair             68
 max number of PS2 of shell pair            408
 mem total for path MDJ                  527820
 -------------------------------------------------------
 Smallest overlap matrix eigenvalue = 7.24E-04

 Scale SEOQF with 1.000000e-01/1.000000e-01/1.000000e-01

 Standard Electronic Orientation quadrupole field applied
 Nucleus-field energy     =     0.0000000358 hartrees
 Guess from superposition of atomic densities
 Warning:  Energy on first SCF cycle will be non-variational
 SAD guess density has 93.945746 electrons

 -----------------------------------------------------------------------
  General SCF calculation program by
  Eric Jon Sundstrom, Paul Horn, Yuezhi Mao, Dmitri Zuev, Alec White,
  David Stuck, Shaama M.S., Shane Yost, Joonho Lee, David Small,
  Daniel Levine, Susi Lehtola, Hugh Burton, Evgeny Epifanovsky
 -----------------------------------------------------------------------
 Exchange:     0.2000 Hartree-Fock + 0.0800 Slater + 0.7200 B88
 Correlation:  0.1900 VWN1RPA + 0.8100 LYP
 Using SG-1 standard quadrature grid
 using 12 threads for integral computing
 -------------------------------------------------------
 OpenMP Integral computing Module                
 Release: version 1.0, May 2013, Q-Chem Inc. Pittsburgh 
 -------------------------------------------------------
 -------------------------------------------------------
 OpenMP BLAS3 based DFT computing Module                
 Release: version 1.0, May 2013, Q-Chem Inc. Pittsburgh 
 -------------------------------------------------------
 A unrestricted SCF calculation will be
 performed using DIIS
 SCF converges when DIIS error is below 1.0e-06
 Alpha HF Exchange    Energy = -19.60191537340055
 Beta HF Exchange     Energy = -19.60191537340055
 DFT Correlation      Energy =  -5.19327844364534
 DFT Exchange         Energy = -155.85754446211752
 One-Electron (alpha) Energy = -4176.92353292835651
 One-Electron (beta)  Energy = -4176.92353292835651
 Total Coulomb        Energy = 2760.75692073626078
 ---------------------------------------
  Cycle       Energy         DIIS error
 ---------------------------------------
    1   -5272.7864476131      1.83e-01  
 Alpha HF Exchange    Energy = -19.84018226568558
 Beta HF Exchange     Energy = -19.61636711973503
 DFT Correlation      Energy =  -5.24145565065831
 DFT Exchange         Energy = -157.04519746415318
 One-Electron (alpha) Energy = -4214.50522869184897
 One-Electron (beta)  Energy = -4161.74905818155185
 Total Coulomb        Energy = 2791.95528041468106
    2   -5265.4838577991      1.04e-02  
 Alpha HF Exchange    Energy = -19.69317776445205
 Beta HF Exchange     Energy = -19.49515335674322
 DFT Correlation      Energy =  -5.20172364285254
 DFT Exchange         Energy = -155.96505984271596
 One-Electron (alpha) Energy = -4198.10036364747066
 One-Electron (beta)  Energy = -4142.16111380253187
 Total Coulomb        Energy = 2754.82236480684696
    3   -5265.2358760900      5.18e-03  
 Alpha HF Exchange    Energy = -19.80089960729259
 Beta HF Exchange     Energy = -19.59841015741907
 DFT Correlation      Energy =  -5.22356185433923
 DFT Exchange         Energy = -156.76509148463353
 One-Electron (alpha) Energy = -4211.38805493196742
 One-Electron (beta)  Energy = -4158.81018357388348
 Total Coulomb        Energy = 2785.83510255372357
    4   -5265.1927478959      5.60e-03  
 Alpha HF Exchange    Energy = -19.78508309959220
 Beta HF Exchange     Energy = -19.56157799589270
 DFT Correlation      Energy =  -5.22602212807179
 DFT Exchange         Energy = -156.60005830356718
 One-Electron (alpha) Energy = -4208.99161721402197
 One-Electron (beta)  Energy = -4155.44332932280486
 Total Coulomb        Energy = 2779.43868336262631
    5   -5265.6106535414      1.15e-03  
 Alpha HF Exchange    Energy = -19.76673316922856
 Beta HF Exchange     Energy = -19.54332246923062
 DFT Correlation      Energy =  -5.22112711442717
 DFT Exchange         Energy = -156.45644410808177
 One-Electron (alpha) Energy = -4206.80386145622469
 One-Electron (beta)  Energy = -4152.52002345365963
 Total Coulomb        Energy = 2774.12266386350757
    6   -5265.6304967474      3.87e-04  
 Alpha HF Exchange    Energy = -19.76862970466889
 Beta HF Exchange     Energy = -19.54531949094453
 DFT Correlation      Energy =  -5.22104838535257
 DFT Exchange         Energy = -156.46889293898101
 One-Electron (alpha) Energy = -4206.97300070446272
 One-Electron (beta)  Energy = -4152.67700071376294
 Total Coulomb        Energy = 2774.46239428201307
    7   -5265.6331464963      2.11e-04  
 Alpha HF Exchange    Energy = -19.76879340619312
 Beta HF Exchange     Energy = -19.54525474289931
 DFT Correlation      Energy =  -5.22124258440547
 DFT Exchange         Energy = -156.46975606722719
 One-Electron (alpha) Energy = -4206.96563910960595
 One-Electron (beta)  Energy = -4152.37370547538285
 Total Coulomb        Energy = 2774.15225283453492
    8   -5265.6337873913      1.18e-04  
 Alpha HF Exchange    Energy = -19.76857306528857
 Beta HF Exchange     Energy = -19.54539011569207
 DFT Correlation      Energy =  -5.22093546344643
 DFT Exchange         Energy = -156.46756382782019
 One-Electron (alpha) Energy = -4207.00761427632006
 One-Electron (beta)  Energy = -4152.48353810069784
 Total Coulomb        Energy = 2774.30124999471400
    9   -5265.6340136947      5.23e-05  
 Alpha HF Exchange    Energy = -19.76873462169372
 Beta HF Exchange     Energy = -19.54562160388198
 DFT Correlation      Energy =  -5.22088297786513
 DFT Exchange         Energy = -156.46858781464084
 One-Electron (alpha) Energy = -4206.98289978404591
 One-Electron (beta)  Energy = -4152.41585977103932
 Total Coulomb        Energy = 2774.21015750431161
   10   -5265.6340779090      2.87e-05  
 Alpha HF Exchange    Energy = -19.76879618073422
 Beta HF Exchange     Energy = -19.54580284985942
 DFT Correlation      Energy =  -5.22085597168798
 DFT Exchange         Energy = -156.46922683338448
 One-Electron (alpha) Energy = -4206.99172086171802
 One-Electron (beta)  Energy = -4152.42100425973513
 Total Coulomb        Energy = 2774.22496460621142
   11   -5265.6340911910      1.03e-05  
 Alpha HF Exchange    Energy = -19.76881291688267
 Beta HF Exchange     Energy = -19.54587092831898
 DFT Correlation      Energy =  -5.22083680182534
 DFT Exchange         Energy = -156.46935549569818
 One-Electron (alpha) Energy = -4206.98976959669926
 One-Electron (beta)  Energy = -4152.43037567585270
 Total Coulomb        Energy = 2774.23257512529699
   12   -5265.6340951301      4.28e-06  
 Alpha HF Exchange    Energy = -19.76880162709946
 Beta HF Exchange     Energy = -19.54589831367637
 DFT Correlation      Energy =  -5.22082913273311
 DFT Exchange         Energy = -156.46935351632101
 One-Electron (alpha) Energy = -4206.98559731099249
 One-Electron (beta)  Energy = -4152.43343073462165
 Total Coulomb        Energy = 2774.23146379758236
   13   -5265.6340956780      1.82e-06  
 Alpha HF Exchange    Energy = -19.76879856368250
 Beta HF Exchange     Energy = -19.54590335019931
 DFT Correlation      Energy =  -5.22082429757916
 DFT Exchange         Energy = -156.46934769278121
 One-Electron (alpha) Energy = -4206.98410195165980
 One-Electron (beta)  Energy = -4152.43453175666400
 Total Coulomb        Energy = 2774.23106071360007
   14   -5265.6340957391      6.86e-07  Convergence criterion met
 ---------------------------------------
 SCF time:   CPU 52.57s  wall 5.00s 
<S^2> =          2.011924564
 Alpha HF Exchange    Energy = -19.76879856368250
 Beta HF Exchange     Energy = -19.54590335019931
 DFT Correlation      Energy =  -5.22082429757916
 DFT Exchange         Energy = -156.46934769278121
 One-Electron (alpha) Energy = -4206.98410195165980
 One-Electron (beta)  Energy = -4152.43453175666400
 Total Coulomb        Energy = 2774.23106071360007
 Nuclear repulsion Energy = 520.55835115989851
 SCF   energy in the final basis set =    -5265.6340957391
 Total energy in the final basis set =    -5265.6340957391
 
 --------------------------------------------------------------
 
                    Orbital Energies (a.u.)
 --------------------------------------------------------------
 
 Alpha MOs
 -- Occupied --
*******-482.830 -62.528 -62.487 -56.349 -56.347 -56.345 -56.310
-56.305 -56.304 -10.266 -10.255 -10.225  -8.715  -8.674  -6.544
 -6.537  -6.530  -6.506  -6.491  -6.490  -2.637  -2.637  -2.632
 -2.627  -2.626  -2.598  -2.595  -2.594  -2.583  -2.583  -0.849
 -0.779  -0.735  -0.726  -0.611  -0.519  -0.474  -0.460  -0.418
 -0.402  -0.372  -0.351  -0.304  -0.275  -0.262  -0.261  -0.251
 -- Virtual --
 -0.047   0.072   0.096   0.112   0.134   0.135   0.149   0.207
  0.236   0.251   0.292   0.321   0.335   0.368   0.371   0.382
  0.413   0.460   0.473   0.499   0.517   0.525   0.553   0.565
  0.571   0.586   0.617   0.637   0.638   0.647   0.651   0.666
  0.686   0.738   0.804   0.814   0.820   0.850   0.857   0.888
  0.906   0.959   1.129   1.239   1.250   1.274   1.343   1.452
  1.575   1.735   1.758   1.774   1.790   1.841   1.873   1.961
  1.998   2.044   2.064   2.069   2.137   2.248   2.314   2.330
  2.420   2.439   2.491   2.581   2.614   2.646   2.780   2.818
  2.823   2.936   3.137   3.229   3.372   3.382   3.422   3.575
  4.145   4.372   4.525   4.665   4.694   4.706   4.721   4.746
  4.747   4.747   4.747   4.842   4.876   6.258   6.310  90.212
 90.343
 
 Beta MOs
 -- Occupied --
*******-482.828 -62.526 -62.486 -56.346 -56.345 -56.344 -56.305
-56.304 -56.303 -10.260 -10.255 -10.225  -8.711  -8.671  -6.536
 -6.532  -6.528  -6.498  -6.489  -6.489  -2.632  -2.631  -2.628
 -2.624  -2.624  -2.592  -2.590  -2.589  -2.582  -2.582  -0.836
 -0.751  -0.725  -0.693  -0.604  -0.515  -0.471  -0.450  -0.416
 -0.400  -0.336  -0.308  -0.291  -0.255  -0.250
 -- Virtual --
 -0.177  -0.153  -0.020   0.074   0.097   0.113   0.137   0.138
  0.152   0.214   0.240   0.260   0.298   0.326   0.353   0.375
  0.377   0.397   0.428   0.466   0.482   0.519   0.541   0.546
  0.572   0.579   0.589   0.605   0.628   0.645   0.646   0.667
  0.678   0.688   0.696   0.749   0.808   0.818   0.825   0.854
  0.876   0.895   0.908   0.971   1.132   1.246   1.258   1.280
  1.359   1.455   1.577   1.746   1.768   1.782   1.802   1.849
  1.883   1.970   2.001   2.047   2.067   2.071   2.146   2.251
  2.316   2.337   2.425   2.449   2.495   2.588   2.618   2.651
  2.782   2.820   2.826   2.938   3.140   3.231   3.375   3.386
  3.423   3.577   4.156   4.374   4.531   4.674   4.701   4.717
  4.731   4.749   4.749   4.756   4.759   4.852   4.889   6.271
  6.323  90.217  90.348
 --------------------------------------------------------------
 
          Ground-State Mulliken Net Atomic Charges

     Atom                 Charge (a.u.)    Spin (a.u.)
  --------------------------------------------------------
      1 Br                   -0.240293       0.743765
      2 Br                   -0.099555       0.802530
      3 C                     0.021409       0.462329
      4 C                    -0.249639      -0.003370
      5 C                    -0.361383      -0.031835
      6 H                     0.137750      -0.020355
      7 H                     0.169070       0.001125
      8 H                     0.183402       0.001333
      9 H                     0.138435       0.000405
     10 H                     0.155822       0.024243
     11 H                     0.144981       0.019829
  --------------------------------------------------------
  Sum of atomic charges =    -0.000000
  Sum of spin   charges =     2.000000

 -----------------------------------------------------------------
                    Cartesian Multipole Moments
 -----------------------------------------------------------------
    Charge (ESU x 10^10)
                -0.0000
    Dipole Moment (Debye)
         X      -3.9045      Y      -5.5193      Z      -1.1142
       Tot       6.8520
    Quadrupole Moments (Debye-Ang)
        XX     -60.1269     XY      -4.9457     YY     -63.7529
        XZ      -0.9642     YZ      -1.2576     ZZ     -56.1046
    Octopole Moments (Debye-Ang^2)
       XXX    -117.6669    XXY     -83.0171    XYY     -55.2120
       YYY    -209.6095    XXZ     -18.6293    XYZ      -3.8480
       YYZ     -16.1290    XZZ     -35.1491    YZZ     -67.2046
       ZZZ     -46.4800
    Hexadecapole Moments (Debye-Ang^3)
      XXXX   -1104.7838   XXXY    -468.7395   XXYY    -439.3554
      XYYY    -493.4938   YYYY   -1391.1970   XXXZ     -64.6490
      XXYZ     -42.4457   XYYZ     -25.9539   YYYZ    -111.8523
      XXZZ    -214.8877   XYZZ    -155.5640   YYZZ    -254.9749
      XZZZ     -59.1339   YZZZ    -114.0043   ZZZZ    -143.7710
 -----------------------------------------------------------------
 Calculating analytic gradient of the SCF energy
 Gradient of SCF Energy
            1           2           3           4           5           6
    1   0.0009807   0.0000611  -0.0010139  -0.0000131  -0.0000183   0.0000277
    2   0.0009200   0.0000881  -0.0010039  -0.0000135   0.0000249  -0.0000557
    3   0.0002123  -0.0000965  -0.0002628   0.0000014   0.0000202   0.0000067
            7           8           9          10          11
    1   0.0000040   0.0000567  -0.0000474  -0.0000154  -0.0000220
    2   0.0000040  -0.0000957   0.0000811   0.0000350   0.0000157
    3   0.0000316   0.0000464   0.0000224  -0.0000385   0.0000568
 Max gradient component =       1.014E-03
 RMS gradient           =       3.489E-04
 Gradient time:  CPU 14.50 s  wall 1.32 s
 Geometry Optimization Parameters
   NAtoms,    NIC,     NZ,  NCons,   NDum,   NFix, NCnnct, MaxDiis
       11      84       0       1       0       0       0       0


** CONSTRAINED OPTIMIZATION IN DELOCALIZED INTERNAL COORDINATES **
   Searching for a Minimum

   Optimization Cycle:   1

                       Coordinates (Angstroms)
     ATOM                X               Y               Z
      1  Br        2.7044470000    2.5453640000    0.4277960000
      2  Br       -0.1605670000    1.8704170000    0.4613450000
      3  C        -0.8255000000   -0.9949770000   -0.5799040000
      4  C         0.3866380000   -0.5517440000   -0.1009080000
      5  C        -1.9157200000   -1.5571420000    0.2618520000
      6  H        -1.0295520000   -0.8796150000   -1.6433910000
      7  H         0.6814580000   -0.7518920000    0.9236930000
      8  H         1.1745240000   -0.2433180000   -0.7780570000
      9  H        -1.6340290000   -1.6228450000    1.3151550000
     10  H        -2.8180850000   -0.9369920000    0.1777290000
     11  H        -2.1988160000   -2.5562580000   -0.0945050000
   Point Group: c1    Number of degrees of freedom:    27


   Energy is  -5265.634095739

              Constraints and their Current Values
                                        Value     Constraint
   Distance(Angs):        1   3             5.100000     5.000000

 Attempting to Generate Delocalized Internal Coordinates

   Using Lagrange Multiplier Algorithm


 28 Hessian modes will be used to form the next step
  Hessian Eigenvalues:
    -0.998379    0.029850    0.045000    0.045000    0.045037    0.048408
     0.059186    0.061922    0.065880    0.079451    0.092190    0.092364
     0.095274    0.114978    0.159827    0.160000    0.160000    0.160000
     0.220045    0.304734    0.321298    0.337061    0.338879    0.339163
     0.345485    0.349269    0.443950    1.001623

 Minimum Search - Taking P-RFO Step
 Searching for Lamda that Maximizes Along the Constraint modes Only
 Value Taken    Lamda =   0.01734685
 Searching for Lamda that Minimizes Along All other modes
 Value Taken    Lamda =  -0.01774922
 Step Taken.  Stepsize is  0.185719

                             Maximum     Tolerance    Cnvgd?
         Gradient            0.188973       0.000300      NO
         Displacement        0.185713       0.001200      NO
         Energy change     *********       0.000001      NO


 New Cartesian Coordinates Obtained by Inverse Iteration

 Displacement from previous Coordinates is:  0.192120
 ----------------------------------------------------------------
             Standard Nuclear Orientation (Angstroms)
    I     Atom           X                Y                Z
 ----------------------------------------------------------------
    1      Br      2.6700341441     2.4717880244     0.4054906025
    2      Br     -0.1940901522     1.8650624155     0.4623649492
    3      C      -0.8115103162    -0.9829520251    -0.5747483421
    4      C       0.3833285026    -0.5445743966    -0.0966756444
    5      C      -1.9032125470    -1.5498617318     0.2618899308
    6      H      -1.0126754402    -0.8642902643    -1.6384221406
    7      H       0.6783466863    -0.7445562744     0.9275294424
    8      H       1.1690636034    -0.2318470840    -0.7709769742
    9      H      -1.6245035936    -1.6186821205     1.3157914573
   10      H      -2.8063357320    -0.9308812840     0.1772495777
   11      H      -2.1836471552    -2.5482072593    -0.0986878586
 ----------------------------------------------------------------
 Nuclear Repulsion Energy =   524.5802679402 hartrees
 There are       48 alpha and       46 beta electrons

                       Distance Matrix (Angstroms)
             Br(  1)   Br(  2)   C (  3)   C (  4)   C (  5)   H (  6)
   Br(  2)  2.928235
   C (  3)  5.001725  3.093218
   C (  4)  3.818329  2.540135  1.359547
   C (  5)  6.091705  3.824003  1.487671  2.523379
   H (  6)  5.373020  3.540163  1.089013  2.104288  2.207770
   H (  7)  3.818928  2.790633  2.129165  1.084447  2.784967  3.075386
   H (  8)  3.308569  2.788611  2.127284  1.081601  3.498979  2.431549
   H (  9)  6.000304  3.861463  2.153892  2.679582  1.092302  3.109794
   H ( 10)  6.451425  3.836980  2.132496  3.224628  1.098149  2.553099
   H ( 11)  7.000912  4.873404  2.135279  3.256365  1.097886  2.564670
             H (  7)   H (  8)   H (  9)   H ( 10)
   H (  8)  1.840814
   H (  9)  2.493584  3.752590
   H ( 10)  3.569404  4.146273  1.779347
   H ( 11)  3.535150  4.130153  1.782529  1.754886
 
 Applying Cartesian multipole field
    Component          Value
    ---------          -----
     (2,0,0)        1.00000E-11
     (0,2,0)        2.00000E-11
     (0,0,2)       -3.00000E-11
 Nucleus-field energy     =     0.0000000346 hartrees
 Requested basis set is 6-31G(d,p)
 There are 46 shells and 145 basis functions
 A cutoff of  1.0D-14 yielded    915 shell pairs
 There are      8918 function pairs
 Smallest overlap matrix eigenvalue = 7.24E-04
 Guess from superposition of atomic densities
 Warning:  Energy on first SCF cycle will be non-variational
 SAD guess density has 93.945746 electrons

 -----------------------------------------------------------------------
  General SCF calculation program by
  Eric Jon Sundstrom, Paul Horn, Yuezhi Mao, Dmitri Zuev, Alec White,
  David Stuck, Shaama M.S., Shane Yost, Joonho Lee, David Small,
  Daniel Levine, Susi Lehtola, Hugh Burton, Evgeny Epifanovsky
 -----------------------------------------------------------------------
 Exchange:     0.2000 Hartree-Fock + 0.0800 Slater + 0.7200 B88
 Correlation:  0.1900 VWN1RPA + 0.8100 LYP
 Using SG-1 standard quadrature grid
 using 12 threads for integral computing
 -------------------------------------------------------
 OpenMP Integral computing Module                
 Release: version 1.0, May 2013, Q-Chem Inc. Pittsburgh 
 -------------------------------------------------------
 -------------------------------------------------------
 OpenMP BLAS3 based DFT computing Module                
 Release: version 1.0, May 2013, Q-Chem Inc. Pittsburgh 
 -------------------------------------------------------
 A unrestricted SCF calculation will be
 performed using DIIS
 SCF converges when DIIS error is below 1.0e-06
 Alpha HF Exchange    Energy = -19.60493851431444
 Beta HF Exchange     Energy = -19.60493851431444
 DFT Correlation      Energy =  -5.19429230409577
 DFT Exchange         Energy = -155.86353596867133
 One-Electron (alpha) Energy = -4180.92828918757459
 One-Electron (beta)  Energy = -4180.92828918757459
 Total Coulomb        Energy = 2764.72140342771854
 ---------------------------------------
  Cycle       Energy         DIIS error
 ---------------------------------------
    1   -5272.8226122741      1.83e-01  
 Alpha HF Exchange    Energy = -19.84210141014333
 Beta HF Exchange     Energy = -19.61722958853632
 DFT Correlation      Energy =  -5.24263565245682
 DFT Exchange         Energy = -157.05598680451052
 One-Electron (alpha) Energy = -4218.63089284520538
 One-Electron (beta)  Energy = -4165.49211781795839
 Total Coulomb        Energy = 2795.81533222981579
    2   -5265.4853639142      1.04e-02  
 Alpha HF Exchange    Energy = -19.69524254912067
 Beta HF Exchange     Energy = -19.49192149599720
 DFT Correlation      Energy =  -5.20355533454222
 DFT Exchange         Energy = -155.96745258825854
 One-Electron (alpha) Energy = -4202.38758612792935
 One-Electron (beta)  Energy = -4146.49557389724941
 Total Coulomb        Energy = 2759.36919092570361
    3   -5265.2918730926      5.01e-03  
 Alpha HF Exchange    Energy = -19.80355094572236
 Beta HF Exchange     Energy = -19.59741611555631
 DFT Correlation      Energy =  -5.22555070163299
 DFT Exchange         Energy = -156.77661165732798
 One-Electron (alpha) Energy = -4215.50034691842393
 One-Electron (beta)  Energy = -4162.15686299120080
 Total Coulomb        Energy = 2789.23111810382761
    4   -5265.2489532513      5.28e-03  
 Alpha HF Exchange    Energy = -19.78600256617909
 Beta HF Exchange     Energy = -19.55845155968425
 DFT Correlation      Energy =  -5.22719810966626
 DFT Exchange         Energy = -156.59918530695109
 One-Electron (alpha) Energy = -4213.01049775314459
 One-Electron (beta)  Energy = -4158.58795646205908
 Total Coulomb        Energy = 2782.56745583359225
    5   -5265.6215679493      9.96e-04  
 Alpha HF Exchange    Energy = -19.76840263671764
 Beta HF Exchange     Energy = -19.54254502004127
 DFT Correlation      Energy =  -5.22228461259080
 DFT Exchange         Energy = -156.46296876424685
 One-Electron (alpha) Energy = -4210.98577470216878
 One-Electron (beta)  Energy = -4156.07979115880971
 Total Coulomb        Energy = 2777.85155395726997
    6   -5265.6299449625      4.22e-04  
 Alpha HF Exchange    Energy = -19.77007669230410
 Beta HF Exchange     Energy = -19.54495927494719
 DFT Correlation      Energy =  -5.22213911861822
 DFT Exchange         Energy = -156.47490498312314
 One-Electron (alpha) Energy = -4211.17245936451309
 One-Electron (beta)  Energy = -4156.41215541035672
 Total Coulomb        Energy = 2778.38361052225264
    7   -5265.6328163468      2.01e-04  
 Alpha HF Exchange    Energy = -19.77061882933607
 Beta HF Exchange     Energy = -19.54577443099855
 DFT Correlation      Energy =  -5.22235466601059
 DFT Exchange         Energy = -156.47920873507965
 One-Electron (alpha) Energy = -4211.14470818714381
 One-Electron (beta)  Energy = -4156.18669460836918
 Total Coulomb        Energy = 2778.13544031412266
    8   -5265.6336511681      9.80e-05  
 Alpha HF Exchange    Energy = -19.77042687259904
 Beta HF Exchange     Energy = -19.54635625924008
 DFT Correlation      Energy =  -5.22208581941675
 DFT Exchange         Energy = -156.47812243879807
 One-Electron (alpha) Energy = -4211.17235512124716
 One-Electron (beta)  Energy = -4156.29539465098605
 Total Coulomb        Energy = 2778.27053881600114
    9   -5265.6339343715      4.24e-05  
 Alpha HF Exchange    Energy = -19.77041739066929
 Beta HF Exchange     Energy = -19.54683522870799
 DFT Correlation      Energy =  -5.22196501694928
 DFT Exchange         Energy = -156.47860362230116
 One-Electron (alpha) Energy = -4211.13176688106796
 One-Electron (beta)  Energy = -4156.27870165242439
 Total Coulomb        Energy = 2778.21401050849363
   10   -5265.6340113089      2.26e-05  
 Alpha HF Exchange    Energy = -19.77041760712047
 Beta HF Exchange     Energy = -19.54700276588718
 DFT Correlation      Energy =  -5.22193789671604
 DFT Exchange         Energy = -156.47895653710623
 One-Electron (alpha) Energy = -4211.12787393719373
 One-Electron (beta)  Energy = -4156.28006910607110
 Total Coulomb        Energy = 2778.21196838810010
   11   -5265.6340214872      8.31e-06  
 Alpha HF Exchange    Energy = -19.77041782917479
 Beta HF Exchange     Energy = -19.54707524851306
 DFT Correlation      Energy =  -5.22192249169000
 DFT Exchange         Energy = -156.47907752912016
 One-Electron (alpha) Energy = -4211.12225543646946
 One-Electron (beta)  Energy = -4156.29193323892378
 Total Coulomb        Energy = 2778.21838949469657
   12   -5265.6340243044      3.82e-06  
 Alpha HF Exchange    Energy = -19.77040770815242
 Beta HF Exchange     Energy = -19.54709424188782
 DFT Correlation      Energy =  -5.22192251361626
 DFT Exchange         Energy = -156.47908838752113
 One-Electron (alpha) Energy = -4211.11870047819502
 One-Electron (beta)  Energy = -4156.29442073575228
 Total Coulomb        Energy = 2778.21734127608761
   13   -5265.6340248143      1.87e-06  
 Alpha HF Exchange    Energy = -19.77040541271301
 Beta HF Exchange     Energy = -19.54710209191761
 DFT Correlation      Energy =  -5.22191748812613
 DFT Exchange         Energy = -156.47909591205658
 One-Electron (alpha) Energy = -4211.11682473666679
 One-Electron (beta)  Energy = -4156.29718560146193
 Total Coulomb        Energy = 2778.21823827254821
   14   -5265.6340249956      5.17e-07  Convergence criterion met
 ---------------------------------------
 SCF time:   CPU 51.78s  wall 5.00s 
<S^2> =          2.010970064
 Alpha HF Exchange    Energy = -19.77040541271301
 Beta HF Exchange     Energy = -19.54710209191761
 DFT Correlation      Energy =  -5.22191748812613
 DFT Exchange         Energy = -156.47909591205658
 One-Electron (alpha) Energy = -4211.11682473666679
 One-Electron (beta)  Energy = -4156.29718560146193
 Total Coulomb        Energy = 2778.21823827254821
 Nuclear repulsion Energy = 524.58026797476111
 SCF   energy in the final basis set =    -5265.6340249956
 Total energy in the final basis set =    -5265.6340249956
 
 --------------------------------------------------------------
 
                    Orbital Energies (a.u.)
 --------------------------------------------------------------
 
 Alpha MOs
 -- Occupied --
*******-482.830 -62.529 -62.487 -56.351 -56.348 -56.346 -56.310
-56.305 -56.304 -10.264 -10.252 -10.224  -8.716  -8.674  -6.545
 -6.538  -6.532  -6.506  -6.491  -6.490  -2.639  -2.638  -2.633
 -2.628  -2.627  -2.598  -2.595  -2.594  -2.583  -2.583  -0.852
 -0.781  -0.735  -0.726  -0.610  -0.520  -0.474  -0.460  -0.418
 -0.401  -0.374  -0.353  -0.305  -0.276  -0.262  -0.261  -0.251
 -- Virtual --
 -0.043   0.072   0.096   0.113   0.135   0.136   0.150   0.207
  0.237   0.251   0.294   0.321   0.334   0.370   0.371   0.381
  0.416   0.462   0.474   0.499   0.516   0.524   0.551   0.566
  0.570   0.585   0.619   0.637   0.638   0.649   0.653   0.666
  0.690   0.745   0.807   0.815   0.822   0.853   0.859   0.891
  0.909   0.967   1.135   1.246   1.251   1.274   1.346   1.455
  1.574   1.735   1.759   1.775   1.792   1.842   1.889   1.967
  1.999   2.045   2.067   2.073   2.147   2.253   2.315   2.334
  2.420   2.447   2.498   2.588   2.620   2.651   2.787   2.821
  2.825   2.946   3.138   3.235   3.377   3.384   3.425   3.590
  4.153   4.374   4.529   4.662   4.692   4.706   4.721   4.746
  4.747   4.748   4.749   4.845   4.879   6.256   6.311  90.207
 90.351
 
 Beta MOs
 -- Occupied --
*******-482.828 -62.528 -62.486 -56.347 -56.346 -56.345 -56.306
-56.304 -56.304 -10.257 -10.251 -10.225  -8.713  -8.671  -6.538
 -6.534  -6.530  -6.498  -6.490  -6.489  -2.633  -2.632  -2.629
 -2.625  -2.625  -2.592  -2.590  -2.590  -2.582  -2.582  -0.839
 -0.752  -0.725  -0.694  -0.603  -0.516  -0.471  -0.450  -0.415
 -0.399  -0.337  -0.310  -0.293  -0.255  -0.250
 -- Virtual --
 -0.177  -0.153  -0.017   0.074   0.097   0.115   0.138   0.140
  0.154   0.214   0.241   0.260   0.301   0.326   0.352   0.376
  0.379   0.396   0.431   0.470   0.483   0.518   0.540   0.545
  0.571   0.581   0.587   0.604   0.630   0.644   0.646   0.670
  0.679   0.688   0.699   0.756   0.811   0.819   0.827   0.856
  0.878   0.899   0.911   0.979   1.138   1.254   1.260   1.281
  1.361   1.458   1.577   1.746   1.770   1.783   1.805   1.850
  1.897   1.976   2.002   2.048   2.070   2.075   2.155   2.256
  2.317   2.340   2.425   2.456   2.502   2.595   2.624   2.656
  2.789   2.823   2.829   2.948   3.141   3.237   3.380   3.387
  3.426   3.592   4.164   4.376   4.536   4.671   4.699   4.717
  4.731   4.748   4.750   4.757   4.760   4.855   4.892   6.270
  6.325  90.212  90.357
 --------------------------------------------------------------
 
          Ground-State Mulliken Net Atomic Charges

     Atom                 Charge (a.u.)    Spin (a.u.)
  --------------------------------------------------------
      1 Br                   -0.242784       0.740100
      2 Br                   -0.092949       0.813836
      3 C                     0.023860       0.446769
      4 C                    -0.251490       0.004436
      5 C                    -0.361402      -0.030606
      6 H                     0.136867      -0.019688
      7 H                     0.167979       0.000935
      8 H                     0.182774       0.001080
      9 H                     0.137710       0.000376
     10 H                     0.155120       0.023548
     11 H                     0.144315       0.019214
  --------------------------------------------------------
  Sum of atomic charges =    -0.000000
  Sum of spin   charges =     2.000000

 -----------------------------------------------------------------
                    Cartesian Multipole Moments
 -----------------------------------------------------------------
    Charge (ESU x 10^10)
                -0.0000
    Dipole Moment (Debye)
         X      -3.8513      Y      -5.3714      Z      -1.0753
       Tot       6.6964
    Quadrupole Moments (Debye-Ang)
        XX     -60.0836     XY      -4.7760     YY     -63.3383
        XZ      -0.9099     YZ      -1.1584     ZZ     -56.0731
    Octopole Moments (Debye-Ang^2)
       XXX    -113.4070    XXY     -80.8978    XYY     -53.1295
       YYY    -204.0209    XXZ     -18.1181    XYZ      -3.6464
       YYZ     -15.4647    XZZ     -33.9059    YZZ     -65.6866
       ZZZ     -45.3314
    Hexadecapole Moments (Debye-Ang^3)
      XXXX   -1080.7787   XXXY    -447.5478   XXYY    -426.7050
      XYYY    -470.7480   YYYY   -1339.7245   XXXZ     -59.3435
      XXYZ     -40.4212   XYYZ     -23.7611   YYYZ    -105.5951
      XXZZ    -210.6399   XYZZ    -148.4572   YYZZ    -246.3905
      XZZZ     -53.8229   YZZZ    -108.5868   ZZZZ    -141.4312
 -----------------------------------------------------------------
 Calculating analytic gradient of the SCF energy
 Gradient of SCF Energy
            1           2           3           4           5           6
    1   0.0002848   0.0004777   0.0127546  -0.0130217   0.0007915   0.0005171
    2   0.0004324  -0.0009135   0.0040001  -0.0032498   0.0003387   0.0001909
    3   0.0001141  -0.0004145   0.0049338  -0.0051894   0.0002916   0.0001298
            7           8           9          10          11
    1  -0.0002643  -0.0014087  -0.0001153  -0.0000083  -0.0000074
    2  -0.0001395  -0.0008417   0.0000665   0.0001136   0.0000023
    3  -0.0003392   0.0005230   0.0000327  -0.0000797  -0.0000022
 Max gradient component =       1.302E-02
 RMS gradient           =       3.550E-03
 Gradient time:  CPU 14.71 s  wall 1.29 s
 Geometry Optimization Parameters
   NAtoms,    NIC,     NZ,  NCons,   NDum,   NFix, NCnnct, MaxDiis
       11      84       0       1       0       0       0       0

 Cartesian Hessian Update
 Hessian Updated using BFGS Update


** CONSTRAINED OPTIMIZATION IN DELOCALIZED INTERNAL COORDINATES **
   Searching for a Minimum

   Optimization Cycle:   2

                       Coordinates (Angstroms)
     ATOM                X               Y               Z
      1  Br        2.6700341441    2.4717880244    0.4054906025
      2  Br       -0.1940901522    1.8650624155    0.4623649492
      3  C        -0.8115103162   -0.9829520251   -0.5747483421
      4  C         0.3833285026   -0.5445743966   -0.0966756444
      5  C        -1.9032125470   -1.5498617318    0.2618899308
      6  H        -1.0126754402   -0.8642902643   -1.6384221406
      7  H         0.6783466863   -0.7445562744    0.9275294424
      8  H         1.1690636034   -0.2318470840   -0.7709769742
      9  H        -1.6245035936   -1.6186821205    1.3157914573
     10  H        -2.8063357320   -0.9308812840    0.1772495777
     11  H        -2.1836471552   -2.5482072593   -0.0986878586
   Point Group: c1    Number of degrees of freedom:    27


   Energy is  -5265.634024996

              Constraints and their Current Values
                                        Value     Constraint
   Distance(Angs):        1   3             5.001725     5.000000
 Hessian Updated using BFGS Update

   Using Lagrange Multiplier Algorithm


 27 Hessian modes will be used to form the next step
  Hessian Eigenvalues:
    -0.992169    0.030002    0.044993    0.045001    0.045047    0.048408
     0.059197    0.062136    0.066131    0.079502    0.092205    0.092364
     0.095278    0.114965    0.159981    0.159999    0.160269    0.220376
     0.305227    0.322337    0.337203    0.338880    0.339164    0.345485
     0.349280    0.765863    1.023140

 Minimum Search - Taking P-RFO Step
 Searching for Lamda that Maximizes Along the Constraint modes Only
 Value Taken    Lamda =   0.00001541
 Searching for Lamda that Minimizes Along All other modes
 Value Taken    Lamda =  -0.00030141
 Step Taken.  Stepsize is  0.022282

                             Maximum     Tolerance    Cnvgd?
         Gradient            0.007820       0.000300      NO
         Displacement        0.011394       0.001200      NO
         Energy change      0.000071       0.000001      NO


 New Cartesian Coordinates Obtained by Inverse Iteration

 Displacement from previous Coordinates is:  0.033717
 ----------------------------------------------------------------
             Standard Nuclear Orientation (Angstroms)
    I     Atom           X                Y                Z
 ----------------------------------------------------------------
    1      Br      2.6688646476     2.4688922475     0.4004540266
    2      Br     -0.1924629573     1.8681870269     0.4653625627
    3      C      -0.8137255278    -0.9837013947    -0.5748229896
    4      C       0.3892993701    -0.5423999231    -0.0941972805
    5      C      -1.9064989392    -1.5516134815     0.2606920338
    6      H      -1.0165679562    -0.8656286277    -1.6384017623
    7      H       0.6850546819    -0.7415219580     0.9302856627
    8      H       1.1754403872    -0.2275331884    -0.7688641912
    9      H      -1.6282345137    -1.6209450072     1.3146901325
   10      H      -2.8097765561    -0.9329193365     0.1760496691
   11      H      -2.1865946365    -2.5498183574    -0.1004428638
 ----------------------------------------------------------------
 Nuclear Repulsion Energy =   524.6172337114 hartrees
 There are       48 alpha and       46 beta electrons

                       Distance Matrix (Angstroms)
             Br(  1)   Br(  2)   C (  3)   C (  4)   C (  5)   H (  6)
   Br(  2)  2.924424
   C (  3)  5.000000  3.098584
   C (  4)  3.809065  2.542142  1.368582
   C (  5)  6.092450  3.830776  1.488208  2.532814
   H (  6)  5.371999  3.546649  1.089168  2.113175  2.206606
   H (  7)  3.810903  2.792270  2.137837  1.084752  2.796561  3.083679
   H (  8)  3.296715  2.790433  2.136872  1.082744  3.508778  2.442982
   H (  9)  6.002304  3.867407  2.154011  2.686758  1.092314  3.108921
   H ( 10)  6.452766  3.844506  2.133215  3.234134  1.098115  2.551932
   H ( 11)  7.000988  4.880109  2.136008  3.265731  1.097855  2.563352
             H (  7)   H (  8)   H (  9)   H ( 10)
   H (  8)  1.841677
   H (  9)  2.504488  3.760770
   H ( 10)  3.580412  4.156006  1.779304
   H ( 11)  3.546647  4.140420  1.782463  1.754755
 
 Applying Cartesian multipole field
    Component          Value
    ---------          -----
     (2,0,0)        1.00000E-11
     (0,2,0)        2.00000E-11
     (0,0,2)       -3.00000E-11
 Nucleus-field energy     =     0.0000000346 hartrees
 Requested basis set is 6-31G(d,p)
 There are 46 shells and 145 basis functions
 A cutoff of  1.0D-14 yielded    916 shell pairs
 There are      8936 function pairs
 Smallest overlap matrix eigenvalue = 7.24E-04
 Guess from superposition of atomic densities
 Warning:  Energy on first SCF cycle will be non-variational
 SAD guess density has 93.945746 electrons

 -----------------------------------------------------------------------
  General SCF calculation program by
  Eric Jon Sundstrom, Paul Horn, Yuezhi Mao, Dmitri Zuev, Alec White,
  David Stuck, Shaama M.S., Shane Yost, Joonho Lee, David Small,
  Daniel Levine, Susi Lehtola, Hugh Burton, Evgeny Epifanovsky
 -----------------------------------------------------------------------
 Exchange:     0.2000 Hartree-Fock + 0.0800 Slater + 0.7200 B88
 Correlation:  0.1900 VWN1RPA + 0.8100 LYP
 Using SG-1 standard quadrature grid
 using 12 threads for integral computing
 -------------------------------------------------------
 OpenMP Integral computing Module                
 Release: version 1.0, May 2013, Q-Chem Inc. Pittsburgh 
 -------------------------------------------------------
 -------------------------------------------------------
 OpenMP BLAS3 based DFT computing Module                
 Release: version 1.0, May 2013, Q-Chem Inc. Pittsburgh 
 -------------------------------------------------------
 A unrestricted SCF calculation will be
 performed using DIIS
 SCF converges when DIIS error is below 1.0e-06
 Alpha HF Exchange    Energy = -19.60354624072844
 Beta HF Exchange     Energy = -19.60354624072844
 DFT Correlation      Energy =  -5.19400917817003
 DFT Exchange         Energy = -155.86070677313936
 One-Electron (alpha) Energy = -4180.97328214417303
 One-Electron (beta)  Energy = -4180.97328214417303
 Total Coulomb        Energy = 2764.78056110743955
 ---------------------------------------
  Cycle       Energy         DIIS error
 ---------------------------------------
    1   -5272.8105778676      1.83e-01  
 Alpha HF Exchange    Energy = -19.84118572548913
 Beta HF Exchange     Energy = -19.61687179960734
 DFT Correlation      Energy =  -5.24222262595470
 DFT Exchange         Energy = -157.05077481105269
 One-Electron (alpha) Energy = -4218.66342495422941
 One-Electron (beta)  Energy = -4165.61805926352008
 Total Coulomb        Energy = 2795.93007785464442
    2   -5265.4852275792      1.04e-02  
 Alpha HF Exchange    Energy = -19.69426872319024
 Beta HF Exchange     Energy = -19.49131646423808
 DFT Correlation      Energy =  -5.20328546912580
 DFT Exchange         Energy = -155.96241111610419
 One-Electron (alpha) Energy = -4202.32810951604370
 One-Electron (beta)  Energy = -4146.42512029381942
 Total Coulomb        Energy = 2759.20163919916968
    3   -5265.2856386373      5.05e-03  
 Alpha HF Exchange    Energy = -19.80290871229538
 Beta HF Exchange     Energy = -19.59711844372054
 DFT Correlation      Energy =  -5.22510323637266
 DFT Exchange         Energy = -156.77227061269178
 One-Electron (alpha) Energy = -4215.59461719265528
 One-Electron (beta)  Energy = -4162.38155113969606
 Total Coulomb        Energy = 2789.51203356009728
    4   -5265.2443020313      5.32e-03  
 Alpha HF Exchange    Energy = -19.78520364212562
 Beta HF Exchange     Energy = -19.55814855149160
 DFT Correlation      Energy =  -5.22687513476921
 DFT Exchange         Energy = -156.59487246238905
 One-Electron (alpha) Energy = -4213.03269768420068
 One-Electron (beta)  Energy = -4158.70267160238836
 Total Coulomb        Energy = 2782.66182661184848
    5   -5265.6214087195      9.96e-04  
 Alpha HF Exchange    Energy = -19.76752832653794
 Beta HF Exchange     Energy = -19.54203327326648
 DFT Correlation      Energy =  -5.22193047297341
 DFT Exchange         Energy = -156.45787693491630
 One-Electron (alpha) Energy = -4211.00372156761387
 One-Electron (beta)  Energy = -4156.18130516489146
 Total Coulomb        Energy = 2777.92690123109651
    6   -5265.6302607631      4.14e-04  
 Alpha HF Exchange    Energy = -19.76929169641690
 Beta HF Exchange     Energy = -19.54449416497838
 DFT Correlation      Energy =  -5.22181346563721
 DFT Exchange         Energy = -156.47038956083813
 One-Electron (alpha) Energy = -4211.18512571804877
 One-Electron (beta)  Energy = -4156.49322750645752
 Total Coulomb        Energy = 2778.43406506626798
    7   -5265.6330433001      1.99e-04  
 Alpha HF Exchange    Energy = -19.76981567961723
 Beta HF Exchange     Energy = -19.54526019657467
 DFT Correlation      Energy =  -5.22202719510908
 DFT Exchange         Energy = -156.47451366751889
 One-Electron (alpha) Energy = -4211.16097579230973
 One-Electron (beta)  Energy = -4156.26793294738309
 Total Coulomb        Energy = 2778.18943725638565
    8   -5265.6338544761      1.00e-04  
 Alpha HF Exchange    Energy = -19.76962950913041
 Beta HF Exchange     Energy = -19.54582827253631
 DFT Correlation      Energy =  -5.22175331569912
 DFT Exchange         Energy = -156.47341353049370
 One-Electron (alpha) Energy = -4211.19050541096931
 One-Electron (beta)  Energy = -4156.38096400726226
 Total Coulomb        Energy = 2778.33072049283919
    9   -5265.6341398072      4.39e-05  
 Alpha HF Exchange    Energy = -19.76962990393478
 Beta HF Exchange     Energy = -19.54628317426221
 DFT Correlation      Energy =  -5.22163265259873
 DFT Exchange         Energy = -156.47388412605576
 One-Electron (alpha) Energy = -4211.14886758096600
 One-Electron (beta)  Energy = -4156.36031070768695
 Total Coulomb        Energy = 2778.26915669641994
   10   -5265.6342177031      2.40e-05  
 Alpha HF Exchange    Energy = -19.76963328269170
 Beta HF Exchange     Energy = -19.54645790858253
 DFT Correlation      Energy =  -5.22160425315382
 DFT Exchange         Energy = -156.47426734779211
 One-Electron (alpha) Energy = -4211.14524408541911
 One-Electron (beta)  Energy = -4156.36205779216107
 Total Coulomb        Energy = 2778.26780196441405
   11   -5265.6342289594      8.35e-06  
 Alpha HF Exchange    Energy = -19.76963612106908
 Beta HF Exchange     Energy = -19.54653324336260
 DFT Correlation      Energy =  -5.22158832035979
 DFT Exchange         Energy = -156.47440594158127
 One-Electron (alpha) Energy = -4211.13965760563133
 One-Electron (beta)  Energy = -4156.37433000162946
 Total Coulomb        Energy = 2778.27468556024724
   12   -5265.6342319274      3.90e-06  
 Alpha HF Exchange    Energy = -19.76962506452022
 Beta HF Exchange     Energy = -19.54655157316440
 DFT Correlation      Energy =  -5.22158777714946
 DFT Exchange         Energy = -156.47441018226957
 One-Electron (alpha) Energy = -4211.13582887706070
 One-Electron (beta)  Energy = -4156.37686606786610
 Total Coulomb        Energy = 2778.27340334341216
   13   -5265.6342324526      1.92e-06  
 Alpha HF Exchange    Energy = -19.76962270742996
 Beta HF Exchange     Energy = -19.54655905127205
 DFT Correlation      Energy =  -5.22158253177540
 DFT Exchange         Energy = -156.47441663772560
 One-Electron (alpha) Energy = -4211.13389222591195
 One-Electron (beta)  Energy = -4156.37957089676547
 Total Coulomb        Energy = 2778.27417767398993
   14   -5265.6342326309      5.11e-07  Convergence criterion met
 ---------------------------------------
 SCF time:   CPU 51.29s  wall 5.00s 
<S^2> =          2.011285369
 Alpha HF Exchange    Energy = -19.76962270742996
 Beta HF Exchange     Energy = -19.54655905127205
 DFT Correlation      Energy =  -5.22158253177540
 DFT Exchange         Energy = -156.47441663772560
 One-Electron (alpha) Energy = -4211.13389222591195
 One-Electron (beta)  Energy = -4156.37957089676547
 Total Coulomb        Energy = 2778.27417767398993
 Nuclear repulsion Energy = 524.61723374602514
 SCF   energy in the final basis set =    -5265.6342326309
 Total energy in the final basis set =    -5265.6342326309
 
 --------------------------------------------------------------
 
                    Orbital Energies (a.u.)
 --------------------------------------------------------------
 
 Alpha MOs
 -- Occupied --
*******-482.829 -62.529 -62.487 -56.350 -56.348 -56.346 -56.309
-56.304 -56.304 -10.265 -10.254 -10.225  -8.716  -8.674  -6.544
 -6.538  -6.531  -6.506  -6.491  -6.490  -2.638  -2.638  -2.633
 -2.628  -2.627  -2.598  -2.595  -2.594  -2.583  -2.583  -0.850
 -0.780  -0.735  -0.726  -0.611  -0.519  -0.474  -0.460  -0.418
 -0.401  -0.373  -0.353  -0.305  -0.275  -0.262  -0.261  -0.251
 -- Virtual --
 -0.045   0.072   0.096   0.113   0.135   0.135   0.150   0.207
  0.236   0.251   0.294   0.321   0.334   0.369   0.371   0.381
  0.416   0.462   0.473   0.499   0.515   0.524   0.551   0.565
  0.570   0.584   0.618   0.637   0.638   0.649   0.654   0.666
  0.689   0.743   0.806   0.815   0.821   0.852   0.860   0.890
  0.908   0.965   1.132   1.243   1.251   1.274   1.344   1.453
  1.575   1.735   1.758   1.774   1.793   1.842   1.880   1.964
  1.999   2.045   2.066   2.071   2.141   2.250   2.315   2.333
  2.420   2.444   2.495   2.584   2.617   2.649   2.783   2.819
  2.824   2.942   3.138   3.232   3.374   3.383   3.423   3.583
  4.149   4.373   4.527   4.662   4.692   4.706   4.721   4.746
  4.747   4.748   4.749   4.845   4.881   6.256   6.312  90.205
 90.354
 
 Beta MOs
 -- Occupied --
*******-482.827 -62.527 -62.486 -56.346 -56.345 -56.345 -56.305
-56.303 -56.303 -10.259 -10.253 -10.225  -8.712  -8.671  -6.537
 -6.533  -6.529  -6.498  -6.489  -6.489  -2.632  -2.632  -2.628
 -2.625  -2.624  -2.592  -2.590  -2.589  -2.582  -2.582  -0.837
 -0.752  -0.725  -0.693  -0.603  -0.515  -0.471  -0.450  -0.416
 -0.399  -0.337  -0.309  -0.292  -0.255  -0.250
 -- Virtual --
 -0.176  -0.153  -0.018   0.074   0.097   0.114   0.138   0.139
  0.153   0.214   0.240   0.260   0.300   0.326   0.352   0.376
  0.378   0.395   0.431   0.469   0.483   0.518   0.539   0.544
  0.571   0.580   0.587   0.604   0.629   0.645   0.646   0.670
  0.680   0.689   0.698   0.754   0.811   0.819   0.826   0.855
  0.879   0.899   0.911   0.977   1.135   1.251   1.259   1.281
  1.359   1.456   1.578   1.746   1.769   1.782   1.805   1.850
  1.889   1.973   2.001   2.048   2.069   2.073   2.150   2.253
  2.317   2.339   2.425   2.453   2.498   2.591   2.621   2.653
  2.785   2.821   2.828   2.944   3.140   3.234   3.377   3.386
  3.424   3.585   4.160   4.375   4.533   4.671   4.700   4.717
  4.731   4.749   4.750   4.758   4.761   4.855   4.893   6.270
  6.325  90.211  90.359
 --------------------------------------------------------------
 
          Ground-State Mulliken Net Atomic Charges

     Atom                 Charge (a.u.)    Spin (a.u.)
  --------------------------------------------------------
      1 Br                   -0.244349       0.738330
      2 Br                   -0.094542       0.810313
      3 C                     0.021986       0.453889
      4 C                    -0.249939       0.003080
      5 C                    -0.361228      -0.031200
      6 H                     0.137443      -0.020010
      7 H                     0.168820       0.000924
      8 H                     0.183757       0.001069
      9 H                     0.138008       0.000392
     10 H                     0.155419       0.023757
     11 H                     0.144623       0.019457
  --------------------------------------------------------
  Sum of atomic charges =    -0.000000
  Sum of spin   charges =     2.000000

 -----------------------------------------------------------------
                    Cartesian Multipole Moments
 -----------------------------------------------------------------
    Charge (ESU x 10^10)
                -0.0000
    Dipole Moment (Debye)
         X      -3.8689      Y      -5.4057      Z      -1.0757
       Tot       6.7340
    Quadrupole Moments (Debye-Ang)
        XX     -60.0924     XY      -4.7912     YY     -63.3948
        XZ      -0.8947     YZ      -1.1612     ZZ     -56.0794
    Octopole Moments (Debye-Ang^2)
       XXX    -113.7073    XXY     -81.1203    XYY     -53.2927
       YYY    -204.2003    XXZ     -18.1136    XYZ      -3.6585
       YYZ     -15.4338    XZZ     -33.9278    YZZ     -65.7067
       ZZZ     -45.2210
    Hexadecapole Moments (Debye-Ang^3)
      XXXX   -1081.3590   XXXY    -447.7101   XXYY    -427.0886
      XYYY    -470.7162   YYYY   -1340.0172   XXXZ     -58.7868
      XXYZ     -40.3656   XYYZ     -23.5164   YYYZ    -105.2244
      XXZZ    -210.6291   XYZZ    -148.3632   YYZZ    -246.3598
      XZZZ     -53.0664   YZZZ    -108.2290   ZZZZ    -141.2429
 -----------------------------------------------------------------
 Calculating analytic gradient of the SCF energy
 Gradient of SCF Energy
            1           2           3           4           5           6
    1   0.0000787   0.0005255   0.0057716  -0.0057408   0.0000602   0.0000085
    2   0.0003781  -0.0004072   0.0017643  -0.0014556   0.0000392  -0.0000396
    3   0.0001127  -0.0003300   0.0021560  -0.0021611   0.0000078   0.0000018
            7           8           9          10          11
    1   0.0000483  -0.0005874  -0.0000373  -0.0000419  -0.0000854
    2   0.0000185  -0.0004477   0.0000981   0.0000378   0.0000143
    3  -0.0000773   0.0002454   0.0000056  -0.0000356   0.0000747
 Max gradient component =       5.772E-03
 RMS gradient           =       1.578E-03
 Gradient time:  CPU 14.66 s  wall 1.29 s
 Geometry Optimization Parameters
   NAtoms,    NIC,     NZ,  NCons,   NDum,   NFix, NCnnct, MaxDiis
       11      84       0       1       0       0       0       0

 Cartesian Hessian Update
 Hessian Updated using BFGS Update


** CONSTRAINED OPTIMIZATION IN DELOCALIZED INTERNAL COORDINATES **
   Searching for a Minimum

   Optimization Cycle:   3

                       Coordinates (Angstroms)
     ATOM                X               Y               Z
      1  Br        2.6688646476    2.4688922475    0.4004540266
      2  Br       -0.1924629573    1.8681870269    0.4653625627
      3  C        -0.8137255278   -0.9837013947   -0.5748229896
      4  C         0.3892993701   -0.5423999231   -0.0941972805
      5  C        -1.9064989392   -1.5516134815    0.2606920338
      6  H        -1.0165679562   -0.8656286277   -1.6384017623
      7  H         0.6850546819   -0.7415219580    0.9302856627
      8  H         1.1754403872   -0.2275331884   -0.7688641912
      9  H        -1.6282345137   -1.6209450072    1.3146901325
     10  H        -2.8097765561   -0.9329193365    0.1760496691
     11  H        -2.1865946365   -2.5498183574   -0.1004428638
   Point Group: c1    Number of degrees of freedom:    27


   Energy is  -5265.634232631

              Constraints and their Current Values
                                        Value     Constraint
   Distance(Angs):        1   3             5.000000     5.000000
 Hessian Updated using BFGS Update

 26 Hessian modes will be used to form the next step
  Hessian Eigenvalues:
     0.029941    0.044974    0.044999    0.045040    0.048236    0.059210
     0.062517    0.065969    0.079522    0.092094    0.092363    0.095288
     0.115062    0.159941    0.159999    0.160000    0.161422    0.220960
     0.304339    0.321786    0.337195    0.338879    0.339163    0.345479
     0.349228    0.457455

 Minimum Search - Taking Simple RFO Step
 Searching for Lamda that Minimizes Along All modes
 Value Taken    Lamda =  -0.00009804
 Step Taken.  Stepsize is  0.018353

                             Maximum     Tolerance    Cnvgd?
         Gradient           0.003105      0.000300      NO
         Displacement       0.008200      0.001200      NO
         Energy change     -0.000208      0.000001      NO


 New Cartesian Coordinates Obtained by Inverse Iteration

 Displacement from previous Coordinates is:  0.025605
 ----------------------------------------------------------------
             Standard Nuclear Orientation (Angstroms)
    I     Atom           X                Y                Z
 ----------------------------------------------------------------
    1      Br      2.6709648025     2.4647940872     0.3951893054
    2      Br     -0.1932173449     1.8709996414     0.4688994446
    3      C      -0.8163164264    -0.9843479471    -0.5755275968
    4      C       0.3924501790    -0.5400894334    -0.0922832530
    5      C      -1.9082850584    -1.5530494077     0.2600911478
    6      H      -1.0179798666    -0.8662619777    -1.6392034536
    7      H       0.6872426038    -0.7393386683     0.9324950492
    8      H       1.1792067108    -0.2228675124    -0.7665299168
    9      H      -1.6306615086    -1.6221985479     1.3143205643
   10      H      -2.8119562327    -0.9350874093     0.1748178151
   11      H      -2.1866498585    -2.5515548248    -0.1014641061
 ----------------------------------------------------------------
 Nuclear Repulsion Energy =   524.3067406086 hartrees
 There are       48 alpha and       46 beta electrons

                       Distance Matrix (Angstroms)
             Br(  1)   Br(  2)   C (  3)   C (  4)   C (  5)   H (  6)
   Br(  2)  2.926015
   C (  3)  5.000000  3.103561
   C (  4)  3.802444  2.543872  1.375503
   C (  5)  6.093509  3.835254  1.487977  2.538432
   H (  6)  5.370568  3.552032  1.089045  2.118647  2.207179
   H (  7)  3.806615  2.793563  2.143560  1.084792  2.801966  3.088289
   H (  8)  3.286101  2.791794  2.144399  1.083616  3.515102  2.450132
   H (  9)  6.004357  3.870842  2.154423  2.691185  1.092363  3.109682
   H ( 10)  6.455244  3.849468  2.132609  3.239689  1.098076  2.552207
   H ( 11)  7.000489  4.884473  2.135108  3.270754  1.097826  2.563327
             H (  7)   H (  8)   H (  9)   H ( 10)
   H (  8)  1.842677
   H (  9)  2.509564  3.766089
   H ( 10)  3.585636  4.162064  1.779338
   H ( 11)  3.551402  4.146575  1.782490  1.755080
 
 Applying Cartesian multipole field
    Component          Value
    ---------          -----
     (2,0,0)        1.00000E-11
     (0,2,0)        2.00000E-11
     (0,0,2)       -3.00000E-11
 Nucleus-field energy     =     0.0000000346 hartrees
 Requested basis set is 6-31G(d,p)
 There are 46 shells and 145 basis functions
 A cutoff of  1.0D-14 yielded    916 shell pairs
 There are      8936 function pairs
 Smallest overlap matrix eigenvalue = 7.24E-04
 Guess from superposition of atomic densities
 Warning:  Energy on first SCF cycle will be non-variational
 SAD guess density has 93.945746 electrons

 -----------------------------------------------------------------------
  General SCF calculation program by
  Eric Jon Sundstrom, Paul Horn, Yuezhi Mao, Dmitri Zuev, Alec White,
  David Stuck, Shaama M.S., Shane Yost, Joonho Lee, David Small,
  Daniel Levine, Susi Lehtola, Hugh Burton, Evgeny Epifanovsky
 -----------------------------------------------------------------------
 Exchange:     0.2000 Hartree-Fock + 0.0800 Slater + 0.7200 B88
 Correlation:  0.1900 VWN1RPA + 0.8100 LYP
 Using SG-1 standard quadrature grid
 using 12 threads for integral computing
 -------------------------------------------------------
 OpenMP Integral computing Module                
 Release: version 1.0, May 2013, Q-Chem Inc. Pittsburgh 
 -------------------------------------------------------
 -------------------------------------------------------
 OpenMP BLAS3 based DFT computing Module                
 Release: version 1.0, May 2013, Q-Chem Inc. Pittsburgh 
 -------------------------------------------------------
 A unrestricted SCF calculation will be
 performed using DIIS
 SCF converges when DIIS error is below 1.0e-06
 Alpha HF Exchange    Energy = -19.60252868468981
 Beta HF Exchange     Energy = -19.60252868468981
 DFT Correlation      Energy =  -5.19377399104358
 DFT Exchange         Energy = -155.85862699318966
 One-Electron (alpha) Energy = -4180.66862417558423
 One-Electron (beta)  Energy = -4180.66862417558423
 Total Coulomb        Energy = 2764.48745939228684
 ---------------------------------------
  Cycle       Energy         DIIS error
 ---------------------------------------
    1   -5272.8005066693      1.83e-01  
 Alpha HF Exchange    Energy = -19.84050425224632
 Beta HF Exchange     Energy = -19.61661133119510
 DFT Correlation      Energy =  -5.24189459315092
 DFT Exchange         Energy = -157.04698467328694
 One-Electron (alpha) Energy = -4218.33815194880845
 One-Electron (beta)  Energy = -4165.37850098539820
 Total Coulomb        Energy = 2795.67091972419166
    2   -5265.4849874167      1.04e-02  
 Alpha HF Exchange    Energy = -19.69355435138871
 Beta HF Exchange     Energy = -19.49406391714334
 DFT Correlation      Energy =  -5.20249554454590
 DFT Exchange         Energy = -155.96469681387399
 One-Electron (alpha) Energy = -4201.93885805932769
 One-Electron (beta)  Energy = -4145.91800859850991
 Total Coulomb        Energy = 2758.65384124327647
    3   -5265.2510953984      5.15e-03  
 Alpha HF Exchange    Energy = -19.80156617852977
 Beta HF Exchange     Energy = -19.59784719323444
 DFT Correlation      Energy =  -5.22429494670764
 DFT Exchange         Energy = -156.76700127239945
 One-Electron (alpha) Energy = -4215.24374356804492
 One-Electron (beta)  Energy = -4162.33033192434959
 Total Coulomb        Energy = 2789.44809620260730
    4   -5265.2099482375      5.52e-03  
 Alpha HF Exchange    Energy = -19.78515607472579
 Beta HF Exchange     Energy = -19.56070393952812
 DFT Correlation      Energy =  -5.22651266104315
 DFT Exchange         Energy = -156.59882392375206
 One-Electron (alpha) Energy = -4212.78384519644896
 One-Electron (beta)  Energy = -4158.91212054545304
 Total Coulomb        Energy = 2782.94547888896614
    5   -5265.6149428088      1.09e-03  
 Alpha HF Exchange    Energy = -19.76699171118386
 Beta HF Exchange     Energy = -19.54290843208848
 DFT Correlation      Energy =  -5.22164362673475
 DFT Exchange         Energy = -156.45715842323409
 One-Electron (alpha) Energy = -4210.64081518615330
 One-Electron (beta)  Energy = -4156.08312558729176
 Total Coulomb        Energy = 2777.77527031664840
    6   -5265.6306320069      3.92e-04  
 Alpha HF Exchange    Energy = -19.76881190869727
 Beta HF Exchange     Energy = -19.54510769607802
 DFT Correlation      Energy =  -5.22152206872446
 DFT Exchange         Energy = -156.46931654281707
 One-Electron (alpha) Energy = -4210.80834543524998
 One-Electron (beta)  Energy = -4156.31612980821046
 Total Coulomb        Energy = 2778.18926427223550
    7   -5265.6332285444      2.03e-04  
 Alpha HF Exchange    Energy = -19.76911553091432
 Beta HF Exchange     Energy = -19.54536794748608
 DFT Correlation      Energy =  -5.22172863703473
 DFT Exchange         Energy = -156.47147852179717
 One-Electron (alpha) Energy = -4210.79726645651317
 One-Electron (beta)  Energy = -4156.03918328010968
 Total Coulomb        Energy = 2777.90345573697232
    8   -5265.6339439937      1.10e-04  
 Alpha HF Exchange    Energy = -19.76889265359780
 Beta HF Exchange     Energy = -19.54563745312022
 DFT Correlation      Energy =  -5.22143007392927
 DFT Exchange         Energy = -156.46955815647345
 One-Electron (alpha) Energy = -4210.83282347630302
 One-Electron (beta)  Energy = -4156.14710174588436
 Total Coulomb        Energy = 2778.04450767805520
    9   -5265.6341952381      5.09e-05  
 Alpha HF Exchange    Energy = -19.76899621927431
 Beta HF Exchange     Energy = -19.54590664737896
 DFT Correlation      Energy =  -5.22135828500243
 DFT Exchange         Energy = -156.47030311590174
 One-Electron (alpha) Energy = -4210.80162770276274
 One-Electron (beta)  Energy = -4156.09432585797913
 Total Coulomb        Energy = 2777.96151061147521
   10   -5265.6342665737      2.80e-05  
 Alpha HF Exchange    Energy = -19.76904204965362
 Beta HF Exchange     Energy = -19.54609866547748
 DFT Correlation      Energy =  -5.22132965137920
 DFT Exchange         Energy = -156.47090050088349
 One-Electron (alpha) Energy = -4210.80598123204072
 One-Electron (beta)  Energy = -4156.09882507861221
 Total Coulomb        Energy = 2777.97115525908021
   11   -5265.6342812758      9.34e-06  
 Alpha HF Exchange    Energy = -19.76905281387302
 Beta HF Exchange     Energy = -19.54617023876899
 DFT Correlation      Energy =  -5.22131359142896
 DFT Exchange         Energy = -156.47103802106841
 One-Electron (alpha) Energy = -4210.80280638183740
 One-Electron (beta)  Energy = -4156.10976518374264
 Total Coulomb        Energy = 2777.97912041310929
   12   -5265.6342851745      4.00e-06  
 Alpha HF Exchange    Energy = -19.76904106837401
 Beta HF Exchange     Energy = -19.54619379284266
 DFT Correlation      Energy =  -5.22130866093119
 DFT Exchange         Energy = -156.47103497007129
 One-Electron (alpha) Energy = -4210.79865768631316
 One-Electron (beta)  Energy = -4156.11290367156744
 Total Coulomb        Energy = 2777.97811342865862
   13   -5265.6342857783      1.89e-06  
 Alpha HF Exchange    Energy = -19.76903781205473
 Beta HF Exchange     Energy = -19.54619852296290
 DFT Correlation      Energy =  -5.22130372481055
 DFT Exchange         Energy = -156.47102788538155
 One-Electron (alpha) Energy = -4210.79709908743553
 One-Electron (beta)  Energy = -4156.11423945070328
 Total Coulomb        Energy = 2777.97787995433373
   14   -5265.6342858859      6.39e-07  Convergence criterion met
 ---------------------------------------
 SCF time:   CPU 51.13s  wall 4.00s 
<S^2> =          2.011536392
 Alpha HF Exchange    Energy = -19.76903781205473
 Beta HF Exchange     Energy = -19.54619852296290
 DFT Correlation      Energy =  -5.22130372481055
 DFT Exchange         Energy = -156.47102788538155
 One-Electron (alpha) Energy = -4210.79709908743553
 One-Electron (beta)  Energy = -4156.11423945070328
 Total Coulomb        Energy = 2777.97787995433373
 Nuclear repulsion Energy = 524.30674064315849
 SCF   energy in the final basis set =    -5265.6342858859
 Total energy in the final basis set =    -5265.6342858859
 
 --------------------------------------------------------------
 
                    Orbital Energies (a.u.)
 --------------------------------------------------------------
 
 Alpha MOs
 -- Occupied --
*******-482.829 -62.528 -62.487 -56.350 -56.348 -56.345 -56.309
-56.304 -56.304 -10.266 -10.255 -10.225  -8.716  -8.674  -6.544
 -6.538  -6.531  -6.506  -6.491  -6.490  -2.638  -2.637  -2.632
 -2.627  -2.627  -2.598  -2.594  -2.594  -2.583  -2.583  -0.849
 -0.780  -0.735  -0.726  -0.611  -0.518  -0.474  -0.460  -0.418
 -0.402  -0.373  -0.353  -0.304  -0.275  -0.261  -0.261  -0.251
 -- Virtual --
 -0.047   0.072   0.096   0.112   0.134   0.135   0.149   0.207
  0.236   0.251   0.293   0.322   0.334   0.369   0.371   0.380
  0.416   0.462   0.474   0.499   0.516   0.524   0.551   0.564
  0.570   0.585   0.618   0.637   0.638   0.649   0.654   0.666
  0.688   0.741   0.806   0.815   0.821   0.852   0.860   0.890
  0.908   0.963   1.130   1.241   1.250   1.274   1.343   1.452
  1.575   1.735   1.758   1.773   1.793   1.842   1.874   1.962
  1.999   2.044   2.065   2.069   2.137   2.249   2.315   2.332
  2.420   2.441   2.492   2.582   2.614   2.647   2.780   2.818
  2.823   2.938   3.138   3.230   3.372   3.383   3.422   3.577
  4.147   4.373   4.525   4.662   4.693   4.706   4.722   4.746
  4.747   4.748   4.749   4.845   4.880   6.257   6.312  90.207
 90.353
 
 Beta MOs
 -- Occupied --
*******-482.827 -62.527 -62.485 -56.346 -56.345 -56.344 -56.305
-56.303 -56.303 -10.260 -10.254 -10.225  -8.712  -8.670  -6.537
 -6.533  -6.529  -6.497  -6.489  -6.488  -2.632  -2.631  -2.628
 -2.625  -2.624  -2.592  -2.589  -2.589  -2.582  -2.582  -0.836
 -0.752  -0.725  -0.693  -0.604  -0.515  -0.471  -0.450  -0.416
 -0.400  -0.336  -0.309  -0.292  -0.255  -0.250
 -- Virtual --
 -0.176  -0.153  -0.020   0.074   0.097   0.114   0.137   0.139
  0.153   0.215   0.239   0.260   0.299   0.327   0.353   0.376
  0.378   0.395   0.431   0.468   0.483   0.519   0.539   0.544
  0.571   0.579   0.587   0.604   0.629   0.645   0.646   0.670
  0.680   0.688   0.697   0.752   0.811   0.819   0.826   0.855
  0.879   0.899   0.910   0.975   1.133   1.249   1.259   1.280
  1.358   1.454   1.577   1.746   1.769   1.781   1.806   1.850
  1.883   1.971   2.001   2.047   2.068   2.071   2.146   2.252
  2.317   2.338   2.425   2.451   2.496   2.589   2.619   2.651
  2.782   2.820   2.827   2.940   3.140   3.232   3.375   3.386
  3.423   3.580   4.157   4.375   4.531   4.671   4.700   4.717
  4.731   4.749   4.750   4.758   4.761   4.854   4.893   6.270
  6.325  90.212  90.358
 --------------------------------------------------------------
 
          Ground-State Mulliken Net Atomic Charges

     Atom                 Charge (a.u.)    Spin (a.u.)
  --------------------------------------------------------
      1 Br                   -0.245170       0.737416
      2 Br                   -0.096442       0.806795
      3 C                     0.020660       0.459600
      4 C                    -0.248623       0.002092
      5 C                    -0.361095      -0.031654
      6 H                     0.137923      -0.020263
      7 H                     0.169367       0.000921
      8 H                     0.184503       0.001052
      9 H                     0.138322       0.000401
     10 H                     0.155692       0.023955
     11 H                     0.144864       0.019685
  --------------------------------------------------------
  Sum of atomic charges =    -0.000000
  Sum of spin   charges =     2.000000

 -----------------------------------------------------------------
                    Cartesian Multipole Moments
 -----------------------------------------------------------------
    Charge (ESU x 10^10)
                -0.0000
    Dipole Moment (Debye)
         X      -3.8816      Y      -5.4324      Z      -1.0765
       Tot       6.7629
    Quadrupole Moments (Debye-Ang)
        XX     -60.1054     XY      -4.7909     YY     -63.4254
        XZ      -0.8847     YZ      -1.1623     ZZ     -56.0784
    Octopole Moments (Debye-Ang^2)
       XXX    -113.9188    XXY     -81.2345    XYY     -53.3986
       YYY    -204.2513    XXZ     -18.1031    XYZ      -3.6577
       YYZ     -15.3929    XZZ     -33.9621    YZZ     -65.7021
       ZZZ     -45.1275
    Hexadecapole Moments (Debye-Ang^3)
      XXXX   -1083.3125   XXXY    -447.7123   XXYY    -427.5322
      XYYY    -470.5828   YYYY   -1339.2299   XXXZ     -58.1994
      XXYZ     -40.3167   XYYZ     -23.2689   YYYZ    -104.8060
      XXZZ    -210.9220   XYZZ    -148.2534   YYZZ    -246.1742
      XZZZ     -52.2865   YZZZ    -107.8534   ZZZZ    -141.1165
 -----------------------------------------------------------------
 Calculating analytic gradient of the SCF energy
 Gradient of SCF Energy
            1           2           3           4           5           6
    1   0.0001029   0.0003810   0.0000403  -0.0004581  -0.0001187  -0.0000389
    2   0.0003708   0.0000069  -0.0001555  -0.0002314  -0.0000284  -0.0001083
    3   0.0001114  -0.0002464  -0.0000238   0.0000698  -0.0000091   0.0000029
            7           8           9          10          11
    1   0.0001334   0.0000075  -0.0000652   0.0000203  -0.0000046
    2   0.0000965  -0.0001294   0.0000745   0.0000634   0.0000410
    3   0.0000124  -0.0000017   0.0000646  -0.0000409   0.0000607
 Max gradient component =       4.581E-04
 RMS gradient           =       1.516E-04
 Gradient time:  CPU 14.63 s  wall 1.28 s
 Geometry Optimization Parameters
   NAtoms,    NIC,     NZ,  NCons,   NDum,   NFix, NCnnct, MaxDiis
       11      84       0       1       0       0       0       0

 Cartesian Hessian Update
 Hessian Updated using BFGS Update


** CONSTRAINED OPTIMIZATION IN DELOCALIZED INTERNAL COORDINATES **
   Searching for a Minimum

   Optimization Cycle:   4

                       Coordinates (Angstroms)
     ATOM                X               Y               Z
      1  Br        2.6709648025    2.4647940872    0.3951893054
      2  Br       -0.1932173449    1.8709996414    0.4688994446
      3  C        -0.8163164264   -0.9843479471   -0.5755275968
      4  C         0.3924501790   -0.5400894334   -0.0922832530
      5  C        -1.9082850584   -1.5530494077    0.2600911478
      6  H        -1.0179798666   -0.8662619777   -1.6392034536
      7  H         0.6872426038   -0.7393386683    0.9324950492
      8  H         1.1792067108   -0.2228675124   -0.7665299168
      9  H        -1.6306615086   -1.6221985479    1.3143205643
     10  H        -2.8119562327   -0.9350874093    0.1748178151
     11  H        -2.1866498585   -2.5515548248   -0.1014641061
   Point Group: c1    Number of degrees of freedom:    27


   Energy is  -5265.634285886

              Constraints and their Current Values
                                        Value     Constraint
   Distance(Angs):        1   3             5.000000     5.000000
 Hessian Updated using BFGS Update

 26 Hessian modes will be used to form the next step
  Hessian Eigenvalues:
     0.030048    0.044553    0.044997    0.045039    0.046132    0.059196
     0.061726    0.066261    0.079541    0.091500    0.092364    0.095290
     0.112469    0.159822    0.160000    0.160011    0.160917    0.220492
     0.304562    0.321961    0.336345    0.338884    0.339167    0.345497
     0.349129    0.457315

 Minimum Search - Taking Simple RFO Step
 Searching for Lamda that Minimizes Along All modes
 Value Taken    Lamda =  -0.00000453
 Step Taken.  Stepsize is  0.008693

                             Maximum     Tolerance    Cnvgd?
         Gradient           0.000314      0.000300      NO
         Displacement       0.003614      0.001200      NO
         Energy change     -0.000053      0.000001      NO


 New Cartesian Coordinates Obtained by Inverse Iteration

 Displacement from previous Coordinates is:  0.011915
 ----------------------------------------------------------------
[...]
   Br(  2)  2.938573
   C (  3)  5.000000  3.106646
   C (  4)  3.798893  2.542840  1.376516
   C (  5)  6.097746  3.837594  1.487738  2.538553
   H (  6)  5.367474  3.557119  1.089002  2.119068  2.207961
   H (  7)  3.808981  2.791860  2.142998  1.084800  2.799620  3.087654
   H (  8)  3.273783  2.790266  2.145648  1.083588  3.515524  2.450939
   H (  9)  6.009049  3.868875  2.153845  2.690121  1.092304  3.109844
   H ( 10)  6.465369  3.855345  2.132760  3.240842  1.098110  2.553213
   H ( 11)  7.001500  4.887288  2.135278  3.270843  1.097899  2.565264
             H (  7)   H (  8)   H (  9)   H ( 10)
   H (  8)  1.843455
   H (  9)  2.505964  3.765154
   H ( 10)  3.585082  4.163437  1.779343
   H ( 11)  3.547869  4.147360  1.782455  1.754888
 
 Applying Cartesian multipole field
    Component          Value
    ---------          -----
     (2,0,0)        1.00000E-11
     (0,2,0)        2.00000E-11
     (0,0,2)       -3.00000E-11
 Nucleus-field energy     =     0.0000000346 hartrees
 Requested basis set is 6-31G(d,p)
 There are 46 shells and 145 basis functions
 A cutoff of  1.0D-14 yielded    916 shell pairs
 There are      8936 function pairs
 Smallest overlap matrix eigenvalue = 7.24E-04
 Guess from superposition of atomic densities
 Warning:  Energy on first SCF cycle will be non-variational
 SAD guess density has 93.945746 electrons

 -----------------------------------------------------------------------
  General SCF calculation program by
  Eric Jon Sundstrom, Paul Horn, Yuezhi Mao, Dmitri Zuev, Alec White,
  David Stuck, Shaama M.S., Shane Yost, Joonho Lee, David Small,
  Daniel Levine, Susi Lehtola, Hugh Burton, Evgeny Epifanovsky
 -----------------------------------------------------------------------
 Exchange:     0.2000 Hartree-Fock + 0.0800 Slater + 0.7200 B88
 Correlation:  0.1900 VWN1RPA + 0.8100 LYP
 Using SG-1 standard quadrature grid
 using 12 threads for integral computing
 -------------------------------------------------------
 OpenMP Integral computing Module                
 Release: version 1.0, May 2013, Q-Chem Inc. Pittsburgh 
 -------------------------------------------------------
 -------------------------------------------------------
 OpenMP BLAS3 based DFT computing Module                
 Release: version 1.0, May 2013, Q-Chem Inc. Pittsburgh 
 -------------------------------------------------------
 A unrestricted SCF calculation will be
 performed using DIIS
 SCF converges when DIIS error is below 1.0e-06
 Alpha HF Exchange    Energy = -19.60225556962674
 Beta HF Exchange     Energy = -19.60225556962674
 DFT Correlation      Energy =  -5.19364509478479
 DFT Exchange         Energy = -155.85805566485217
 One-Electron (alpha) Energy = -4179.70017431686756
 One-Electron (beta)  Energy = -4179.70017431686756
 Total Coulomb        Energy = 2763.52540138498580
 ---------------------------------------
  Cycle       Energy         DIIS error
 ---------------------------------------
    1   -5272.7945752412      1.83e-01  
 Alpha HF Exchange    Energy = -19.84028527309058
 Beta HF Exchange     Energy = -19.61645911358405
 DFT Correlation      Energy =  -5.24174206910824
 DFT Exchange         Energy = -157.04576771258735
 One-Electron (alpha) Energy = -4217.32941249776832
 One-Electron (beta)  Energy = -4164.42175045078238
 Total Coulomb        Energy = 2794.67376556936051
    2   -5265.4850676412      1.04e-02  
 Alpha HF Exchange    Energy = -19.69347535222356
 Beta HF Exchange     Energy = -19.49542465234256
 DFT Correlation      Energy =  -5.20208259167825
 DFT Exchange         Energy = -155.96677996091603
 One-Electron (alpha) Energy = -4200.95139960013694
 One-Electron (beta)  Energy = -4144.91784128135623
 Total Coulomb        Energy = 2757.65322661449864
    3   -5265.2371929177      5.17e-03  
 Alpha HF Exchange    Energy = -19.80100499721637
 Beta HF Exchange     Energy = -19.59824475907733
 DFT Correlation      Energy =  -5.22392486616760
 DFT Exchange         Energy = -156.76526274436117
 One-Electron (alpha) Energy = -4214.21002514988413
 One-Electron (beta)  Energy = -4161.42791270539692
 Total Coulomb        Energy = 2788.49431743037803
    4   -5265.1954738853      5.60e-03  
 Alpha HF Exchange    Energy = -19.78523778534931
 Beta HF Exchange     Energy = -19.56182316298164
 DFT Correlation      Energy =  -5.22631627322003
 DFT Exchange         Energy = -156.60115627866384
 One-Electron (alpha) Energy = -4211.82146150109111
 One-Electron (beta)  Energy = -4158.16273374617231
 Total Coulomb        Energy = 2782.21108154060448
    5   -5265.6110633005      1.15e-03  
 Alpha HF Exchange    Energy = -19.76690398827122
 Beta HF Exchange     Energy = -19.54363876022412
 DFT Correlation      Energy =  -5.22147869798695
 DFT Exchange         Energy = -156.45795847979363
 One-Electron (alpha) Energy = -4209.62962660780613
 One-Electron (beta)  Energy = -4155.24572969509154
 Total Coulomb        Energy = 2776.89825216077588
    6   -5265.6305001620      4.05e-04  
 Alpha HF Exchange    Energy = -19.76867698460038
 Beta HF Exchange     Energy = -19.54563823046879
 DFT Correlation      Energy =  -5.22134904710165
 DFT Exchange         Energy = -156.46959723915808
 One-Electron (alpha) Energy = -4209.78334838124920
 One-Electron (beta)  Energy = -4155.43481032360432
 Total Coulomb        Energy = 2777.25351250625681
    7   -5265.6333237935      2.11e-04  
 Alpha HF Exchange    Energy = -19.76888662640802
 Beta HF Exchange     Energy = -19.54560682888821
 DFT Correlation      Energy =  -5.22156347384358
 DFT Exchange         Energy = -156.47087815509988
 One-Electron (alpha) Energy = -4209.77363516303558
 One-Electron (beta)  Energy = -4155.12362861269867
 Total Coulomb        Energy = 2776.93363052595032
    8   -5265.6339844276      1.18e-04  
 Alpha HF Exchange    Energy = -19.76863961988829
 Beta HF Exchange     Energy = -19.54572065158485
 DFT Correlation      Energy =  -5.22125702523918
 DFT Exchange         Energy = -156.46853490074619
 One-Electron (alpha) Energy = -4209.81281850209962
 One-Electron (beta)  Energy = -4155.22906793525271
 Total Coulomb        Energy = 2777.07524206967400
    9   -5265.6342126587      5.24e-05  
 Alpha HF Exchange    Energy = -19.76877967065045
 Beta HF Exchange     Energy = -19.54592344876304
 DFT Correlation      Energy =  -5.22120091654586
 DFT Exchange         Energy = -156.46938134003949
 One-Electron (alpha) Energy = -4209.78590073133728
 One-Electron (beta)  Energy = -4155.16335684788464
 Total Coulomb        Energy = 2776.98368343954280
   10   -5265.6342756093      2.95e-05  
 Alpha HF Exchange    Energy = -19.76884955108491
 Beta HF Exchange     Energy = -19.54611205276465
 DFT Correlation      Energy =  -5.22117403975858
 DFT Exchange         Energy = -156.47007988210916
 One-Electron (alpha) Energy = -4209.79497270031516
 One-Electron (beta)  Energy = -4155.16808382260479
 Total Coulomb        Energy = 2776.99839864465866
   11   -5265.6342894976      1.02e-05  
 Alpha HF Exchange    Energy = -19.76886945922481
 Beta HF Exchange     Energy = -19.54617472349332
 DFT Correlation      Energy =  -5.22115717279885
 DFT Exchange         Energy = -156.47022440598619
 One-Electron (alpha) Energy = -4209.79371822795747
 One-Electron (beta)  Energy = -4155.17751015440535
 Total Coulomb        Energy = 2777.00677697107540
   12   -5265.6342932664      4.01e-06  
 Alpha HF Exchange    Energy = -19.76885886150631
 Beta HF Exchange     Energy = -19.54619838608399
 DFT Correlation      Energy =  -5.22115026666425
 DFT Exchange         Energy = -156.47021785108097
 One-Electron (alpha) Energy = -4209.78986442784208
 One-Electron (beta)  Energy = -4155.18058363981436
 Total Coulomb        Energy = 2777.00599577947332
   13   -5265.6342937471      1.80e-06  
 Alpha HF Exchange    Energy = -19.76885616381753
 Beta HF Exchange     Energy = -19.54620332276343
 DFT Correlation      Energy =  -5.22114561051633
 DFT Exchange         Energy = -156.47021353170555
 One-Electron (alpha) Energy = -4209.78842725949835
 One-Electron (beta)  Energy = -4155.18170357267536
 Total Coulomb        Energy = 2777.00567174863318
   14   -5265.6342938059      6.76e-07  Convergence criterion met
 ---------------------------------------
 SCF time:   CPU 51.29s  wall 4.00s 
<S^2> =          2.011633022
 Alpha HF Exchange    Energy = -19.76885616381753
 Beta HF Exchange     Energy = -19.54620332276343
 DFT Correlation      Energy =  -5.22114561051633
 DFT Exchange         Energy = -156.47021353170555
 One-Electron (alpha) Energy = -4209.78842725949835
 One-Electron (beta)  Energy = -4155.18170357267536
 Total Coulomb        Energy = 2777.00567174863318
 Nuclear repulsion Energy = 523.33658390640676
 SCF   energy in the final basis set =    -5265.6342938059
 Total energy in the final basis set =    -5265.6342938059
 
 --------------------------------------------------------------
 
                    Orbital Energies (a.u.)
 --------------------------------------------------------------
 
 Alpha MOs
 -- Occupied --
*******-482.829 -62.528 -62.487 -56.350 -56.347 -56.345 -56.310
-56.304 -56.304 -10.266 -10.255 -10.225  -8.715  -8.674  -6.544
 -6.537  -6.531  -6.506  -6.491  -6.490  -2.638  -2.637  -2.632
 -2.627  -2.626  -2.598  -2.595  -2.594  -2.583  -2.583  -0.849
 -0.780  -0.735  -0.726  -0.611  -0.519  -0.474  -0.460  -0.418
 -0.402  -0.373  -0.352  -0.304  -0.275  -0.262  -0.261  -0.252
 -- Virtual --
 -0.047   0.072   0.096   0.112   0.134   0.135   0.149   0.207
  0.236   0.251   0.293   0.322   0.334   0.369   0.371   0.380
  0.415   0.462   0.474   0.499   0.517   0.524   0.552   0.564
  0.571   0.585   0.617   0.637   0.638   0.648   0.653   0.666
  0.687   0.740   0.806   0.815   0.821   0.851   0.859   0.890
  0.908   0.963   1.130   1.241   1.250   1.274   1.343   1.452
  1.575   1.736   1.759   1.773   1.793   1.842   1.874   1.962
  1.998   2.044   2.064   2.069   2.137   2.249   2.314   2.332
  2.420   2.441   2.492   2.582   2.614   2.646   2.780   2.818
  2.823   2.937   3.138   3.231   3.373   3.383   3.422   3.576
  4.146   4.373   4.525   4.663   4.694   4.706   4.722   4.746
  4.747   4.747   4.749   4.845   4.876   6.258   6.311  90.214
 90.346
 
 Beta MOs
 -- Occupied --
*******-482.827 -62.527 -62.486 -56.346 -56.345 -56.344 -56.305
-56.303 -56.303 -10.260 -10.254 -10.225  -8.712  -8.671  -6.537
 -6.533  -6.529  -6.498  -6.489  -6.489  -2.632  -2.631  -2.628
 -2.624  -2.624  -2.592  -2.590  -2.589  -2.582  -2.582  -0.836
 -0.752  -0.725  -0.694  -0.604  -0.515  -0.471  -0.450  -0.416
 -0.400  -0.336  -0.308  -0.292  -0.255  -0.250
 -- Virtual --
 -0.176  -0.154  -0.020   0.074   0.097   0.114   0.137   0.139
  0.153   0.214   0.239   0.260   0.299   0.327   0.352   0.376
  0.378   0.395   0.430   0.468   0.483   0.519   0.540   0.546
  0.571   0.579   0.588   0.605   0.629   0.645   0.646   0.670
  0.678   0.687   0.697   0.752   0.811   0.819   0.826   0.855
  0.877   0.898   0.910   0.974   1.133   1.249   1.259   1.280
  1.358   1.455   1.577   1.747   1.769   1.781   1.805   1.850
  1.883   1.971   2.001   2.047   2.068   2.071   2.146   2.252
  2.317   2.338   2.426   2.450   2.495   2.589   2.618   2.650
  2.783   2.820   2.826   2.939   3.140   3.232   3.375   3.386
  3.423   3.578   4.157   4.375   4.531   4.673   4.701   4.718
  4.732   4.749   4.750   4.757   4.759   4.855   4.889   6.272
  6.324  90.219  90.352
 --------------------------------------------------------------
 
          Ground-State Mulliken Net Atomic Charges

     Atom                 Charge (a.u.)    Spin (a.u.)
  --------------------------------------------------------
      1 Br                   -0.244387       0.738285
      2 Br                   -0.098120       0.803743
      3 C                     0.020752       0.462478
      4 C                    -0.248523       0.001386
      5 C                    -0.361185      -0.031883
      6 H                     0.137990      -0.020380
      7 H                     0.169423       0.000975
      8 H                     0.184960       0.001066
      9 H                     0.138389       0.000403
     10 H                     0.155746       0.024060
     11 H                     0.144955       0.019867
  --------------------------------------------------------
  Sum of atomic charges =    -0.000000
  Sum of spin   charges =     2.000000

 -----------------------------------------------------------------
                    Cartesian Multipole Moments
 -----------------------------------------------------------------
    Charge (ESU x 10^10)
                -0.0000
    Dipole Moment (Debye)
         X      -3.8828      Y      -5.4318      Z      -1.0692
       Tot       6.7620
    Quadrupole Moments (Debye-Ang)
        XX     -60.1212     XY      -4.7557     YY     -63.3910
        XZ      -0.8615     YZ      -1.1395     ZZ     -56.0730
    Octopole Moments (Debye-Ang^2)
       XXX    -114.2445    XXY     -81.1658    XYY     -53.4727
       YYY    -203.9492    XXZ     -18.0401    XYZ      -3.6138
       YYZ     -15.2587    XZZ     -34.0690    YZZ     -65.5922
       ZZZ     -44.9466
    Hexadecapole Moments (Debye-Ang^3)
      XXXX   -1089.0659   XXXY    -447.7120   XXYY    -428.1562
      XYYY    -470.6165   YYYY   -1335.5648   XXXZ     -56.7333
      XXYZ     -40.0762   XYYZ     -22.6639   YYYZ    -103.6631
      XXZZ    -211.9903   XYZZ    -148.2630   YYZZ    -245.5029
      XZZZ     -50.6055   YZZZ    -106.9439   ZZZZ    -140.9105
 -----------------------------------------------------------------
 Calculating analytic gradient of the SCF energy
 Gradient of SCF Energy
            1           2           3           4           5           6
    1   0.0005785  -0.0000876  -0.0007212   0.0002963   0.0000139   0.0000869
    2   0.0004457   0.0000977  -0.0005357  -0.0000599   0.0000490  -0.0001047
    3   0.0000881  -0.0001679  -0.0001246   0.0000937   0.0000217   0.0000010
            7           8           9          10          11
    1  -0.0000347  -0.0000207  -0.0000495  -0.0000170  -0.0000452
    2   0.0000166  -0.0000607   0.0000909   0.0000436   0.0000174
    3   0.0000573  -0.0000194   0.0000210  -0.0000385   0.0000677
 Max gradient component =       7.212E-04
 RMS gradient           =       2.175E-04
 Gradient time:  CPU 14.63 s  wall 1.30 s
 Geometry Optimization Parameters
   NAtoms,    NIC,     NZ,  NCons,   NDum,   NFix, NCnnct, MaxDiis
       11      84       0       1       0       0       0       0

 Cartesian Hessian Update
 Hessian Updated using BFGS Update


** CONSTRAINED OPTIMIZATION IN DELOCALIZED INTERNAL COORDINATES **
   Searching for a Minimum

   Optimization Cycle:   7

                       Coordinates (Angstroms)
     ATOM                X               Y               Z
      1  Br        2.6815375608    2.4575570835    0.3835875403
      2  Br       -0.1967440454    1.8728354444    0.4774370754
      3  C        -0.8171058635   -0.9832746741   -0.5756691784
      4  C         0.3903440359   -0.5354639947   -0.0895339506
      5  C        -1.9082960014   -1.5549601195    0.2585040670
      6  H        -1.0160644396   -0.8655747795   -1.6398535347
      7  H         0.6821813325   -0.7371525914    0.9356220050
      8  H         1.1778143269   -0.2154646561   -0.7615863210
      9  H        -1.6319869125   -1.6214148637    1.3131915013
     10  H        -2.8144664168   -0.9409294773    0.1709386103
     11  H        -2.1824155769   -2.5551593714   -0.1018328146
   Point Group: c1    Number of degrees of freedom:    27


   Energy is  -5265.634293806

              Constraints and their Current Values
                                        Value     Constraint
   Distance(Angs):        1   3             5.000000     5.000000
 Hessian Updated using BFGS Update

 26 Hessian modes will be used to form the next step
  Hessian Eigenvalues:
     0.007869    0.031391    0.044856    0.045035    0.045153    0.058380
     0.059847    0.065535    0.079398    0.090688    0.092374    0.095291
     0.101873    0.159451    0.160000    0.160110    0.161235    0.219898
     0.304815    0.321985    0.336373    0.338910    0.339239    0.345694
     0.349417    0.526756

 Minimum Search - Taking Simple RFO Step
 Searching for Lamda that Minimizes Along All modes
 Value Taken    Lamda =  -0.00000108
 Step Taken.  Stepsize is  0.009549

                             Maximum     Tolerance    Cnvgd?
         Gradient           0.000136      0.000300     YES
         Displacement       0.003454      0.001200      NO
         Energy change     -0.000001      0.000001     YES


                       Distance Matrix (Angstroms)
             Br(  1)   Br(  2)   C (  3)   C (  4)   C (  5)   H (  6)
   Br(  2)  2.938573
   C (  3)  5.000000  3.106646
   C (  4)  3.798893  2.542840  1.376516
   C (  5)  6.097746  3.837594  1.487738  2.538553
   H (  6)  5.367474  3.557119  1.089002  2.119068  2.207961
   H (  7)  3.808981  2.791860  2.142998  1.084800  2.799620  3.087654
   H (  8)  3.273783  2.790266  2.145648  1.083588  3.515524  2.450939
   H (  9)  6.009049  3.868875  2.153845  2.690121  1.092304  3.109844
   H ( 10)  6.465369  3.855345  2.132760  3.240842  1.098110  2.553213
   H ( 11)  7.001500  4.887288  2.135278  3.270843  1.097899  2.565264
             H (  7)   H (  8)   H (  9)   H ( 10)
   H (  8)  1.843455
   H (  9)  2.505964  3.765154
   H ( 10)  3.585082  4.163437  1.779343
   H ( 11)  3.547869  4.147360  1.782455  1.754888
 
 Final energy is   -5265.63429380594     


 ******************************
 **  OPTIMIZATION CONVERGED  **
 ******************************

                       Coordinates (Angstroms)
     ATOM                X               Y               Z
      1  Br        2.6815375608    2.4575570835    0.3835875403
      2  Br       -0.1967440454    1.8728354444    0.4774370754
      3  C        -0.8171058635   -0.9832746741   -0.5756691784
      4  C         0.3903440359   -0.5354639947   -0.0895339506
      5  C        -1.9082960014   -1.5549601195    0.2585040670
      6  H        -1.0160644396   -0.8655747795   -1.6398535347
      7  H         0.6821813325   -0.7371525914    0.9356220050
      8  H         1.1778143269   -0.2154646561   -0.7615863210
      9  H        -1.6319869125   -1.6214148637    1.3131915013
     10  H        -2.8144664168   -0.9409294773    0.1709386103
     11  H        -2.1824155769   -2.5551593714   -0.1018328146

Z-matrix Print:
$molecule
0 3
Br
C  1 2.542840
H  2 1.083588 1 91.511788
H  2 1.084800 1 91.575188 3 116.523081 0
C  2 1.376516 1 100.622144 3 -121.911297 0
H  5 1.089002 2 118.048106 1 89.119374 0
C  5 1.487738 2 124.775515 1 -87.475522 0
H  7 1.092304 5 112.286183 2 -2.343901 0
H  7 1.097899 5 110.436666 2 -124.155595 0
H  7 1.098110 5 110.222916 2 118.938539 0
Br 1 2.938573 2 87.431752 3 -37.789203 0
$end

PES scan, value:    5.0000 energy: -5265.6342938059
------- Summary of potential scan: ------ 
    5.0000     -5265.6342938059
----------------------------------------- 
Archival summary:
1\1\hpc0242\JobtypUnspecified\ProcedureUnspecified\6-31G**\r236(3)\knomura\WedMar1320:47:512019WedMar1320:47:512019\0\\#,JobtypUnspecified,ProcedureUnspecified,6-31G**,\\0,3\Br\C,1,2.54284\H,2,1.08359,1,91.5118\H,2,1.0848,1,91.5752,3,116.523,0\C,2,1.37652,1,100.622,3,-121.911,0\H,5,1.089,2,118.048,1,89.1194,0\C,5,1.48774,2,124.776,1,-87.4755,0\H,7,1.0923,5,112.286,2,-2.3439,0\H,7,1.0979,5,110.437,2,-124.156,0\H,7,1.09811,5,110.223,2,118.939,0\Br,1,2.93857,2,87.4318,3,-37.7892,0\\\@

 Total job time:  43.15s(wall), 502.03s(cpu) 
 Wed Mar 13 20:47:51 2019

        *************************************************************
        *                                                           *
        *  Thank you very much for using Q-Chem.  Have a nice day.  *
        *                                                           *
        *************************************************************


