
Running Job 1 of 1 thiol/04/C-S.xyz.data/inputs/bond_triplet_2.0.in
qchem thiol/04/C-S.xyz.data/inputs/bond_triplet_2.0.in_9242.0 /staging/scratch/2868767/qchem9242/ 1
/usr/usc/qchem/5.1.1/exe/qcprog.exe_s thiol/04/C-S.xyz.data/inputs/bond_triplet_2.0.in_9242.0 /staging/scratch/2868767/qchem9242/
Check license passed

                  Welcome to Q-Chem
     A Quantum Leap Into The Future Of Chemistry


 Q-Chem 5.1, Q-Chem, Inc., Pleasanton, CA (2018)

 Yihan Shao,  Zhengting Gan,  E. Epifanovsky,  A. T. B. Gilbert,  M. Wormit,  
 J. Kussmann,  A. W. Lange,  A. Behn,  Jia Deng,  Xintian Feng,  D. Ghosh,  
 M. Goldey,  P. R. Horn,  L. D. Jacobson,  I. Kaliman,  T. Kus,  A. Landau,  
 Jie Liu,  E. I. Proynov,  R. M. Richard,  R. P. Steele,  E. J. Sundstrom,  
 H. L. Woodcock III,  P. M. Zimmerman,  D. Zuev,  B. Albrecht,  E. Alguire,  
 S. A. Baeppler,  D. Barton,  Z. Benda,  Y. A. Bernard,  E. J. Berquist,  
 K. B. Bravaya,  H. Burton,  D. Casanova,  Chun-Min Chang,  Yunqing Chen,  
 A. Chien,  K. D. Closser,  M. P. Coons,  S. Coriani,  S. Dasgupta,  
 A. L. Dempwolff,  M. Diedenhofen,  Hainam Do,  R. G. Edgar,  Po-Tung Fang,  
 S. Faraji,  S. Fatehi,  Qingguo Feng,  K. D. Fenk,  J. Fosso-Tande,  
 Qinghui Ge,  A. Ghysels,  G. Gidofalvi,  J. Gomes,  J. Gonthier,  A. Gunina,  
 D. Hait,  M. W. D. Hanson-Heine,  P. H. P. Harbach,  A. W. Hauser,  
 J. E. Herr,  E. G. Hohenstein,  Z. C. Holden,  Kerwin Hui,  B. C. Huynh,  
 T.-C. Jagau,  Hyunjun Ji,  B. Kaduk,  K. Khistyaev,  Jaehoon Kim,  
 P. Klunzinger,  K. Koh,  D. Kosenkov,  L. Koulias,  T. Kowalczyk,  
 C. M. Krauter,  A. Kunitsa,  Ka Un Lao,  A. Laurent,  K. V. Lawler,  
 Joonho Lee,  D. Lefrancois,  S. Lehtola,  D. S. Levine,  Yi-Pei Li,  
 You-Sheng Lin,  Fenglai Liu,  E. Livshits,  A. Luenser,  P. Manohar,  
 E. Mansoor,  S. F. Manzer,  Shan-Ping Mao,  Yuezhi Mao,  N. Mardirossian,  
 A. V. Marenich,  T. Markovich,  L. A. Martinez-Martinez,  S. A. Maurer,  
 N. J. Mayhall,  S. C. McKenzie,  J.-M. Mewes,  A. F. Morrison,  
 J. W. Mullinax,  K. Nanda,  T. S. Nguyen-Beck,  R. Olivares-Amaya,  
 J. A. Parkhill,  T. M. Perrine,  F. Plasser,  P. Pokhilko,  S. Prager,  
 A. Prociuk,  E. Ramos,  D. R. Rehn,  F. Rob,  M. Schneider,  N. Sergueev,  
 S. M. Sharada,  S. Sharma,  D. W. Small,  T. Stauch,  T. Stein,  
 Yu-Chuan Su,  A. J. W. Thom,  A. Tkatchenko,  T. Tsuchimochi,  N. M. Tubman,  
 L. Vogt,  M. L. Vidal,  O. Vydrov,  M. A. Watson,  J. Wenzel,  
 M. de Wergifosse,  T. A. Wesolowski,  A. White,  J. Witte,  A. Yamada,  
 Jun Yang,  K. Yao,  S. Yeganeh,  S. R. Yost,  Zhi-Qiang You,  A. Zech,  
 Igor Ying Zhang,  Xing Zhang,  Yan Zhao,  Ying Zhu,  B. R. Brooks,  
 G. K. L. Chan,  C. J. Cramer,  M. S. Gordon,  W. J. Hehre,  A. Klamt,  
 M. W. Schmidt,  C. D. Sherrill,  D. G. Truhlar,  A. Aspuru-Guzik,  R. Baer,  
 A. T. Bell,  N. A. Besley,  Jeng-Da Chai,  A. E. DePrince, III,  
 R. A. DiStasio Jr.,  A. Dreuw,  B. D. Dunietz,  T. R. Furlani,  
 Chao-Ping Hsu,  Yousung Jung,  Jing Kong,  D. S. Lambrecht,  WanZhen Liang,  
 C. Ochsenfeld,  V. A. Rassolov,  L. V. Slipchenko,  J. E. Subotnik,  
 T. Van Voorhis,  J. M. Herbert,  A. I. Krylov,  P. M. W. Gill,  M. Head-Gordon

 Contributors to earlier versions of Q-Chem not listed above: 
 R. D. Adamson,  B. Austin,  J. Baker,  G. J. O. Beran,  K. Brandhorst,  
 S. T. Brown,  E. F. C. Byrd,  A. K. Chakraborty,  C.-L. Cheng,  
 Siu Hung Chien,  D. M. Chipman,  D. L. Crittenden,  H. Dachsel,  
 R. J. Doerksen,  A. D. Dutoi,  L. Fusti-Molnar,  W. A. Goddard III,  
 A. Golubeva-Zadorozhnaya,  S. R. Gwaltney,  G. Hawkins,  A. Heyden,  
 S. Hirata,  G. Kedziora,  F. J. Keil,  C. Kelley,  Jihan Kim,  R. A. King,  
 R. Z. Khaliullin,  P. P. Korambath,  W. Kurlancheek,  A. M. Lee,  M. S. Lee,  
 S. V. Levchenko,  Ching Yeh Lin,  D. Liotard,  R. C. Lochan,  I. Lotan,  
 P. E. Maslen,  N. Nair,  D. P. O'Neill,  D. Neuhauser,  E. Neuscamman,  
 C. M. Oana,  R. Olson,  B. Peters,  R. Peverati,  P. A. Pieniazek,  
 Y. M. Rhee,  J. Ritchie,  M. A. Rohrdanz,  E. Rosta,  N. J. Russ,  
 H. F. Schaefer III,  N. E. Schultz,  N. Shenvi,  A. C. Simmonett,  A. Sodt,  
 D. Stuck,  K. S. Thanthiriwatte,  V. Vanovschi,  Tao Wang,  A. Warshel,  
 C. F. Williams,  Q. Wu,  X. Xu,  W. Zhang

 Please cite Q-Chem as follows:
 Y. Shao et al., Mol. Phys. 113, 184-215 (2015)
 DOI: 10.1080/00268976.2014.952696

 Q-Chem 5.1.1 for Intel X86 EM64T Linux

 Parts of Q-Chem use Armadillo 8.300.2 (Tropical Shenanigans).
 http://arma.sourceforge.net/

 Q-Chem begins on Thu Mar 14 08:46:50 2019  

Host: 
0

     Scratch files written to /staging/scratch/2868767/qchem9242//
 Aug318 |scratch|qcdevops|jenkins|workspace|build_RNUM 6013   
Processing $rem in /usr/usc/qchem/5.1.1/config/preferences.
 MEM_TOTAL  2000 
Input Ideriv = 2
Curr. Ideriv = -1
Max.  Ideriv = 2

Checking the input file for inconsistencies... 	...done.

--------------------------------------------------------------
User input:
--------------------------------------------------------------

$comment
potential surface scanner
$end

$rem
JOBTYPE  PES_SCAN
UNRESTRICTED TRUE
SYM_IGNORE  TRUE
GEOM_OPT_MAX_CYCLES 400
SCF_MAX_CYCLES 400
METHOD   B3LYP
BASIS   6-31G**
PDB_PRINT 2
SCF_CONVERGENCE 6
THRESH 14
SCF_PRINT 1
$end
$molecule
0 3
S 2.896031 -0.060077 0.034805
S -3.310394 -0.737172 0.067292
C 0.200951 0.492537 0.272515
C 1.145990 -0.650798 -0.071947
C -1.359397 0.028276 0.200331
H 0.396878 0.862649 1.284533
H 0.338484 1.328897 -0.421243
H 1.010235 -1.484219 0.624259
H 0.955420 -1.013896 -1.086494
H -1.363537 -0.769736 0.944047
H -1.425138 -0.295321 -0.839245
H 3.481211 -1.229756 -0.291784
H -1.858535 0.952224 0.461823
$end
$scan
stre 2 5 2.000000 2.001000 0.100000
$end
--------------------------------------------------------------
 ----------------------------------------------------------------
             Standard Nuclear Orientation (Angstroms)
    I     Atom           X                Y                Z
 ----------------------------------------------------------------
    1      S       2.8960310000    -0.0600770000     0.0348050000
    2      S      -3.3103940000    -0.7371720000     0.0672920000
    3      C       0.2009510000     0.4925370000     0.2725150000
    4      C       1.1459900000    -0.6507980000    -0.0719470000
    5      C      -1.3593970000     0.0282760000     0.2003310000
    6      H       0.3968780000     0.8626490000     1.2845330000
    7      H       0.3384840000     1.3288970000    -0.4212430000
    8      H       1.0102350000    -1.4842190000     0.6242590000
    9      H       0.9554200000    -1.0138960000    -1.0864940000
   10      H      -1.3635370000    -0.7697360000     0.9440470000
   11      H      -1.4251380000    -0.2953210000    -0.8392450000
   12      H       3.4812110000    -1.2297560000    -0.2917840000
   13      H      -1.8585350000     0.9522240000     0.4618230000
 ----------------------------------------------------------------
 Nuclear Repulsion Energy =   252.8146689679 hartrees
 There are       30 alpha and       28 beta electrons
 Requested basis set is 6-31G(d,p)
 There are 46 shells and 123 basis functions

 Total QAlloc Memory Limit   2000 MB
 Mega-Array Size       188 MB
 MEM_STATIC part       192 MB
A total of 1 constraints
  
            1
    1   1.0100000
    2   2.0100000
    3   5.0100000
    4   2.0000000
    5   2.0010000
    6   0.1000000
    7   0.0000000
    8   0.0000000
    9   0.0000000
   10   0.0000000

                       Distance Matrix (Angstroms)
             S (  1)   S (  2)   C (  3)   C (  4)   C (  5)   H (  6)
   S (  2)  6.243334
   C (  3)  2.761403  3.726103
   C (  4)  1.850133  4.459395  1.522816
   C (  5)  4.259562  2.100000  1.629550  2.610027
   H (  6)  2.942619  4.217223  1.095240  2.166040  2.226247
   H (  7)  2.945891  4.221566  1.095314  2.166395  2.227278  1.769313
   H (  8)  2.435542  4.419969  2.164770  1.094405  2.842976  2.513953
   H (  9)  2.435786  4.427750  2.164594  1.094286  2.846123  3.074924
   H ( 10)  4.412965  2.135418  2.119413  2.710003  1.090850  2.424804
   H ( 11)  4.414952  2.138044  2.121532  2.706623  1.090759  3.028377
   H ( 12)  1.348052  6.818906  3.747644  2.415942  5.025565  4.046733
   H ( 13)  4.879856  2.262213  2.118639  3.446993  1.082218  2.402449
             H (  7)   H (  8)   H (  9)   H ( 10)   H ( 11)   H ( 12)
   H (  8)  3.075377
   H (  9)  2.512339  1.775073
   H ( 10)  3.027400  2.499509  3.091969
   H ( 11)  2.433757  3.079994  2.498907  1.846346
   H ( 12)  4.054651  2.647567  2.656648  5.021004  5.024454
   H ( 13)  2.397620  3.767291  3.765801  1.855454  1.853909  5.817375

 
 A cutoff of  1.0D-14 yielded    994 shell pairs
 There are      7177 function pairs
 
 -------------------------------------------------------
 OpenMP Integral Computing Module                       
 Release: version 1.0, May 2013, Q-Chem Inc. Pittsburgh 
 -------------------------------------------------------
 Integral Job Info:
 Integral job number is                      11
 Integral operator is                         1
 short-range coefficients                     0
 long-range coefficients              100000000
 Omega coefficients                           0
 if combine SR and LR in K                    0
 Integral screening is                        0
 Integral computing path is                   2
 max size of driver memory is            800000
 size of driver memory is                593474
 size of scratch memory is             15267112
 max col of scratch BK array               1296
 max len of scratch array in speh3          155
 max len of scratch index in speh4           18
 max int batch size is                      520
 min int batch size is                       52
 fixed nKL is                                52
 max L of basis functions is                  2
 order of int derivative is                   0
 number of shells is                         46
 number of basis is                         123
 number of cartesian basis is               123
 number of contracted shell pairs           994
 number of primitive shell pairs           3731
 maxK2 (contraction) of shell pair           36
 max number of K2 of shell pair               1
 max number of CS2 of shell pair             81
 max number of PS2 of shell pair            360
 mem total for path MDJ                  516058
 -------------------------------------------------------
 Smallest overlap matrix eigenvalue = 4.72E-03

 Scale SEOQF with 1.000000e-01/1.000000e+00/1.000000e+00

 Standard Electronic Orientation quadrupole field applied
 Nucleus-field energy     =     0.0000000214 hartrees
 Guess from superposition of atomic densities
 Warning:  Energy on first SCF cycle will be non-variational
 SAD guess density has 58.000000 electrons

 -----------------------------------------------------------------------
  General SCF calculation program by
  Eric Jon Sundstrom, Paul Horn, Yuezhi Mao, Dmitri Zuev, Alec White,
  David Stuck, Shaama M.S., Shane Yost, Joonho Lee, David Small,
  Daniel Levine, Susi Lehtola, Hugh Burton, Evgeny Epifanovsky
 -----------------------------------------------------------------------
 Exchange:     0.2000 Hartree-Fock + 0.0800 Slater + 0.7200 B88
 Correlation:  0.1900 VWN1RPA + 0.8100 LYP
 Using SG-1 standard quadrature grid
 using 12 threads for integral computing
 -------------------------------------------------------
 OpenMP Integral computing Module                
 Release: version 1.0, May 2013, Q-Chem Inc. Pittsburgh 
 -------------------------------------------------------
 -------------------------------------------------------
 OpenMP BLAS3 based DFT computing Module                
 Release: version 1.0, May 2013, Q-Chem Inc. Pittsburgh 
 -------------------------------------------------------
 A unrestricted SCF calculation will be
 performed using DIIS
 SCF converges when DIIS error is below 1.0e-06
 Alpha HF Exchange    Energy =  -6.85043881309313
 Beta HF Exchange     Energy =  -6.85043881309313
 DFT Correlation      Energy =  -2.70948797222935
 DFT Exchange         Energy = -53.85252167029142
 One-Electron (alpha) Energy = -878.77092653768852
 One-Electron (beta)  Energy = -878.77092653768852
 Total Coulomb        Energy = 659.03413666854101
 ---------------------------------------
  Cycle       Energy         DIIS error
 ---------------------------------------
    1    -915.9559346863      2.69e-02  
 Alpha HF Exchange    Energy =  -6.96387117499889
 Beta HF Exchange     Energy =  -6.76582378663147
 DFT Correlation      Energy =  -2.72581749004637
 DFT Exchange         Energy = -54.47604297470272
 One-Electron (alpha) Energy = -896.85661474677454
 One-Electron (beta)  Energy = -867.94039855785900
 Total Coulomb        Energy = 667.60393130080433
    2    -915.3099684409      2.77e-03  
 Alpha HF Exchange    Energy =  -6.91507424530490
 Beta HF Exchange     Energy =  -6.71259686226969
 DFT Correlation      Energy =  -2.70173627288409
 DFT Exchange         Energy = -54.04326801046297
 One-Electron (alpha) Energy = -893.19280572055595
 One-Electron (beta)  Energy = -864.13017913953058
 Total Coulomb        Energy = 659.59886137853221
    3    -915.2821298832      3.35e-03  
 Alpha HF Exchange    Energy =  -6.93797019192759
 Beta HF Exchange     Energy =  -6.73929279614025
 DFT Correlation      Energy =  -2.71257645777917
 DFT Exchange         Energy = -54.24560656479724
 One-Electron (alpha) Energy = -895.05155024546036
 One-Electron (beta)  Energy = -865.97586009792599
 Total Coulomb        Energy = 663.47441763827794
    4    -915.3737697265      5.10e-04  
 Alpha HF Exchange    Energy =  -6.94180552078598
 Beta HF Exchange     Energy =  -6.74068587549278
 DFT Correlation      Energy =  -2.71320699440874
 DFT Exchange         Energy = -54.26598932176496
 One-Electron (alpha) Energy = -895.26427613104340
 One-Electron (beta)  Energy = -866.06993993440642
 Total Coulomb        Energy = 663.80502726340376
    5    -915.3762075252      1.14e-04  
 Alpha HF Exchange    Energy =  -6.94086258531546
 Beta HF Exchange     Energy =  -6.73988171186625
 DFT Correlation      Energy =  -2.71273799160170
 DFT Exchange         Energy = -54.25833174649495
 One-Electron (alpha) Energy = -895.18620926535914
 One-Electron (beta)  Energy = -865.98879008930930
 Total Coulomb        Energy = 663.63582281891865
    6    -915.3763215818      5.39e-05  
 Alpha HF Exchange    Energy =  -6.94094801514112
 Beta HF Exchange     Energy =  -6.73999350880535
 DFT Correlation      Energy =  -2.71272997265585
 DFT Exchange         Energy = -54.25891098267955
 One-Electron (alpha) Energy = -895.19626086727737
 One-Electron (beta)  Energy = -865.99392085439217
 Total Coulomb        Energy = 663.65175024674329
    7    -915.3763449649      1.50e-05  
 Alpha HF Exchange    Energy =  -6.94104939591195
 Beta HF Exchange     Energy =  -6.74004863101113
 DFT Correlation      Energy =  -2.71274585094002
 DFT Exchange         Energy = -54.25948528839402
 One-Electron (alpha) Energy = -895.20415033208042
 One-Electron (beta)  Energy = -865.99883541576651
 Total Coulomb        Energy = 663.66529905328264
    8    -915.3763468715      4.69e-06  
 Alpha HF Exchange    Energy =  -6.94102490156518
 Beta HF Exchange     Energy =  -6.74003198235744
 DFT Correlation      Energy =  -2.71273178688585
 DFT Exchange         Energy = -54.25930071984951
 One-Electron (alpha) Energy = -895.20125493454304
 One-Electron (beta)  Energy = -865.99602999666979
 Total Coulomb        Energy = 663.65935824371718
    9    -915.3763470889      1.58e-06  
 Alpha HF Exchange    Energy =  -6.94102220170483
 Beta HF Exchange     Energy =  -6.74003510835331
 DFT Correlation      Energy =  -2.71273112745819
 DFT Exchange         Energy = -54.25929925338523
 One-Electron (alpha) Energy = -895.20122348780524
 One-Electron (beta)  Energy = -865.99632095540630
 Total Coulomb        Energy = 663.65961602787036
   10    -915.3763471170      5.32e-07  Convergence criterion met
 ---------------------------------------
 SCF time:   CPU 31.83s  wall 3.00s 
<S^2> =          2.004290036
 Alpha HF Exchange    Energy =  -6.94102220170483
 Beta HF Exchange     Energy =  -6.74003510835331
 DFT Correlation      Energy =  -2.71273112745819
 DFT Exchange         Energy = -54.25929925338523
 One-Electron (alpha) Energy = -895.20122348780524
 One-Electron (beta)  Energy = -865.99632095540630
 Total Coulomb        Energy = 663.65961602787036
 Nuclear repulsion Energy = 252.81466898927442
 SCF   energy in the final basis set =     -915.3763471170
 Total energy in the final basis set =     -915.3763471170
 
 --------------------------------------------------------------
 
                    Orbital Energies (a.u.)
 --------------------------------------------------------------
 
 Alpha MOs
 -- Occupied --
-88.880 -88.879 -10.231 -10.222 -10.215  -7.943  -7.943  -5.912
 -5.910  -5.908  -5.904  -5.897  -5.893  -0.830  -0.782  -0.715
 -0.646  -0.599  -0.505  -0.474  -0.453  -0.446  -0.393  -0.375
 -0.373  -0.334  -0.287  -0.246  -0.243  -0.213
 -- Virtual --
  0.017   0.053   0.067   0.114   0.117   0.139   0.152   0.156
  0.178   0.197   0.206   0.318   0.348   0.360   0.364   0.383
  0.383   0.390   0.395   0.484   0.488   0.507   0.534   0.601
  0.613   0.636   0.689   0.730   0.738   0.739   0.746   0.764
  0.781   0.806   0.834   0.837   0.853   0.888   0.893   0.915
  0.932   0.954   0.971   1.032   1.068   1.140   1.251   1.309
  1.350   1.399   1.543   1.626   1.645   1.658   1.769   1.857
  1.943   1.965   1.998   2.024   2.055   2.062   2.079   2.103
  2.168   2.206   2.271   2.307   2.350   2.487   2.504   2.515
  2.562   2.616   2.725   2.737   2.754   2.767   2.804   2.808
  2.871   3.173   3.254   3.310   3.321   3.426   3.427   3.531
  3.911   3.977   4.251   4.444   4.601
 
 Beta MOs
 -- Occupied --
-88.880 -88.869 -10.231 -10.221 -10.211  -7.942  -7.933  -5.907
 -5.904  -5.897  -5.892  -5.892  -5.888  -0.823  -0.769  -0.693
 -0.619  -0.572  -0.498  -0.469  -0.445  -0.438  -0.383  -0.368
 -0.359  -0.331  -0.243  -0.223
 -- Virtual --
 -0.143  -0.098   0.018   0.056   0.071   0.116   0.118   0.142
  0.155   0.158   0.181   0.203   0.217   0.342   0.349   0.367
  0.383   0.393   0.399   0.403   0.424   0.487   0.494   0.515
  0.540   0.608   0.629   0.648   0.707   0.731   0.745   0.778
  0.793   0.799   0.820   0.836   0.844   0.855   0.857   0.892
  0.899   0.928   0.937   0.963   0.981   1.043   1.075   1.141
  1.267   1.315   1.353   1.408   1.544   1.628   1.648   1.661
  1.778   1.858   1.948   1.973   2.006   2.031   2.056   2.063
  2.081   2.104   2.169   2.206   2.272   2.309   2.354   2.492
  2.507   2.518   2.564   2.622   2.729   2.741   2.759   2.771
  2.809   2.811   2.874   3.177   3.257   3.314   3.325   3.430
  3.431   3.534   3.942   3.978   4.255   4.445   4.606
 --------------------------------------------------------------
 
          Ground-State Mulliken Net Atomic Charges

     Atom                 Charge (a.u.)    Spin (a.u.)
  --------------------------------------------------------
      1 S                    -0.042591       0.004385
      2 S                    -0.102052       1.725716
      3 C                    -0.215242       0.177986
      4 C                    -0.319266      -0.006318
      5 C                    -0.452984      -0.010504
      6 H                     0.127589       0.001042
      7 H                     0.127345       0.001124
      8 H                     0.137185       0.001674
      9 H                     0.137299       0.001607
     10 H                     0.175576       0.038174
     11 H                     0.175370       0.037756
     12 H                     0.058359       0.004330
     13 H                     0.193411       0.023027
  --------------------------------------------------------
  Sum of atomic charges =    -0.000000
  Sum of spin   charges =     2.000000

 -----------------------------------------------------------------
                    Cartesian Multipole Moments
 -----------------------------------------------------------------
    Charge (ESU x 10^10)
                -0.0000
    Dipole Moment (Debye)
         X       1.0228      Y      -0.3278      Z      -0.1287
       Tot       1.0817
    Quadrupole Moments (Debye-Ang)
        XX     -60.9463     XY      -6.7610     YY     -46.9553
        XZ      -1.1349     YZ       0.0868     ZZ     -46.5849
    Octopole Moments (Debye-Ang^2)
       XXX      56.0999    XXY       7.4775    XYY      14.6461
       YYY      40.2077    XXZ      -9.1341    XYZ       3.9428
       YYZ      -2.4141    XZZ      -2.5850    YZZ      10.9308
       ZZZ     -11.8032
    Hexadecapole Moments (Debye-Ang^3)
      XXXX   -1915.1818   XXXY    -132.0150   XXYY    -329.2835
      XYYY     -87.5854   YYYY    -164.5020   XXXZ       7.0083
      XXYZ       0.7622   XYYZ      -0.0679   YYYZ      -5.3301
      XXZZ    -317.7594   XYZZ     -21.1382   YYZZ     -38.3905
      XZZZ      11.9529   YZZZ      -2.6273   ZZZZ     -81.4477
 -----------------------------------------------------------------
 Calculating analytic gradient of the SCF energy
 Gradient of SCF Energy
            1           2           3           4           5           6
    1  -0.0000155   0.0855537   0.0000390   0.0000180  -0.0856040  -0.0000043
    2  -0.0000069   0.0336032  -0.0000196   0.0000121  -0.0336101   0.0000162
    3   0.0000399   0.0058095  -0.0000266   0.0000037  -0.0058631  -0.0000021
            7           8           9          10          11          12
    1   0.0000107  -0.0000160   0.0000054  -0.0000081   0.0000218   0.0000011
    2   0.0000322  -0.0000018  -0.0000194   0.0000206  -0.0000226  -0.0000100
    3   0.0000334   0.0000150   0.0000158  -0.0000125  -0.0000008   0.0000310
           13
    1  -0.0000018
    2   0.0000061
    3  -0.0000435
 Max gradient component =       8.560E-02
 RMS gradient           =       2.086E-02
 Gradient time:  CPU 11.19 s  wall 1.01 s
 Geometry Optimization Parameters
   NAtoms,    NIC,     NZ,  NCons,   NDum,   NFix, NCnnct, MaxDiis
       13      85       0       1       0       0       0       0


** CONSTRAINED OPTIMIZATION IN DELOCALIZED INTERNAL COORDINATES **
   Searching for a Minimum

   Optimization Cycle:   1

                       Coordinates (Angstroms)
     ATOM                X               Y               Z
      1  S         2.8960310000   -0.0600770000    0.0348050000
      2  S        -3.3103940000   -0.7371720000    0.0672920000
      3  C         0.2009510000    0.4925370000    0.2725150000
      4  C         1.1459900000   -0.6507980000   -0.0719470000
      5  C        -1.3593970000    0.0282760000    0.2003310000
      6  H         0.3968780000    0.8626490000    1.2845330000
      7  H         0.3384840000    1.3288970000   -0.4212430000
      8  H         1.0102350000   -1.4842190000    0.6242590000
      9  H         0.9554200000   -1.0138960000   -1.0864940000
     10  H        -1.3635370000   -0.7697360000    0.9440470000
     11  H        -1.4251380000   -0.2953210000   -0.8392450000
     12  H         3.4812110000   -1.2297560000   -0.2917840000
     13  H        -1.8585350000    0.9522240000    0.4618230000
   Point Group: c1    Number of degrees of freedom:    33


   Energy is   -915.376347117

              Constraints and their Current Values
                                        Value     Constraint
   Distance(Angs):        2   5             2.100000     2.000000

 Attempting to Generate Delocalized Internal Coordinates

   Using Lagrange Multiplier Algorithm


 34 Hessian modes will be used to form the next step
  Hessian Eigenvalues:
    -0.942538    0.045000    0.045000    0.045061    0.069362    0.078620
     0.079098    0.084650    0.097226    0.097312    0.102416    0.124045
     0.131025    0.142540    0.160000    0.160000    0.160000    0.160000
     0.191759    0.191782    0.218579    0.219625    0.220570    0.225344
     0.257883    0.300970    0.342056    0.342140    0.343085    0.343220
     0.347146    0.347251    0.357276    1.060966

 Minimum Search - Taking P-RFO Step
 Searching for Lamda that Maximizes Along the Constraint modes Only
 Value Taken    Lamda =   0.04095113
 Searching for Lamda that Minimizes Along All other modes
 Value Taken    Lamda =  -0.00368005
 Step Taken.  Stepsize is  0.182745

                             Maximum     Tolerance    Cnvgd?
         Gradient            0.188972       0.000300      NO
         Displacement        0.182743       0.001200      NO
         Energy change     *********       0.000001      NO


 New Cartesian Coordinates Obtained by Inverse Iteration

 Displacement from previous Coordinates is:  0.174690
 ----------------------------------------------------------------
             Standard Nuclear Orientation (Angstroms)
    I     Atom           X                Y                Z
 ----------------------------------------------------------------
    1      S       2.8889862662    -0.0591375352     0.0352261600
    2      S      -3.2266116664    -0.7092525698     0.0717360214
    3      C       0.1930099199     0.4900327580     0.2721004133
    4      C       1.1396866133    -0.6520569959    -0.0720673418
    5      C      -1.3665854809     0.0236909253     0.1993798724
    6      H       0.3881217695     0.8603143291     1.2842064470
    7      H       0.3296483864     1.3264921087    -0.4217073101
    8      H       1.0048218514    -1.4856489775     0.6241032273
    9      H       0.9499346465    -1.0153711723    -1.0866870631
   10      H      -1.3698485047    -0.7744825672     0.9429468531
   11      H      -1.4316124909    -0.2997257431    -0.8403098305
   12      H       3.4757365694    -1.2281350874    -0.2909769635
   13      H      -1.8670888798     0.9468885272     0.4609415143
 ----------------------------------------------------------------
 Nuclear Repulsion Energy =   255.5576718046 hartrees
 There are       30 alpha and       28 beta electrons

                       Distance Matrix (Angstroms)
             S (  1)   S (  2)   C (  3)   C (  4)   C (  5)   H (  6)
   S (  2)  6.150164
   C (  3)  2.761519  3.629358
   C (  4)  1.850166  4.369040  1.522832
   C (  5)  4.259542  2.003296  1.629448  2.609927
   H (  6)  2.942731  4.123096  1.095233  2.166009  2.226159
   H (  7)  2.946009  4.127315  1.095310  2.166349  2.227162  1.769430
   H (  8)  2.435526  4.337388  2.164778  1.094403  2.842898  2.513881
   H (  9)  2.435774  4.345019  2.164597  1.094283  2.846029  3.074893
   H ( 10)  4.412862  2.052031  2.119330  2.709799  1.090864  2.424764
   H ( 11)  4.414977  2.054644  2.121455  2.706642  1.090771  3.028316
   H ( 12)  1.348050  6.732182  3.747726  2.415971  5.025495  4.046750
   H ( 13)  4.879915  2.177748  2.118581  3.446944  1.082225  2.402340
             H (  7)   H (  8)   H (  9)   H ( 10)   H ( 11)   H ( 12)
   H (  8)  3.075340
   H (  9)  2.512225  1.775099
   H ( 10)  3.027320  2.499296  3.091737
   H ( 11)  2.433486  3.080119  2.498923  1.846405
   H ( 12)  4.054760  2.647471  2.656708  5.020763  5.024518
   H ( 13)  2.397670  3.767191  3.765799  1.855450  1.853899  5.817379

 
 Applying Cartesian multipole field
    Component          Value
    ---------          -----
     (2,0,0)        1.00000E-11
     (0,2,0)        2.00000E-10
     (0,0,2)       -3.00000E-10
 Nucleus-field energy     =     0.0000000206 hartrees
 Requested basis set is 6-31G(d,p)
 There are 46 shells and 123 basis functions
 A cutoff of  1.0D-14 yielded    996 shell pairs
 There are      7225 function pairs
 Smallest overlap matrix eigenvalue = 4.63E-03
 Guess from superposition of atomic densities
 Warning:  Energy on first SCF cycle will be non-variational
 SAD guess density has 58.000000 electrons

 -----------------------------------------------------------------------
  General SCF calculation program by
  Eric Jon Sundstrom, Paul Horn, Yuezhi Mao, Dmitri Zuev, Alec White,
  David Stuck, Shaama M.S., Shane Yost, Joonho Lee, David Small,
  Daniel Levine, Susi Lehtola, Hugh Burton, Evgeny Epifanovsky
 -----------------------------------------------------------------------
 Exchange:     0.2000 Hartree-Fock + 0.0800 Slater + 0.7200 B88
 Correlation:  0.1900 VWN1RPA + 0.8100 LYP
 Using SG-1 standard quadrature grid
 using 12 threads for integral computing
 -------------------------------------------------------
 OpenMP Integral computing Module                
 Release: version 1.0, May 2013, Q-Chem Inc. Pittsburgh 
 -------------------------------------------------------
 -------------------------------------------------------
 OpenMP BLAS3 based DFT computing Module                
 Release: version 1.0, May 2013, Q-Chem Inc. Pittsburgh 
 -------------------------------------------------------
 A unrestricted SCF calculation will be
 performed using DIIS
 SCF converges when DIIS error is below 1.0e-06
 Alpha HF Exchange    Energy =  -6.85796086088332
 Beta HF Exchange     Energy =  -6.85796086088332
 DFT Correlation      Energy =  -2.71172641173787
 DFT Exchange         Energy = -53.86687486318603
 One-Electron (alpha) Energy = -881.49918217013726
 One-Electron (beta)  Energy = -881.49918217013726
 Total Coulomb        Energy = 661.71146733432101
 ---------------------------------------
  Cycle       Energy         DIIS error
 ---------------------------------------
    1    -916.0237481774      2.74e-02  
 Alpha HF Exchange    Energy =  -6.96604322945418
 Beta HF Exchange     Energy =  -6.76667743947286
 DFT Correlation      Energy =  -2.72874996306055
 DFT Exchange         Energy = -54.49138761103643
 One-Electron (alpha) Energy = -899.74484975938731
 One-Electron (beta)  Energy = -870.55255412101417
 Total Coulomb        Energy = 670.40187293459121
    2    -915.2907173636      2.77e-03  
 Alpha HF Exchange    Energy =  -6.91600911019434
 Beta HF Exchange     Energy =  -6.71416351653637
 DFT Correlation      Energy =  -2.70424289699187
 DFT Exchange         Energy = -54.05492404416883
 One-Electron (alpha) Energy = -895.95535573317170
 One-Electron (beta)  Energy = -866.71593650485318
 Total Coulomb        Energy = 662.23869732185460
    3    -915.2642626588      3.34e-03  
 Alpha HF Exchange    Energy =  -6.93941745906841
 Beta HF Exchange     Energy =  -6.74026689537111
 DFT Correlation      Energy =  -2.71539037607014
 DFT Exchange         Energy = -54.25849540249941
 One-Electron (alpha) Energy = -897.87771328421968
 One-Electron (beta)  Energy = -868.57207758349011
 Total Coulomb        Energy = 666.19128205491882
    4    -915.3544071206      5.23e-04  
 Alpha HF Exchange    Energy =  -6.94329666901419
 Beta HF Exchange     Energy =  -6.74175020558373
 DFT Correlation      Energy =  -2.71599760547784
 DFT Exchange         Energy = -54.27917876760795
 One-Electron (alpha) Energy = -898.09017743994309
 One-Electron (beta)  Energy = -868.67118903732307
 Total Coulomb        Energy = 666.52692437514804
    5    -915.3569935246      1.13e-04  
 Alpha HF Exchange    Energy =  -6.94225538800938
 Beta HF Exchange     Energy =  -6.74093531987175
 DFT Correlation      Energy =  -2.71550035296690
 DFT Exchange         Energy = -54.27105346578396
 One-Electron (alpha) Energy = -898.00297229966520
 One-Electron (beta)  Energy = -868.58554022426074
 Total Coulomb        Energy = 666.34347177838572
    6    -915.3571134470      4.98e-05  
 Alpha HF Exchange    Energy =  -6.94241523272045
 Beta HF Exchange     Energy =  -6.74109387995207
 DFT Correlation      Energy =  -2.71551959554674
 DFT Exchange         Energy = -54.27214292403063
 One-Electron (alpha) Energy = -898.01936705759954
 One-Electron (beta)  Energy = -868.59581737831343
 Total Coulomb        Energy = 666.37155056199424
    7    -915.3571336810      1.57e-05  
 Alpha HF Exchange    Energy =  -6.94250240526015
 Beta HF Exchange     Energy =  -6.74113945875108
 DFT Correlation      Energy =  -2.71552990164316
 DFT Exchange         Energy = -54.27261616900807
 One-Electron (alpha) Energy = -898.02563154949269
 One-Electron (beta)  Energy = -868.59981164334431
 Total Coulomb        Energy = 666.38242354238434
    8    -915.3571357599      4.96e-06  
 Alpha HF Exchange    Energy =  -6.94247295127227
 Beta HF Exchange     Energy =  -6.74112435785400
 DFT Correlation      Energy =  -2.71551455163899
 DFT Exchange         Energy = -54.27241617628299
 One-Electron (alpha) Energy = -898.02235524352761
 One-Electron (beta)  Energy = -868.59701381199466
 Total Coulomb        Energy = 666.37608925862412
    9    -915.3571360087      1.69e-06  
 Alpha HF Exchange    Energy =  -6.94247111063493
 Beta HF Exchange     Energy =  -6.74112920225292
 DFT Correlation      Energy =  -2.71551443782815
 DFT Exchange         Energy = -54.27242539308094
 One-Electron (alpha) Energy = -898.02240007682428
 One-Electron (beta)  Energy = -868.59750416906661
 Total Coulomb        Energy = 666.37663652223978
   10    -915.3571360422      6.03e-07  Convergence criterion met
 ---------------------------------------
 SCF time:   CPU 31.32s  wall 2.00s 
<S^2> =          2.004803590
 Alpha HF Exchange    Energy =  -6.94247111063493
 Beta HF Exchange     Energy =  -6.74112920225292
 DFT Correlation      Energy =  -2.71551443782815
 DFT Exchange         Energy = -54.27242539308094
 One-Electron (alpha) Energy = -898.02240007682428
 One-Electron (beta)  Energy = -868.59750416906661
 Total Coulomb        Energy = 666.37663652223978
 Nuclear repulsion Energy = 255.55767182521620
 SCF   energy in the final basis set =     -915.3571360422
 Total energy in the final basis set =     -915.3571360422
 
 --------------------------------------------------------------
 
                    Orbital Energies (a.u.)
 --------------------------------------------------------------
 
 Alpha MOs
 -- Occupied --
-88.880 -88.873 -10.231 -10.228 -10.215  -7.943  -7.938  -5.908
 -5.907  -5.905  -5.904  -5.897  -5.889  -0.837  -0.791  -0.718
 -0.642  -0.597  -0.511  -0.482  -0.455  -0.452  -0.396  -0.378
 -0.375  -0.335  -0.281  -0.243  -0.242  -0.196
 -- Virtual --
  0.016   0.049   0.066   0.112   0.115   0.136   0.149   0.153
  0.177   0.196   0.208   0.323   0.348   0.359   0.364   0.382
  0.383   0.395   0.399   0.483   0.487   0.504   0.532   0.599
  0.607   0.633   0.694   0.729   0.740   0.744   0.747   0.782
  0.786   0.800   0.834   0.839   0.853   0.887   0.893   0.910
  0.930   0.959   0.974   1.039   1.072   1.140   1.254   1.314
  1.351   1.401   1.542   1.627   1.645   1.658   1.774   1.856
  1.942   1.958   1.999   2.029   2.055   2.062   2.079   2.102
  2.167   2.206   2.269   2.305   2.347   2.488   2.503   2.512
  2.568   2.622   2.729   2.733   2.756   2.764   2.800   2.807
  2.869   3.169   3.250   3.306   3.317   3.422   3.424   3.529
  3.925   3.977   4.250   4.441   4.601
 
 Beta MOs
 -- Occupied --
-88.880 -88.864 -10.231 -10.227 -10.210  -7.943  -7.928  -5.908
 -5.904  -5.897  -5.888  -5.887  -5.883  -0.827  -0.778  -0.699
 -0.621  -0.566  -0.501  -0.475  -0.445  -0.442  -0.385  -0.370
 -0.362  -0.332  -0.243  -0.219
 -- Virtual --
 -0.140  -0.087   0.018   0.054   0.070   0.115   0.116   0.140
  0.152   0.155   0.181   0.202   0.219   0.346   0.349   0.367
  0.383   0.394   0.399   0.402   0.432   0.486   0.494   0.513
  0.539   0.606   0.624   0.645   0.709   0.731   0.745   0.793
  0.795   0.804   0.812   0.837   0.843   0.855   0.860   0.893
  0.900   0.923   0.935   0.969   0.984   1.051   1.081   1.142
  1.267   1.320   1.355   1.411   1.544   1.630   1.649   1.662
  1.785   1.858   1.948   1.969   2.009   2.037   2.057   2.063
  2.081   2.104   2.169   2.206   2.271   2.307   2.352   2.493
  2.507   2.516   2.570   2.630   2.733   2.739   2.763   2.769
  2.806   2.809   2.873   3.174   3.255   3.312   3.322   3.428
  3.428   3.533   3.954   3.977   4.254   4.442   4.607
 --------------------------------------------------------------
 
          Ground-State Mulliken Net Atomic Charges

     Atom                 Charge (a.u.)    Spin (a.u.)
  --------------------------------------------------------
      1 S                    -0.041897       0.004610
      2 S                    -0.105186       1.660881
      3 C                    -0.213183       0.209006
      4 C                    -0.319654      -0.007115
      5 C                    -0.459391      -0.018798
      6 H                     0.127378       0.001604
      7 H                     0.127120       0.001697
      8 H                     0.136829       0.002171
      9 H                     0.136952       0.002087
     10 H                     0.177889       0.053101
     11 H                     0.177761       0.052562
     12 H                     0.058088       0.005474
     13 H                     0.197295       0.032720
  --------------------------------------------------------
  Sum of atomic charges =     0.000000
  Sum of spin   charges =     2.000000

 -----------------------------------------------------------------
                    Cartesian Multipole Moments
 -----------------------------------------------------------------
    Charge (ESU x 10^10)
                 0.0000
    Dipole Moment (Debye)
         X       1.1136      Y      -0.2766      Z      -0.1183
       Tot       1.1535
    Quadrupole Moments (Debye-Ang)
        XX     -61.5403     XY      -7.0029     YY     -46.9816
        XZ      -1.1619     YZ       0.0846     ZZ     -46.5467
    Octopole Moments (Debye-Ang^2)
       XXX      56.4263    XXY       8.2576    XYY      13.7908
       YYY      39.2237    XXZ      -9.0782    XYZ       3.8526
       YYZ      -2.5028    XZZ      -3.3923    YZZ      10.6522
       ZZZ     -11.9173
    Hexadecapole Moments (Debye-Ang^3)
      XXXX   -1880.5958   XXXY    -130.1124   XXYY    -321.4612
      XYYY     -81.7742   YYYY    -161.2388   XXXZ       7.0957
      XXYZ       1.1610   XYYZ       0.2335   YYYZ      -5.1931
      XXZZ    -310.7914   XYZZ     -19.4993   YYZZ     -37.9195
      XZZZ      12.1792   YZZZ      -2.5443   ZZZZ     -81.4459
 -----------------------------------------------------------------
 Calculating analytic gradient of the SCF energy
 Gradient of SCF Energy
            1           2           3           4           5           6
    1   0.0001218   0.1103354  -0.0061759  -0.0000029  -0.0876880   0.0002527
    2   0.0000309   0.0436807  -0.0011926  -0.0002805  -0.0388386  -0.0000045
    3   0.0000442   0.0076697  -0.0001169  -0.0000762  -0.0072017  -0.0001479
            7           8           9          10          11          12
    1   0.0002724   0.0000172   0.0000408  -0.0058622  -0.0056896  -0.0000983
    2  -0.0000588   0.0000663   0.0000161   0.0003640  -0.0008435   0.0000521
    3   0.0001281  -0.0000309   0.0000866  -0.0020804   0.0023111   0.0000515
           13
    1  -0.0055234
    2  -0.0029915
    3  -0.0006374
 Max gradient component =       1.103E-01
 RMS gradient           =       2.457E-02
 Gradient time:  CPU 11.00 s  wall 1.01 s
 Geometry Optimization Parameters
   NAtoms,    NIC,     NZ,  NCons,   NDum,   NFix, NCnnct, MaxDiis
       13      85       0       1       0       0       0       0

 Cartesian Hessian Update
 Hessian Updated using BFGS Update


** CONSTRAINED OPTIMIZATION IN DELOCALIZED INTERNAL COORDINATES **
   Searching for a Minimum

   Optimization Cycle:   2

                       Coordinates (Angstroms)
     ATOM                X               Y               Z
      1  S         2.8889862662   -0.0591375352    0.0352261600
      2  S        -3.2266116664   -0.7092525698    0.0717360214
      3  C         0.1930099199    0.4900327580    0.2721004133
      4  C         1.1396866133   -0.6520569959   -0.0720673418
      5  C        -1.3665854809    0.0236909253    0.1993798724
      6  H         0.3881217695    0.8603143291    1.2842064470
      7  H         0.3296483864    1.3264921087   -0.4217073101
      8  H         1.0048218514   -1.4856489775    0.6241032273
      9  H         0.9499346465   -1.0153711723   -1.0866870631
     10  H        -1.3698485047   -0.7744825672    0.9429468531
     11  H        -1.4316124909   -0.2997257431   -0.8403098305
     12  H         3.4757365694   -1.2281350874   -0.2909769635
     13  H        -1.8670888798    0.9468885272    0.4609415143
   Point Group: c1    Number of degrees of freedom:    33


   Energy is   -915.357136042

              Constraints and their Current Values
                                        Value     Constraint
   Distance(Angs):        2   5             2.003296     2.000000
 Hessian Updated using BFGS Update

   Using Lagrange Multiplier Algorithm


 32 Hessian modes will be used to form the next step
  Hessian Eigenvalues:
    -0.932207    0.045000    0.045000    0.045060    0.069362    0.078621
     0.079098    0.084650    0.097235    0.097312    0.102437    0.124045
     0.131025    0.142540    0.160000    0.191182    0.191760    0.192191
     0.219624    0.220569    0.225343    0.232632    0.257888    0.300975
     0.342058    0.342141    0.343086    0.343221    0.347197    0.348576
     0.357282    1.080499

 Minimum Search - Taking P-RFO Step
 Searching for Lamda that Maximizes Along the Constraint modes Only
 Value Taken    Lamda =   0.00013217
 Searching for Lamda that Minimizes Along All other modes
 Value Taken    Lamda =  -0.00116000
 Step Taken.  Stepsize is  0.074026

                             Maximum     Tolerance    Cnvgd?
         Gradient            0.014418       0.000300      NO
         Displacement        0.067248       0.001200      NO
         Energy change      0.019211       0.000001      NO


 New Cartesian Coordinates Obtained by Inverse Iteration

 Displacement from previous Coordinates is:  0.063522
 ----------------------------------------------------------------
             Standard Nuclear Orientation (Angstroms)
    I     Atom           X                Y                Z
 ----------------------------------------------------------------
    1      S       2.8867926225    -0.0591897732     0.0349196243
    2      S      -3.2361166603    -0.7131459284     0.0704410365
    3      C       0.1904746239     0.4893670118     0.2722042743
    4      C       1.1375812228    -0.6521819749    -0.0718387348
    5      C      -1.3796708685     0.0197447914     0.1988565591
    6      H       0.3839811480     0.8599787064     1.2846150961
    7      H       0.3253891269     1.3259767032    -0.4219460329
    8      H       1.0029451517    -1.4858415784     0.6244522288
    9      H       0.9476927843    -1.0156311043    -1.0864942833
   10      H      -1.3546200221    -0.7756331327     0.9479580520
   11      H      -1.4164472166    -0.2979120837    -0.8460639676
   12      H       3.4745605036    -1.2278857830    -0.2912033329
   13      H      -1.8543634162     0.9559621457     0.4629914804
 ----------------------------------------------------------------
 Nuclear Repulsion Energy =   255.2611639891 hartrees
 There are       30 alpha and       28 beta electrons

                       Distance Matrix (Angstroms)
             S (  1)   S (  2)   C (  3)   C (  4)   C (  5)   H (  6)
   S (  2)  6.157836
   C (  3)  2.761766  3.637069
   C (  4)  1.850075  4.376436  1.522666
   C (  5)  4.270342  2.000003  1.640513  2.619412
   H (  6)  2.944601  4.129655  1.095342  2.166682  2.235024
   H (  7)  2.947575  4.133375  1.095428  2.166874  2.235815  1.770011
   H (  8)  2.435522  4.344379  2.164633  1.094503  2.850400  2.514320
   H (  9)  2.435664  4.351351  2.164361  1.094385  2.853200  3.075361
   H ( 10)  4.397330  2.077010  2.108124  2.695606  1.092889  2.410663
   H ( 11)  4.398976  2.079326  2.110102  2.692210  1.092757  3.020273
   H ( 12)  1.348213  6.740099  3.748547  2.416822  5.035901  4.048958
   H ( 13)  4.867478  2.202103  2.106056  3.438590  1.082406  2.386308
             H (  7)   H (  8)   H (  9)   H ( 10)   H ( 11)   H ( 12)
   H (  8)  3.075769
   H (  9)  2.512372  1.775243
   H ( 10)  3.019244  2.483378  3.081759
   H ( 11)  2.418860  3.070351  2.482355  1.857567
   H ( 12)  4.056672  2.648367  2.657555  5.006100  5.009459
   H ( 13)  2.381459  3.762006  3.760267  1.866376  1.864832  5.808221

 
 Applying Cartesian multipole field
    Component          Value
    ---------          -----
     (2,0,0)        1.00000E-11
     (0,2,0)        2.00000E-10
     (0,0,2)       -3.00000E-10
 Nucleus-field energy     =     0.0000000207 hartrees
 Requested basis set is 6-31G(d,p)
 There are 46 shells and 123 basis functions
 A cutoff of  1.0D-14 yielded    996 shell pairs
 There are      7225 function pairs
 Smallest overlap matrix eigenvalue = 4.71E-03
 Guess from superposition of atomic densities
 Warning:  Energy on first SCF cycle will be non-variational
 SAD guess density has 58.000000 electrons

 -----------------------------------------------------------------------
  General SCF calculation program by
  Eric Jon Sundstrom, Paul Horn, Yuezhi Mao, Dmitri Zuev, Alec White,
  David Stuck, Shaama M.S., Shane Yost, Joonho Lee, David Small,
  Daniel Levine, Susi Lehtola, Hugh Burton, Evgeny Epifanovsky
 -----------------------------------------------------------------------
 Exchange:     0.2000 Hartree-Fock + 0.0800 Slater + 0.7200 B88
 Correlation:  0.1900 VWN1RPA + 0.8100 LYP
 Using SG-1 standard quadrature grid
 using 12 threads for integral computing
 -------------------------------------------------------
 OpenMP Integral computing Module                
 Release: version 1.0, May 2013, Q-Chem Inc. Pittsburgh 
 -------------------------------------------------------
 -------------------------------------------------------
 OpenMP BLAS3 based DFT computing Module                
 Release: version 1.0, May 2013, Q-Chem Inc. Pittsburgh 
 -------------------------------------------------------
 A unrestricted SCF calculation will be
 performed using DIIS
 SCF converges when DIIS error is below 1.0e-06
 Alpha HF Exchange    Energy =  -6.85630407379290
 Beta HF Exchange     Energy =  -6.85630407379290
 DFT Correlation      Energy =  -2.71134071378440
 DFT Exchange         Energy = -53.86364442024490
 One-Electron (alpha) Energy = -881.20841653945854
 One-Electron (beta)  Energy = -881.20841653945854
 Total Coulomb        Energy = 661.43344205387416
 ---------------------------------------
  Cycle       Energy         DIIS error
 ---------------------------------------
    1    -916.0098202969      2.73e-02  
 Alpha HF Exchange    Energy =  -6.96513392319611
 Beta HF Exchange     Energy =  -6.76597853027966
 DFT Correlation      Energy =  -2.72840529547216
 DFT Exchange         Energy = -54.48612067628259
 One-Electron (alpha) Energy = -899.43564068594799
 One-Electron (beta)  Energy = -870.27252428151439
 Total Coulomb        Energy = 670.10118607395486
    2    -915.2914533090      2.76e-03  
 Alpha HF Exchange    Energy =  -6.91509482800447
 Beta HF Exchange     Energy =  -6.71377943954012
 DFT Correlation      Energy =  -2.70390383934536
 DFT Exchange         Energy = -54.05053735221627
 One-Electron (alpha) Energy = -895.64788512043322
 One-Electron (beta)  Energy = -866.44741567204176
 Total Coulomb        Energy = 661.95232207205981
    3    -915.2651301698      3.33e-03  
 Alpha HF Exchange    Energy =  -6.93846301625397
 Beta HF Exchange     Energy =  -6.73964809779321
 DFT Correlation      Energy =  -2.71506053294192
 DFT Exchange         Energy = -54.25338815839567
 One-Electron (alpha) Energy = -897.56441608666512
 One-Electron (beta)  Energy = -868.29778825332164
 Total Coulomb        Energy = 665.89302430738132
    4    -915.3545758282      5.29e-04  
 Alpha HF Exchange    Energy =  -6.94236262750916
 Beta HF Exchange     Energy =  -6.74117128649896
 DFT Correlation      Energy =  -2.71567609701371
 DFT Exchange         Energy = -54.27429266736359
 One-Electron (alpha) Energy = -897.77931339361226
 One-Electron (beta)  Energy = -868.39950810609696
 Total Coulomb        Energy = 666.23394078385820
    5    -915.3572193845      1.16e-04  
 Alpha HF Exchange    Energy =  -6.94132058196506
 Beta HF Exchange     Energy =  -6.74036188949907
 DFT Correlation      Energy =  -2.71517442587478
 DFT Exchange         Energy = -54.26617004146968
 One-Electron (alpha) Energy = -897.69113383849299
 One-Electron (beta)  Energy = -868.31438990749666
 Total Coulomb        Energy = 666.05004149822082
    6    -915.3573451768      5.20e-05  
 Alpha HF Exchange    Energy =  -6.94147045572327
 Beta HF Exchange     Energy =  -6.74051590082082
 DFT Correlation      Energy =  -2.71519167811274
 DFT Exchange         Energy = -54.26720276302611
 One-Electron (alpha) Energy = -897.70682152664403
 One-Electron (beta)  Energy = -868.32414266245007
 Total Coulomb        Energy = 666.07681365989345
    7    -915.3573673171      1.62e-05  
 Alpha HF Exchange    Energy =  -6.94156348817022
 Beta HF Exchange     Energy =  -6.74056736111714
 DFT Correlation      Energy =  -2.71520214708348
 DFT Exchange         Energy = -54.26771469661269
 One-Electron (alpha) Energy = -897.71346385101958
 One-Electron (beta)  Energy = -868.32865562358438
 Total Coulomb        Energy = 666.08863356284485
    8    -915.3573695950      5.17e-06  
 Alpha HF Exchange    Energy =  -6.94153189400038
 Beta HF Exchange     Energy =  -6.74055214134449
 DFT Correlation      Energy =  -2.71518598276627
 DFT Exchange         Energy = -54.26750464437154
 One-Electron (alpha) Energy = -897.70994498565665
 One-Electron (beta)  Energy = -868.32577492923178
 Total Coulomb        Energy = 666.08196069400276
    9    -915.3573698736      1.75e-06  
 Alpha HF Exchange    Energy =  -6.94152989580792
 Beta HF Exchange     Energy =  -6.74055768290143
 DFT Correlation      Energy =  -2.71518591426132
 DFT Exchange         Energy = -54.26751574662271
 One-Electron (alpha) Energy = -897.70998791268551
 One-Electron (beta)  Energy = -868.32634335802277
 Total Coulomb        Energy = 666.08258659001376
   10    -915.3573699105      6.32e-07  Convergence criterion met
 ---------------------------------------
 SCF time:   CPU 31.13s  wall 2.00s 
<S^2> =          2.005185840
 Alpha HF Exchange    Energy =  -6.94152989580792
 Beta HF Exchange     Energy =  -6.74055768290143
 DFT Correlation      Energy =  -2.71518591426132
 DFT Exchange         Energy = -54.26751574662271
 One-Electron (alpha) Energy = -897.70998791268551
 One-Electron (beta)  Energy = -868.32634335802277
 Total Coulomb        Energy = 666.08258659001376
 Nuclear repulsion Energy = 255.26116400974863
 SCF   energy in the final basis set =     -915.3573699105
 Total energy in the final basis set =     -915.3573699105
 
 --------------------------------------------------------------
 
                    Orbital Energies (a.u.)
 --------------------------------------------------------------
 
 Alpha MOs
 -- Occupied --
-88.881 -88.873 -10.231 -10.229 -10.215  -7.943  -7.938  -5.908
 -5.907  -5.905  -5.904  -5.897  -5.889  -0.836  -0.790  -0.717
 -0.642  -0.597  -0.511  -0.482  -0.454  -0.451  -0.396  -0.378
 -0.375  -0.335  -0.282  -0.243  -0.242  -0.196
 -- Virtual --
  0.016   0.048   0.065   0.111   0.114   0.136   0.147   0.152
  0.178   0.194   0.206   0.323   0.348   0.360   0.364   0.382
  0.384   0.395   0.398   0.483   0.487   0.505   0.532   0.600
  0.607   0.631   0.696   0.729   0.739   0.744   0.746   0.779
  0.786   0.802   0.833   0.839   0.853   0.886   0.892   0.912
  0.932   0.960   0.974   1.036   1.072   1.139   1.249   1.314
  1.352   1.398   1.541   1.627   1.645   1.657   1.769   1.857
  1.941   1.956   1.991   2.017   2.054   2.062   2.078   2.102
  2.169   2.205   2.271   2.308   2.355   2.485   2.505   2.516
  2.561   2.617   2.727   2.727   2.746   2.758   2.786   2.803
  2.868   3.169   3.251   3.311   3.322   3.421   3.422   3.527
  3.923   3.977   4.250   4.443   4.601
 
 Beta MOs
 -- Occupied --
-88.881 -88.864 -10.232 -10.228 -10.210  -7.943  -7.928  -5.908
 -5.904  -5.897  -5.887  -5.887  -5.883  -0.826  -0.777  -0.698
 -0.620  -0.567  -0.501  -0.475  -0.444  -0.442  -0.385  -0.370
 -0.360  -0.332  -0.243  -0.219
 -- Virtual --
 -0.140  -0.087   0.018   0.053   0.070   0.114   0.116   0.140
  0.151   0.155   0.182   0.201   0.217   0.346   0.349   0.366
  0.383   0.394   0.399   0.403   0.431   0.486   0.493   0.514
  0.538   0.607   0.623   0.643   0.711   0.730   0.745   0.792
  0.795   0.801   0.813   0.837   0.843   0.856   0.860   0.892
  0.898   0.925   0.937   0.971   0.985   1.049   1.081   1.141
  1.263   1.321   1.356   1.407   1.543   1.630   1.649   1.660
  1.780   1.859   1.948   1.966   2.002   2.026   2.056   2.063
  2.081   2.104   2.172   2.205   2.273   2.311   2.360   2.493
  2.508   2.520   2.564   2.624   2.731   2.734   2.754   2.761
  2.792   2.806   2.872   3.174   3.256   3.317   3.327   3.425
  3.428   3.532   3.952   3.977   4.254   4.444   4.607
 --------------------------------------------------------------
 
          Ground-State Mulliken Net Atomic Charges

     Atom                 Charge (a.u.)    Spin (a.u.)
  --------------------------------------------------------
      1 S                    -0.041559       0.005122
      2 S                    -0.101987       1.647235
      3 C                    -0.217193       0.225959
      4 C                    -0.319600      -0.007696
      5 C                    -0.460697      -0.031606
      6 H                     0.127494       0.001096
      7 H                     0.127234       0.001188
      8 H                     0.136821       0.002319
      9 H                     0.136942       0.002232
     10 H                     0.178738       0.056923
     11 H                     0.178605       0.056374
     12 H                     0.058081       0.005922
     13 H                     0.197121       0.034934
  --------------------------------------------------------
  Sum of atomic charges =    -0.000000
  Sum of spin   charges =     2.000000

 -----------------------------------------------------------------
                    Cartesian Multipole Moments
 -----------------------------------------------------------------
    Charge (ESU x 10^10)
                 0.0000
    Dipole Moment (Debye)
         X       1.1411      Y      -0.2728      Z      -0.1172
       Tot       1.1791
    Quadrupole Moments (Debye-Ang)
        XX     -61.6299     XY      -7.0161     YY     -46.9745
        XZ      -1.1603     YZ       0.0841     ZZ     -46.5385
    Octopole Moments (Debye-Ang^2)
       XXX      57.4706    XXY       8.3111    XYY      13.9905
       YYY      39.4691    XXZ      -9.0803    XYZ       3.8498
       YYZ      -2.4543    XZZ      -3.1739    YZZ      10.7053
       ZZZ     -11.8674
    Hexadecapole Moments (Debye-Ang^3)
      XXXX   -1885.2138   XXXY    -130.5703   XXYY    -322.2398
      XYYY     -82.6399   YYYY    -161.7351   XXXZ       7.1380
      XXYZ       1.1184   XYYZ       0.1589   YYYZ      -5.2077
      XXZZ    -311.4527   XYZZ     -19.7461   YYZZ     -37.9994
      XZZZ      12.1278   YZZZ      -2.5664   ZZZZ     -81.5167
 -----------------------------------------------------------------
 Calculating analytic gradient of the SCF energy
 Gradient of SCF Energy
            1           2           3           4           5           6
    1   0.0000338   0.1046276  -0.0081454   0.0003780  -0.0871175   0.0003802
    2  -0.0000522   0.0413751  -0.0018828  -0.0002888  -0.0362751   0.0001212
    3   0.0000177   0.0072942  -0.0002205  -0.0000826  -0.0066221  -0.0000816
            7           8           9          10          11          12
    1   0.0003949  -0.0000126   0.0000182  -0.0036137  -0.0036059  -0.0000220
    2   0.0000782   0.0000648   0.0000337  -0.0004780  -0.0009225   0.0000409
    3   0.0001159  -0.0000033   0.0000581  -0.0007586   0.0006548   0.0000462
           13
    1  -0.0033156
    2  -0.0018144
    3  -0.0004181
 Max gradient component =       1.046E-01
 RMS gradient           =       2.363E-02
 Gradient time:  CPU 10.99 s  wall 1.01 s
 Geometry Optimization Parameters
   NAtoms,    NIC,     NZ,  NCons,   NDum,   NFix, NCnnct, MaxDiis
       13      85       0       1       0       0       0       0

 Cartesian Hessian Update
 Hessian Updated using BFGS Update


** CONSTRAINED OPTIMIZATION IN DELOCALIZED INTERNAL COORDINATES **
   Searching for a Minimum

   Optimization Cycle:   3

                       Coordinates (Angstroms)
     ATOM                X               Y               Z
      1  S         2.8867926225   -0.0591897732    0.0349196243
      2  S        -3.2361166603   -0.7131459284    0.0704410365
      3  C         0.1904746239    0.4893670118    0.2722042743
      4  C         1.1375812228   -0.6521819749   -0.0718387348
      5  C        -1.3796708685    0.0197447914    0.1988565591
      6  H         0.3839811480    0.8599787064    1.2846150961
      7  H         0.3253891269    1.3259767032   -0.4219460329
      8  H         1.0029451517   -1.4858415784    0.6244522288
      9  H         0.9476927843   -1.0156311043   -1.0864942833
     10  H        -1.3546200221   -0.7756331327    0.9479580520
     11  H        -1.4164472166   -0.2979120837   -0.8460639676
     12  H         3.4745605036   -1.2278857830   -0.2912033329
     13  H        -1.8543634162    0.9559621457    0.4629914804
   Point Group: c1    Number of degrees of freedom:    33


   Energy is   -915.357369911

              Constraints and their Current Values
                                        Value     Constraint
   Distance(Angs):        2   5             2.000003     2.000000
 Hessian Updated using BFGS Update

   Using Lagrange Multiplier Algorithm


 33 Hessian modes will be used to form the next step
  Hessian Eigenvalues:
    -0.891618    0.044987    0.045000    0.045045    0.058752    0.069377
     0.079098    0.079201    0.084650    0.097289    0.097314    0.103130
     0.124053    0.131027    0.142540    0.160000    0.160129    0.191758
     0.191774    0.219589    0.220532    0.225339    0.244919    0.257893
     0.301329    0.342069    0.342161    0.343083    0.343218    0.347199
     0.357009    0.359598    1.138913

 Minimum Search - Taking P-RFO Step
 Searching for Lamda that Maximizes Along the Constraint modes Only
 Value Taken    Lamda =   0.00000159
 Searching for Lamda that Minimizes Along All other modes
 Value Taken    Lamda =  -0.00209836
 Step Taken.  Stepsize is  0.184056

                             Maximum     Tolerance    Cnvgd?
         Gradient            0.009965       0.000300      NO
         Displacement        0.160854       0.001200      NO
         Energy change     -0.000234       0.000001      NO


 New Cartesian Coordinates Obtained by Inverse Iteration

 Displacement from previous Coordinates is:  0.142651
 ----------------------------------------------------------------
             Standard Nuclear Orientation (Angstroms)
    I     Atom           X                Y                Z
 ----------------------------------------------------------------
    1      S       2.8914042310    -0.0601587959     0.0328692763
    2      S      -3.2785529677    -0.7252429719     0.0666935272
    3      C       0.1976447304     0.4908535541     0.2729237908
    4      C       1.1412698024    -0.6508472012    -0.0709367135
    5      C      -1.4222874652     0.0077347979     0.1974160708
    6      H       0.3848371808     0.8614344649     1.2862894587
    7      H       0.3253557278     1.3270088637    -0.4228760583
    8      H       1.0066017388    -1.4842474103     0.6260724220
    9      H       0.9497621595    -1.0152303961    -1.0852239961
   10      H      -1.3335211834    -0.7759242593     0.9549812335
   11      H      -1.3937600111    -0.2926767986    -0.8535800377
   12      H       3.4769644261    -1.2303920207    -0.2930127850
   13      H      -1.8375193694     0.9712961732     0.4672758113
 ----------------------------------------------------------------
 Nuclear Repulsion Energy =   253.7342240757 hartrees
 There are       30 alpha and       28 beta electrons

                       Distance Matrix (Angstroms)
             S (  1)   S (  2)   C (  3)   C (  4)   C (  5)   H (  6)
   S (  2)  6.205792
   C (  3)  2.759997  3.688546
   C (  4)  1.850043  4.422591  1.520575
   C (  5)  4.317363  2.000017  1.692125  2.660370
   H (  6)  2.950131  4.174373  1.095117  2.168236  2.275994
   H (  7)  2.952379  4.176072  1.095264  2.168292  2.275852  1.772440
   H (  8)  2.435652  4.387658  2.163365  1.094766  2.882579  2.514896
   H (  9)  2.435625  4.391999  2.162992  1.094636  2.884136  3.076538
   H ( 10)  4.383219  2.138872  2.101047  2.681929  1.093575  2.396553
   H ( 11)  4.382065  2.141603  2.101309  2.677161  1.093460  3.012378
   H ( 12)  1.348527  6.783921  3.746586  2.416746  5.077022  4.053540
   H ( 13)  4.859560  2.261700  2.100117  3.434269  1.083371  2.371017
             H (  7)   H (  8)   H (  9)   H ( 10)   H ( 11)   H ( 12)
   H (  8)  3.076939
   H (  9)  2.512901  1.775315
   H ( 10)  3.012091  2.466998  3.071333
   H ( 11)  2.400885  3.061200  2.463298  1.872979
   H ( 12)  4.060764  2.647990  2.657187  4.990471  4.991743
   H ( 13)  2.365783  3.760842  3.758388  1.882724  1.881279  5.802517

 
 Applying Cartesian multipole field
    Component          Value
    ---------          -----
     (2,0,0)        1.00000E-11
     (0,2,0)        2.00000E-10
     (0,0,2)       -3.00000E-10
 Nucleus-field energy     =     0.0000000211 hartrees
 Requested basis set is 6-31G(d,p)
 There are 46 shells and 123 basis functions
 A cutoff of  1.0D-14 yielded    994 shell pairs
 There are      7177 function pairs
 Smallest overlap matrix eigenvalue = 5.07E-03
 Guess from superposition of atomic densities
 Warning:  Energy on first SCF cycle will be non-variational
 SAD guess density has 58.000000 electrons

 -----------------------------------------------------------------------
  General SCF calculation program by
  Eric Jon Sundstrom, Paul Horn, Yuezhi Mao, Dmitri Zuev, Alec White,
  David Stuck, Shaama M.S., Shane Yost, Joonho Lee, David Small,
  Daniel Levine, Susi Lehtola, Hugh Burton, Evgeny Epifanovsky
 -----------------------------------------------------------------------
 Exchange:     0.2000 Hartree-Fock + 0.0800 Slater + 0.7200 B88
 Correlation:  0.1900 VWN1RPA + 0.8100 LYP
 Using SG-1 standard quadrature grid
 using 12 threads for integral computing
 -------------------------------------------------------
 OpenMP Integral computing Module                
 Release: version 1.0, May 2013, Q-Chem Inc. Pittsburgh 
 -------------------------------------------------------
 -------------------------------------------------------
 OpenMP BLAS3 based DFT computing Module                
 Release: version 1.0, May 2013, Q-Chem Inc. Pittsburgh 
 -------------------------------------------------------
 A unrestricted SCF calculation will be
 performed using DIIS
 SCF converges when DIIS error is below 1.0e-06
 Alpha HF Exchange    Energy =  -6.85039159877075
 Beta HF Exchange     Energy =  -6.85039159877075
 DFT Correlation      Energy =  -2.70980618114353
 DFT Exchange         Energy = -53.85251153698104
 One-Electron (alpha) Energy = -879.69558312173888
 One-Electron (beta)  Energy = -879.69558312173888
 Total Coulomb        Energy = 659.96160450803302
 ---------------------------------------
  Cycle       Energy         DIIS error
 ---------------------------------------
    1    -915.9584385543      2.69e-02  
 Alpha HF Exchange    Energy =  -6.96232810553112
 Beta HF Exchange     Energy =  -6.76380111351809
 DFT Correlation      Energy =  -2.72698003647023
 DFT Exchange         Energy = -54.46980648253565
 One-Electron (alpha) Energy = -897.84569380360961
 One-Electron (beta)  Energy = -868.79299260765686
 Total Coulomb        Energy = 668.53316361559973
    2    -915.2942144369      2.72e-03  
 Alpha HF Exchange    Energy =  -6.91273972851013
 Beta HF Exchange     Energy =  -6.71266659286022
 DFT Correlation      Energy =  -2.70260850997172
 DFT Exchange         Energy = -54.03889903869682
 One-Electron (alpha) Energy = -894.10965895466757
 One-Electron (beta)  Energy = -865.02695178813883
 Total Coulomb        Energy = 660.50172194269840
    3    -915.2675785733      3.30e-03  
 Alpha HF Exchange    Energy =  -6.93570498026202
 Beta HF Exchange     Energy =  -6.73760813233177
 DFT Correlation      Energy =  -2.71370713460099
 DFT Exchange         Energy = -54.23769865498861
 One-Electron (alpha) Energy = -895.98138681903845
 One-Electron (beta)  Energy = -866.83845080799551
 Total Coulomb        Energy = 664.35470472278519
    4    -915.3556277096      5.50e-04  
 Alpha HF Exchange    Energy =  -6.93968906147286
 Beta HF Exchange     Energy =  -6.73931335967963
 DFT Correlation      Energy =  -2.71434511526089
 DFT Exchange         Energy = -54.25955040209386
 One-Electron (alpha) Energy = -896.20571909129330
 One-Electron (beta)  Energy = -866.94952453242593
 Total Coulomb        Energy = 664.71541410181044
    5    -915.3585033636      1.28e-04  
 Alpha HF Exchange    Energy =  -6.93868938638255
 Beta HF Exchange     Energy =  -6.73851120894077
 DFT Correlation      Energy =  -2.71383754155860
 DFT Exchange         Energy = -54.25157823009907
 One-Electron (alpha) Energy = -896.11731002969282
 One-Electron (beta)  Energy = -866.86640622694495
 Total Coulomb        Energy = 664.53345615963372
    6    -915.3586523672      6.13e-05  
 Alpha HF Exchange    Energy =  -6.93878433566929
 Beta HF Exchange     Energy =  -6.73864147531270
 DFT Correlation      Energy =  -2.71383877335574
 DFT Exchange         Energy = -54.25228603922309
 One-Electron (alpha) Energy = -896.12903142541040
 One-Electron (beta)  Energy = -866.87292763346932
 Total Coulomb        Energy = 664.55260202049976
    7    -915.3586835651      1.80e-05  
 Alpha HF Exchange    Energy =  -6.93890602779755
 Beta HF Exchange     Energy =  -6.73871606201007
 DFT Correlation      Energy =  -2.71385223535158
 DFT Exchange         Energy = -54.25297711173695
 One-Electron (alpha) Energy = -896.13771805163083
 One-Electron (beta)  Energy = -866.87948830037806
 Total Coulomb        Energy = 664.56874705631446
    8    -915.3586866358      5.91e-06  
 Alpha HF Exchange    Energy =  -6.93886855923914
 Beta HF Exchange     Energy =  -6.73869995055468
 DFT Correlation      Energy =  -2.71383298015427
 DFT Exchange         Energy = -54.25273440440328
 One-Electron (alpha) Energy = -896.13346169040460
 One-Electron (beta)  Energy = -866.87625120380483
 Total Coulomb        Energy = 664.56093765417052
    9    -915.3586870376      1.96e-06  
 Alpha HF Exchange    Energy =  -6.93886604021932
 Beta HF Exchange     Energy =  -6.73870711293778
 DFT Correlation      Energy =  -2.71383284054130
 DFT Exchange         Energy = -54.25274860960918
 One-Electron (alpha) Energy = -896.13349050286035
 One-Electron (beta)  Energy = -866.87698444247349
 Total Coulomb        Energy = 664.56171836422266
   10    -915.3586870876      7.17e-07  Convergence criterion met
 ---------------------------------------
 SCF time:   CPU 30.79s  wall 3.00s 
<S^2> =          2.006714092
 Alpha HF Exchange    Energy =  -6.93886604021932
 Beta HF Exchange     Energy =  -6.73870711293778
 DFT Correlation      Energy =  -2.71383284054130
 DFT Exchange         Energy = -54.25274860960918
 One-Electron (alpha) Energy = -896.13349050286035
 One-Electron (beta)  Energy = -866.87698444247349
 Total Coulomb        Energy = 664.56171836422266
 Nuclear repulsion Energy = 253.73422409680160
 SCF   energy in the final basis set =     -915.3586870876
 Total energy in the final basis set =     -915.3586870876
 
 --------------------------------------------------------------
 
                    Orbital Energies (a.u.)
 --------------------------------------------------------------
 
 Alpha MOs
 -- Occupied --
-88.881 -88.874 -10.232 -10.232 -10.217  -7.943  -7.938  -5.908
 -5.907  -5.905  -5.904  -5.898  -5.889  -0.832  -0.787  -0.715
 -0.642  -0.598  -0.509  -0.481  -0.452  -0.451  -0.394  -0.377
 -0.376  -0.335  -0.282  -0.244  -0.242  -0.195
 -- Virtual --
  0.015   0.048   0.064   0.111   0.113   0.135   0.145   0.152
  0.180   0.181   0.204   0.323   0.347   0.362   0.362   0.382
  0.384   0.391   0.395   0.481   0.485   0.503   0.533   0.601
  0.607   0.628   0.701   0.728   0.740   0.741   0.746   0.771
  0.787   0.807   0.832   0.841   0.852   0.881   0.889   0.915
  0.934   0.963   0.973   1.029   1.069   1.137   1.238   1.318
  1.358   1.388   1.531   1.625   1.629   1.658   1.743   1.858
  1.935   1.953   1.981   1.996   2.053   2.062   2.078   2.102
  2.172   2.204   2.271   2.312   2.377   2.457   2.516   2.527
  2.546   2.615   2.699   2.711   2.719   2.752   2.766   2.798
  2.863   3.170   3.255   3.329   3.330   3.416   3.420   3.520
  3.917   3.976   4.250   4.446   4.593
 
 Beta MOs
 -- Occupied --
-88.881 -88.864 -10.232 -10.232 -10.211  -7.943  -7.928  -5.908
 -5.905  -5.898  -5.888  -5.887  -5.883  -0.822  -0.773  -0.696
 -0.619  -0.570  -0.499  -0.474  -0.443  -0.442  -0.386  -0.371
 -0.355  -0.331  -0.243  -0.219
 -- Virtual --
 -0.140  -0.090   0.017   0.052   0.069   0.114   0.115   0.140
  0.149   0.155   0.186   0.194   0.210   0.345   0.348   0.365
  0.382   0.394   0.400   0.405   0.425   0.486   0.489   0.514
  0.538   0.609   0.622   0.640   0.715   0.730   0.745   0.787
  0.790   0.799   0.816   0.836   0.844   0.855   0.861   0.887
  0.896   0.929   0.940   0.973   0.984   1.043   1.079   1.139
  1.251   1.325   1.363   1.395   1.533   1.628   1.634   1.661
  1.756   1.861   1.942   1.964   1.991   2.005   2.055   2.063
  2.081   2.105   2.175   2.204   2.272   2.316   2.382   2.466
  2.520   2.531   2.548   2.621   2.708   2.719   2.727   2.756
  2.771   2.800   2.867   3.174   3.259   3.335   3.336   3.421
  3.427   3.524   3.946   3.977   4.255   4.446   4.600
 --------------------------------------------------------------
 
          Ground-State Mulliken Net Atomic Charges

     Atom                 Charge (a.u.)    Spin (a.u.)
  --------------------------------------------------------
      1 S                    -0.040581       0.007766
      2 S                    -0.097519       1.609559
      3 C                    -0.228238       0.288175
      4 C                    -0.319000      -0.010599
      5 C                    -0.464474      -0.062470
      6 H                     0.128541      -0.001259
      7 H                     0.128291      -0.001186
      8 H                     0.137185       0.002797
      9 H                     0.137280       0.002703
     10 H                     0.181746       0.060334
     11 H                     0.181688       0.059950
     12 H                     0.058099       0.007423
     13 H                     0.196981       0.036807
  --------------------------------------------------------
  Sum of atomic charges =    -0.000000
  Sum of spin   charges =     2.000000

 -----------------------------------------------------------------
                    Cartesian Multipole Moments
 -----------------------------------------------------------------
    Charge (ESU x 10^10)
                -0.0000
    Dipole Moment (Debye)
         X       1.2188      Y      -0.2673      Z      -0.1140
       Tot       1.2530
    Quadrupole Moments (Debye-Ang)
        XX     -61.8979     XY      -7.0332     YY     -46.9394
        XZ      -1.1483     YZ       0.0793     ZZ     -46.5211
    Octopole Moments (Debye-Ang^2)
       XXX      60.3764    XXY       8.4260    XYY      14.6251
       YYY      40.1222    XXZ      -9.0865    XYZ       3.8921
       YYZ      -2.3211    XZZ      -2.5799    YZZ      10.8714
       ZZZ     -11.6732
    Hexadecapole Moments (Debye-Ang^3)
      XXXX   -1916.4869   XXXY    -132.9936   XXYY    -327.0316
      XYYY     -85.6575   YYYY    -163.1418   XXXZ       7.3823
      XXYZ       0.9365   XYYZ      -0.0443   YYYZ      -5.2981
      XXZZ    -315.8660   XYZZ     -20.6048   YYZZ     -38.1919
      XZZZ      12.1467   YZZZ      -2.6380   ZZZZ     -81.5249
 -----------------------------------------------------------------
 Calculating analytic gradient of the SCF energy
 Gradient of SCF Energy
            1           2           3           4           5           6
    1  -0.0002927   0.0880009  -0.0097095   0.0018257  -0.0820508   0.0011024
    2  -0.0001604   0.0344329  -0.0029187   0.0001483  -0.0313449   0.0004679
    3  -0.0000104   0.0061660  -0.0004316  -0.0000060  -0.0055384  -0.0000844
            7           8           9          10          11          12
    1   0.0011023  -0.0001448  -0.0001031   0.0001373   0.0000359  -0.0000127
    2   0.0004091  -0.0000174   0.0000043  -0.0010058  -0.0005947   0.0000047
    3   0.0002059   0.0000668  -0.0000359   0.0007118  -0.0011293   0.0000331
           13
    1   0.0001093
    2   0.0005748
    3   0.0000524
 Max gradient component =       8.800E-02
 RMS gradient           =       2.077E-02
 Gradient time:  CPU 11.18 s  wall 0.98 s
 Geometry Optimization Parameters
   NAtoms,    NIC,     NZ,  NCons,   NDum,   NFix, NCnnct, MaxDiis
       13      85       0       1       0       0       0       0

 Cartesian Hessian Update
 Hessian Updated using BFGS Update


** CONSTRAINED OPTIMIZATION IN DELOCALIZED INTERNAL COORDINATES **
   Searching for a Minimum

   Optimization Cycle:   4

                       Coordinates (Angstroms)
     ATOM                X               Y               Z
      1  S         2.8914042310   -0.0601587959    0.0328692763
      2  S        -3.2785529677   -0.7252429719    0.0666935272
      3  C         0.1976447304    0.4908535541    0.2729237908
      4  C         1.1412698024   -0.6508472012   -0.0709367135
      5  C        -1.4222874652    0.0077347979    0.1974160708
      6  H         0.3848371808    0.8614344649    1.2862894587
      7  H         0.3253557278    1.3270088637   -0.4228760583
      8  H         1.0066017388   -1.4842474103    0.6260724220
      9  H         0.9497621595   -1.0152303961   -1.0852239961
     10  H        -1.3335211834   -0.7759242593    0.9549812335
     11  H        -1.3937600111   -0.2926767986   -0.8535800377
     12  H         3.4769644261   -1.2303920207   -0.2930127850
     13  H        -1.8375193694    0.9712961732    0.4672758113
   Point Group: c1    Number of degrees of freedom:    33


   Energy is   -915.358687088

              Constraints and their Current Values
                                        Value     Constraint
   Distance(Angs):        2   5             2.000017     2.000000
 Hessian Updated using BFGS Update

   Using Lagrange Multiplier Algorithm


 34 Hessian modes will be used to form the next step
  Hessian Eigenvalues:
    -0.851517    0.038079    0.045000    0.045016    0.045165    0.069370
     0.079099    0.080165    0.084664    0.097296    0.097319    0.105336
     0.124084    0.131027    0.142541    0.160000    0.160034    0.160165
     0.191773    0.191843    0.219712    0.220530    0.225371    0.252406
     0.257909    0.301575    0.342081    0.342185    0.343089    0.343223
     0.347200    0.357561    0.363794    1.216945

 Minimum Search - Taking P-RFO Step
 Searching for Lamda that Maximizes Along the Constraint modes Only
 Value Taken    Lamda =   0.00000293
 Searching for Lamda that Minimizes Along All other modes
 Value Taken    Lamda =  -0.00058627
 Step Taken.  Stepsize is  0.111275

                             Maximum     Tolerance    Cnvgd?
         Gradient            0.003889       0.000300      NO
         Displacement        0.078269       0.001200      NO
         Energy change     -0.001317       0.000001      NO


 New Cartesian Coordinates Obtained by Inverse Iteration

 Displacement from previous Coordinates is:  0.086189
 ----------------------------------------------------------------
             Standard Nuclear Orientation (Angstroms)
    I     Atom           X                Y                Z
 ----------------------------------------------------------------
    1      S       2.9001419446    -0.0640020911     0.0300138628
    2      S      -3.3050070545    -0.7324685089     0.0637696333
    3      C       0.2108367035     0.4960018109     0.2743090580
    4      C       1.1465831700    -0.6485566694    -0.0699113353
    5      C      -1.4485869040    -0.0002537685     0.1963347904
    6      H       0.3869362643     0.8657001371     1.2892946741
    7      H       0.3267375516     1.3312655308    -0.4235914676
    8      H       1.0110647339    -1.4811656065     0.6278425029
    9      H       0.9527161626    -1.0135067507    -1.0835248602
   10      H      -1.3294236380    -0.7755054903     0.9559843271
   11      H      -1.3881753602    -0.2902239881    -0.8544900251
   12      H       3.4812283727    -1.2367333424    -0.2957738758
   13      H      -1.8368529465     0.9730567371     0.4686347153
 ----------------------------------------------------------------
 Nuclear Repulsion Energy =   252.6524758576 hartrees
 There are       30 alpha and       28 beta electrons

                       Distance Matrix (Angstroms)
             S (  1)   S (  2)   C (  3)   C (  4)   C (  5)   H (  6)
   S (  2)  6.241143
   C (  3)  2.757834  3.730231
   C (  4)  1.851123  4.454387  1.517934
   C (  5)  4.352375  2.000002  1.733792  2.688139
   H (  6)  2.960800  4.205532  1.094479  2.171976  2.305121
   H (  7)  2.962252  4.205483  1.094607  2.171850  2.304133  1.776050
   H (  8)  2.436055  4.416696  2.162069  1.094743  2.903306  2.516910
   H (  9)  2.435979  4.418538  2.161646  1.094617  2.903615  3.079253
   H ( 10)  4.387811  2.168140  2.110406  2.683130  1.091917  2.398029
   H ( 11)  4.384426  2.170950  2.109307  2.677493  1.091772  3.013801
   H ( 12)  1.348739  6.814437  3.744707  2.418167  5.106284  4.062919
   H ( 13)  4.868983  2.286528  2.111487  3.438103  1.082696  2.372814
             H (  7)   H (  8)   H (  9)   H ( 10)   H ( 11)   H ( 12)
   H (  8)  3.079543
   H (  9)  2.515019  1.775074
   H ( 10)  3.014064  2.466479  3.069919
   H ( 11)  2.399131  3.061373  2.460766  1.875305
   H ( 12)  4.069615  2.648494  2.657773  4.992194  4.991907
   H ( 13)  2.367595  3.762870  3.759964  1.884798  1.883573  5.809430

 
 Applying Cartesian multipole field
    Component          Value
    ---------          -----
     (2,0,0)        1.00000E-11
     (0,2,0)        2.00000E-10
     (0,0,2)       -3.00000E-10
 Nucleus-field energy     =     0.0000000214 hartrees
 Requested basis set is 6-31G(d,p)
 There are 46 shells and 123 basis functions
 A cutoff of  1.0D-14 yielded    994 shell pairs
 There are      7177 function pairs
 Smallest overlap matrix eigenvalue = 5.31E-03
 Guess from superposition of atomic densities
 Warning:  Energy on first SCF cycle will be non-variational
 SAD guess density has 58.000000 electrons

 -----------------------------------------------------------------------
  General SCF calculation program by
  Eric Jon Sundstrom, Paul Horn, Yuezhi Mao, Dmitri Zuev, Alec White,
  David Stuck, Shaama M.S., Shane Yost, Joonho Lee, David Small,
  Daniel Levine, Susi Lehtola, Hugh Burton, Evgeny Epifanovsky
 -----------------------------------------------------------------------
 Exchange:     0.2000 Hartree-Fock + 0.0800 Slater + 0.7200 B88
 Correlation:  0.1900 VWN1RPA + 0.8100 LYP
 Using SG-1 standard quadrature grid
 using 12 threads for integral computing
 -------------------------------------------------------
 OpenMP Integral computing Module                
 Release: version 1.0, May 2013, Q-Chem Inc. Pittsburgh 
 -------------------------------------------------------
 -------------------------------------------------------
 OpenMP BLAS3 based DFT computing Module                
 Release: version 1.0, May 2013, Q-Chem Inc. Pittsburgh 
 -------------------------------------------------------
 A unrestricted SCF calculation will be
 performed using DIIS
 SCF converges when DIIS error is below 1.0e-06
 Alpha HF Exchange    Energy =  -6.84679728573058
[...]
    8      H       1.6089156040    -1.3413057006     0.6787241745
    9      H       1.5216258709    -0.9013379820    -1.0489817181
   10      H      -2.1679828765    -0.8757251406     0.9331234731
   11      H      -2.2028583690    -0.3983213186    -0.7973031455
   12      H       4.0374099024    -1.3764136980    -0.3908278773
   13      H      -2.5219547435     0.8416180778     0.4669233127
 ----------------------------------------------------------------
 Nuclear Repulsion Energy =   215.5832460833 hartrees
 There are       30 alpha and       28 beta electrons

                       Distance Matrix (Angstroms)
             S (  1)   S (  2)   C (  3)   C (  4)   C (  5)   H (  6)
   S (  2)  8.185400
   C (  3)  2.761302  5.713946
   C (  4)  1.890133  6.322699  1.475776
   C (  5)  6.230474  2.000000  3.715281  4.397300
   H (  6)  3.278325  5.778433  1.084556  2.230160  3.819008
   H (  7)  3.267321  5.735969  1.084601  2.229408  3.806006  1.858027
   H (  8)  2.445412  6.231466  2.136205  1.092405  4.395686  2.499029
   H (  9)  2.443939  6.179094  2.135715  1.092518  4.371365  3.092061
   H ( 10)  5.910073  2.551772  3.579688  4.069301  1.088201  3.545269
   H ( 11)  5.872195  2.513581  3.548007  4.042754  1.091196  3.957496
   H ( 12)  1.350405  8.632210  3.728712  2.443440  6.775549  4.308044
   H ( 13)  6.235950  2.560197  3.527979  4.535621  1.087421  3.480740
             H (  7)   H (  8)   H (  9)   H ( 10)   H ( 11)   H ( 12)
   H (  8)  3.093898
   H (  9)  2.501015  1.784981
   H ( 10)  3.975521  3.813980  4.188390
   H ( 11)  3.496877  4.194937  3.766716  1.795413
   H ( 12)  4.294484  2.653820  2.643489  6.364781  6.329521
   H ( 13)  3.467774  4.676976  4.656867  1.814361  1.799317  6.977153

 
 Applying Cartesian multipole field
    Component          Value
    ---------          -----
     (2,0,0)        1.00000E-11
     (0,2,0)        2.00000E-10
     (0,0,2)       -3.00000E-10
 Nucleus-field energy     =     0.0000000313 hartrees
 Requested basis set is 6-31G(d,p)
 There are 46 shells and 123 basis functions
 A cutoff of  1.0D-14 yielded    919 shell pairs
 There are      6461 function pairs
 Smallest overlap matrix eigenvalue = 8.23E-03
 Guess from superposition of atomic densities
 Warning:  Energy on first SCF cycle will be non-variational
 SAD guess density has 58.000000 electrons

 -----------------------------------------------------------------------
  General SCF calculation program by
  Eric Jon Sundstrom, Paul Horn, Yuezhi Mao, Dmitri Zuev, Alec White,
  David Stuck, Shaama M.S., Shane Yost, Joonho Lee, David Small,
  Daniel Levine, Susi Lehtola, Hugh Burton, Evgeny Epifanovsky
 -----------------------------------------------------------------------
 Exchange:     0.2000 Hartree-Fock + 0.0800 Slater + 0.7200 B88
 Correlation:  0.1900 VWN1RPA + 0.8100 LYP
 Using SG-1 standard quadrature grid
 using 12 threads for integral computing
 -------------------------------------------------------
 OpenMP Integral computing Module                
 Release: version 1.0, May 2013, Q-Chem Inc. Pittsburgh 
 -------------------------------------------------------
 -------------------------------------------------------
 OpenMP BLAS3 based DFT computing Module                
 Release: version 1.0, May 2013, Q-Chem Inc. Pittsburgh 
 -------------------------------------------------------
 A unrestricted SCF calculation will be
 performed using DIIS
 SCF converges when DIIS error is below 1.0e-06
 Alpha HF Exchange    Energy =  -6.80434972196054
 Beta HF Exchange     Energy =  -6.80434972196054
 DFT Correlation      Energy =  -2.68635020756745
 DFT Exchange         Energy = -53.77366608658404
 One-Electron (alpha) Energy = -841.56949215703196
 One-Electron (beta)  Energy = -841.56949215703196
 Total Coulomb        Energy = 622.03191369943772
 ---------------------------------------
  Cycle       Energy         DIIS error
 ---------------------------------------
    1    -915.5925402381      2.47e-02  
 Alpha HF Exchange    Energy =  -6.94696124874983
 Beta HF Exchange     Energy =  -6.76199525799006
 DFT Correlation      Energy =  -2.70629919751484
 DFT Exchange         Energy = -54.39267336021194
 One-Electron (alpha) Energy = -858.05879471771414
 One-Electron (beta)  Energy = -831.92088687790874
 Total Coulomb        Energy = 629.86666791198843
    2    -915.3376966335      2.77e-03  
 Alpha HF Exchange    Energy =  -6.89685735977860
 Beta HF Exchange     Energy =  -6.71590872134282
 DFT Correlation      Energy =  -2.68045100805408
 DFT Exchange         Energy = -53.97674365121840
 One-Electron (alpha) Energy = -855.00175804348544
 One-Electron (beta)  Energy = -828.91486052117682
 Total Coulomb        Energy = 623.28639585438304
    3    -915.3169373361      3.21e-03  
 Alpha HF Exchange    Energy =  -6.91946932849256
 Beta HF Exchange     Energy =  -6.73620739032067
 DFT Correlation      Energy =  -2.69185027964539
 DFT Exchange         Energy = -54.15953582278686
 One-Electron (alpha) Energy = -856.41393620156794
 One-Electron (beta)  Energy = -830.17457643052944
 Total Coulomb        Energy = 626.10867902644463
    4    -915.4036503123      4.63e-04  
 Alpha HF Exchange    Energy =  -6.92339428382604
 Beta HF Exchange     Energy =  -6.73862213860043
 DFT Correlation      Energy =  -2.69233067782133
 DFT Exchange         Energy = -54.18319469564090
 One-Electron (alpha) Energy = -856.66443368227874
 One-Electron (beta)  Energy = -830.35170651794158
 Total Coulomb        Energy = 626.56477218685450
    5    -915.4056636946      1.51e-04  
 Alpha HF Exchange    Energy =  -6.92238065381521
 Beta HF Exchange     Energy =  -6.73789290001404
 DFT Correlation      Energy =  -2.69181554300044
 DFT Exchange         Energy = -54.17579778779000
 One-Electron (alpha) Energy = -856.58140985961427
 One-Electron (beta)  Energy = -830.26039139308159
 Total Coulomb        Energy = 626.38056529000403
    6    -915.4058767327      5.35e-05  
 Alpha HF Exchange    Energy =  -6.92254281403455
 Beta HF Exchange     Energy =  -6.73783844077875
 DFT Correlation      Energy =  -2.69178802645693
 DFT Exchange         Energy = -54.17604775858099
 One-Electron (alpha) Energy = -856.59371833384023
 One-Electron (beta)  Energy = -830.26166400579132
 Total Coulomb        Energy = 626.39445067736267
    7    -915.4059025875      1.77e-05  
 Alpha HF Exchange    Energy =  -6.92262306464677
 Beta HF Exchange     Energy =  -6.73788535226896
 DFT Correlation      Energy =  -2.69177813135546
 DFT Exchange         Energy = -54.17649687604588
 One-Electron (alpha) Energy = -856.59914197267722
 One-Electron (beta)  Energy = -830.26312770133529
 Total Coulomb        Energy = 626.40190136604986
    8    -915.4059056177      9.14e-06  
 Alpha HF Exchange    Energy =  -6.92262401553024
 Beta HF Exchange     Energy =  -6.73787224904804
 DFT Correlation      Energy =  -2.69176394586477
 DFT Exchange         Energy = -54.17643690608550
 One-Electron (alpha) Energy = -856.59853059587033
 One-Electron (beta)  Energy = -830.26095364937794
 Total Coulomb        Energy = 626.39902877316888
    9    -915.4059064740      2.37e-06  
 Alpha HF Exchange    Energy =  -6.92261832386720
 Beta HF Exchange     Energy =  -6.73786081620401
 DFT Correlation      Energy =  -2.69175802233572
 DFT Exchange         Energy = -54.17636453964435
 One-Electron (alpha) Energy = -856.59774096812134
 One-Electron (beta)  Energy = -830.25996577245155
 Total Coulomb        Energy = 626.39715578011646
   10    -915.4059065479      9.07e-07  Convergence criterion met
 ---------------------------------------
 SCF time:   CPU 27.27s  wall 2.00s 
<S^2> =          2.007188496
 Alpha HF Exchange    Energy =  -6.92261832386720
 Beta HF Exchange     Energy =  -6.73786081620401
 DFT Correlation      Energy =  -2.69175802233572
 DFT Exchange         Energy = -54.17636453964435
 One-Electron (alpha) Energy = -856.59774096812134
 One-Electron (beta)  Energy = -830.25996577245155
 Total Coulomb        Energy = 626.39715578011646
 Nuclear repulsion Energy = 215.58324611462044
 SCF   energy in the final basis set =     -915.4059065479
 Total energy in the final basis set =     -915.4059065479
 
 --------------------------------------------------------------
 
                    Orbital Energies (a.u.)
 --------------------------------------------------------------
 
 Alpha MOs
 -- Occupied --
-88.898 -88.878 -10.234 -10.233 -10.216  -7.956  -7.941  -5.927
 -5.918  -5.909  -5.906  -5.902  -5.895  -0.807  -0.754  -0.708
 -0.644  -0.607  -0.483  -0.450  -0.440  -0.437  -0.406  -0.388
 -0.349  -0.341  -0.293  -0.248  -0.242  -0.228
 -- Virtual --
 -0.001   0.018   0.075   0.092   0.116   0.119   0.131   0.149
  0.154   0.199   0.227   0.318   0.347   0.354   0.356   0.368
  0.380   0.380   0.388   0.457   0.474   0.495   0.509   0.524
  0.598   0.604   0.649   0.702   0.726   0.744   0.746   0.752
  0.796   0.810   0.814   0.836   0.841   0.846   0.850   0.860
  0.866   0.880   0.913   0.950   1.026   1.084   1.130   1.213
  1.334   1.366   1.422   1.427   1.430   1.561   1.833   1.869
  1.923   1.943   1.991   2.000   2.020   2.022   2.062   2.070
  2.098   2.138   2.179   2.324   2.331   2.343   2.398   2.406
  2.544   2.567   2.584   2.676   2.737   2.786   2.791   2.802
  2.849   3.153   3.203   3.347   3.389   3.391   3.410   3.481
  3.880   3.971   4.218   4.355   4.475
 
 Beta MOs
 -- Occupied --
-88.892 -88.878 -10.235 -10.234 -10.203  -7.951  -7.940  -5.915
 -5.910  -5.906  -5.905  -5.901  -5.894  -0.796  -0.740  -0.691
 -0.612  -0.592  -0.477  -0.442  -0.437  -0.434  -0.397  -0.383
 -0.340  -0.335  -0.240  -0.234
 -- Virtual --
 -0.155  -0.081   0.010   0.020   0.086   0.096   0.119   0.121
  0.139   0.151   0.155   0.203   0.236   0.330   0.350   0.360
  0.379   0.381   0.386   0.392   0.394   0.468   0.499   0.507
  0.512   0.527   0.606   0.620   0.655   0.717   0.734   0.746
  0.800   0.801   0.809   0.819   0.840   0.845   0.853   0.855
  0.860   0.865   0.870   0.886   0.924   0.956   1.041   1.089
  1.134   1.217   1.341   1.389   1.422   1.430   1.468   1.563
  1.838   1.902   1.926   1.950   2.000   2.014   2.022   2.030
  2.071   2.073   2.099   2.145   2.180   2.326   2.333   2.343
  2.412   2.419   2.569   2.569   2.595   2.678   2.739   2.790
  2.791   2.804   2.852   3.155   3.206   3.353   3.390   3.393
  3.412   3.487   3.898   3.973   4.240   4.354   4.486
 --------------------------------------------------------------
 
          Ground-State Mulliken Net Atomic Charges

     Atom                 Charge (a.u.)    Spin (a.u.)
  --------------------------------------------------------
      1 S                    -0.047308       0.095848
      2 S                    -0.030587       1.016973
      3 C                    -0.211733       1.034027
      4 C                    -0.336270      -0.086898
      5 C                    -0.451521      -0.040401
      6 H                     0.125418      -0.044678
      7 H                     0.125468      -0.044625
      8 H                     0.147362       0.011637
      9 H                     0.146956       0.012548
     10 H                     0.158912       0.006411
     11 H                     0.158870       0.018946
     12 H                     0.054076       0.016325
     13 H                     0.160358       0.003885
  --------------------------------------------------------
  Sum of atomic charges =    -0.000000
  Sum of spin   charges =     2.000000

 -----------------------------------------------------------------
                    Cartesian Multipole Moments
 -----------------------------------------------------------------
    Charge (ESU x 10^10)
                 0.0000
    Dipole Moment (Debye)
         X       0.7165      Y      -0.6354      Z      -0.1155
       Tot       0.9646
    Quadrupole Moments (Debye-Ang)
        XX     -66.6078     XY      -6.5553     YY     -46.4834
        XZ      -1.4800     YZ       1.2502     ZZ     -46.3400
    Octopole Moments (Debye-Ang^2)
       XXX      77.3123    XXY       1.3812    XYY      24.0145
       YYY      38.2384    XXZ      -6.9602    XYZ       1.0582
       YYZ      -3.5314    XZZ       1.1796    YZZ      10.9618
       ZZZ      -8.4266
    Hexadecapole Moments (Debye-Ang^3)
      XXXX   -3571.9972   XXXY    -184.1209   XXYY    -576.9825
      XYYY    -114.6405   YYYY    -158.5385   XXXZ      -7.4159
      XXYZ      21.1043   XYYZ       8.3326   YYYZ      -3.4324
      XXZZ    -554.7315   XYZZ     -27.5440   YYZZ     -37.3847
      XZZZ      25.5172   YZZZ      -1.8751   ZZZZ     -81.0376
 -----------------------------------------------------------------
 Calculating analytic gradient of the SCF energy
 Gradient of SCF Energy
            1           2           3           4           5           6
    1   0.0000239  -0.0398787  -0.0000797  -0.0000486   0.0398277   0.0000638
    2   0.0000128  -0.0093863  -0.0001604   0.0000059   0.0095392   0.0000738
    3  -0.0000090  -0.0028327   0.0000016  -0.0000169   0.0026814  -0.0000053
            7           8           9          10          11          12
    1   0.0000183   0.0000208   0.0000090  -0.0000320   0.0000409  -0.0000015
    2   0.0000674   0.0000133  -0.0000030  -0.0000465  -0.0000910   0.0000079
    3   0.0000351   0.0000075  -0.0000002   0.0000381   0.0000509  -0.0000100
           13
    1   0.0000361
    2  -0.0000331
    3   0.0000595
 Max gradient component =       3.988E-02
 RMS gradient           =       9.297E-03
 Gradient time:  CPU 9.40 s  wall 0.84 s
 Geometry Optimization Parameters
   NAtoms,    NIC,     NZ,  NCons,   NDum,   NFix, NCnnct, MaxDiis
       13      85       0       1       0       0       0       0

 Cartesian Hessian Update
 Hessian Updated using BFGS Update


** CONSTRAINED OPTIMIZATION IN DELOCALIZED INTERNAL COORDINATES **
   Searching for a Minimum

   Optimization Cycle:  25

                       Coordinates (Angstroms)
     ATOM                X               Y               Z
      1  S         3.6148593696   -0.1423206114   -0.0414591863
      2  S        -4.5535803773   -0.6603863247    0.0532961717
      3  C         0.9978572202    0.6701350077    0.2991352322
      4  C         1.7671827872   -0.5406405155   -0.0473859324
      5  C        -2.6107133054   -0.2079577104    0.1967418334
      6  H         0.8466426192    0.9457421627    1.3371312770
      7  H         0.7707952981    1.4105217536   -0.4602256150
      8  H         1.6089156040   -1.3413057006    0.6787241745
      9  H         1.5216258709   -0.9013379820   -1.0489817181
     10  H        -2.1679828765   -0.8757251406    0.9331234731
     11  H        -2.2028583690   -0.3983213186   -0.7973031455
     12  H         4.0374099024   -1.3764136980   -0.3908278773
     13  H        -2.5219547435    0.8416180778    0.4669233127
   Point Group: c1    Number of degrees of freedom:    33


   Energy is   -915.405906548

              Constraints and their Current Values
                                        Value     Constraint
   Distance(Angs):        2   5             2.000000     2.000000
 Hessian Updated using BFGS Update

 32 Hessian modes will be used to form the next step
  Hessian Eigenvalues:
     0.001283    0.011326    0.025451    0.045013    0.045128    0.048097
     0.071173    0.079115    0.086096    0.096183    0.098399    0.118699
     0.124950    0.132560    0.142624    0.160140    0.160543    0.174181
     0.192515    0.203566    0.215600    0.221071    0.227459    0.257904
     0.301491    0.342096    0.342495    0.343122    0.343286    0.346782
     0.355921    0.357914

 Minimum Search - Taking Simple RFO Step
 Searching for Lamda that Minimizes Along All modes
 Value Taken    Lamda =  -0.00000275
 Step Taken.  Stepsize is  0.020972

                             Maximum     Tolerance    Cnvgd?
         Gradient           0.000157      0.000300     YES
         Displacement       0.013340      0.001200      NO
         Energy change     -0.000001      0.000001     YES


                       Distance Matrix (Angstroms)
             S (  1)   S (  2)   C (  3)   C (  4)   C (  5)   H (  6)
   S (  2)  8.185400
   C (  3)  2.761302  5.713946
   C (  4)  1.890133  6.322699  1.475776
   C (  5)  6.230474  2.000000  3.715281  4.397300
   H (  6)  3.278325  5.778433  1.084556  2.230160  3.819008
   H (  7)  3.267321  5.735969  1.084601  2.229408  3.806006  1.858027
   H (  8)  2.445412  6.231466  2.136205  1.092405  4.395686  2.499029
   H (  9)  2.443939  6.179094  2.135715  1.092518  4.371365  3.092061
   H ( 10)  5.910073  2.551772  3.579688  4.069301  1.088201  3.545269
   H ( 11)  5.872195  2.513581  3.548007  4.042754  1.091196  3.957496
   H ( 12)  1.350405  8.632210  3.728712  2.443440  6.775549  4.308044
   H ( 13)  6.235950  2.560197  3.527979  4.535621  1.087421  3.480740
             H (  7)   H (  8)   H (  9)   H ( 10)   H ( 11)   H ( 12)
   H (  8)  3.093898
   H (  9)  2.501015  1.784981
   H ( 10)  3.975521  3.813980  4.188390
   H ( 11)  3.496877  4.194937  3.766716  1.795413
   H ( 12)  4.294484  2.653820  2.643489  6.364781  6.329521
   H ( 13)  3.467774  4.676976  4.656867  1.814361  1.799317  6.977153

 
 Final energy is   -915.405906547887     


 ******************************
 **  OPTIMIZATION CONVERGED  **
 ******************************

                       Coordinates (Angstroms)
     ATOM                X               Y               Z
      1  S         3.6148593696   -0.1423206114   -0.0414591863
      2  S        -4.5535803773   -0.6603863247    0.0532961717
      3  C         0.9978572202    0.6701350077    0.2991352322
      4  C         1.7671827872   -0.5406405155   -0.0473859324
      5  C        -2.6107133054   -0.2079577104    0.1967418334
      6  H         0.8466426192    0.9457421627    1.3371312770
      7  H         0.7707952981    1.4105217536   -0.4602256150
      8  H         1.6089156040   -1.3413057006    0.6787241745
      9  H         1.5216258709   -0.9013379820   -1.0489817181
     10  H        -2.1679828765   -0.8757251406    0.9331234731
     11  H        -2.2028583690   -0.3983213186   -0.7973031455
     12  H         4.0374099024   -1.3764136980   -0.3908278773
     13  H        -2.5219547435    0.8416180778    0.4669233127

Z-matrix Print:
$molecule
0 3
S 
H  1 1.350405
C  1 1.890133 2 96.458371
H  3 1.092405 1 107.097449 2 59.251086 0
H  3 1.092518 1 106.987532 2 -58.152665 0
C  3 1.475776 1 109.631006 2 -179.389177 0
H  6 1.084556 3 120.390911 1 -83.624277 0
H  6 1.084601 3 120.317871 1 82.465971 0
H  8 3.467774 6 84.238229 3 123.484442 0
C  9 1.087421 8 99.754059 6 -62.628243 0
H  10 1.088201 9 113.013394 8 79.137147 0
H  10 1.091196 9 111.359227 8 -46.522477 0
S  10 2.000000 9 108.388157 8 -161.500159 0
$end

PES scan, value:    2.0000 energy: -915.4059065479
------- Summary of potential scan: ------ 
    2.0000      -915.4059065479
----------------------------------------- 
Archival summary:
1\1\hpc0250\JobtypUnspecified\ProcedureUnspecified\6-31G**\238(3)\knomura\ThuMar1408:48:272019ThuMar1408:48:272019\0\\#,JobtypUnspecified,ProcedureUnspecified,6-31G**,\\0,3\S\H,1,1.3504\C,1,1.89013,2,96.4584\H,3,1.09241,1,107.097,2,59.2511,0\H,3,1.09252,1,106.988,2,-58.1527,0\C,3,1.47578,1,109.631,2,-179.389,0\H,6,1.08456,3,120.391,1,-83.6243,0\H,6,1.0846,3,120.318,1,82.466,0\H,8,3.46777,6,84.2382,3,123.484,0\C,9,1.08742,8,99.7541,6,-62.6282,0\H,10,1.0882,9,113.013,8,79.1371,0\H,10,1.0912,9,111.359,8,-46.5225,0\S,10,2,9,108.388,8,-161.5,0\\\@

 Total job time:  97.01s(wall), 1118.91s(cpu) 
 Thu Mar 14 08:48:27 2019

        *************************************************************
        *                                                           *
        *  Thank you very much for using Q-Chem.  Have a nice day.  *
        *                                                           *
        *************************************************************


