
Running Job 1 of 1 thiol/04/C-S.xyz.data/inputs/bond_triplet_4.5.in
qchem thiol/04/C-S.xyz.data/inputs/bond_triplet_4.5.in_7990.0 /staging/scratch/2868767/qchem7990/ 1
/usr/usc/qchem/5.1.1/exe/qcprog.exe_s thiol/04/C-S.xyz.data/inputs/bond_triplet_4.5.in_7990.0 /staging/scratch/2868767/qchem7990/
Check license passed

                  Welcome to Q-Chem
     A Quantum Leap Into The Future Of Chemistry


 Q-Chem 5.1, Q-Chem, Inc., Pleasanton, CA (2018)

 Yihan Shao,  Zhengting Gan,  E. Epifanovsky,  A. T. B. Gilbert,  M. Wormit,  
 J. Kussmann,  A. W. Lange,  A. Behn,  Jia Deng,  Xintian Feng,  D. Ghosh,  
 M. Goldey,  P. R. Horn,  L. D. Jacobson,  I. Kaliman,  T. Kus,  A. Landau,  
 Jie Liu,  E. I. Proynov,  R. M. Richard,  R. P. Steele,  E. J. Sundstrom,  
 H. L. Woodcock III,  P. M. Zimmerman,  D. Zuev,  B. Albrecht,  E. Alguire,  
 S. A. Baeppler,  D. Barton,  Z. Benda,  Y. A. Bernard,  E. J. Berquist,  
 K. B. Bravaya,  H. Burton,  D. Casanova,  Chun-Min Chang,  Yunqing Chen,  
 A. Chien,  K. D. Closser,  M. P. Coons,  S. Coriani,  S. Dasgupta,  
 A. L. Dempwolff,  M. Diedenhofen,  Hainam Do,  R. G. Edgar,  Po-Tung Fang,  
 S. Faraji,  S. Fatehi,  Qingguo Feng,  K. D. Fenk,  J. Fosso-Tande,  
 Qinghui Ge,  A. Ghysels,  G. Gidofalvi,  J. Gomes,  J. Gonthier,  A. Gunina,  
 D. Hait,  M. W. D. Hanson-Heine,  P. H. P. Harbach,  A. W. Hauser,  
 J. E. Herr,  E. G. Hohenstein,  Z. C. Holden,  Kerwin Hui,  B. C. Huynh,  
 T.-C. Jagau,  Hyunjun Ji,  B. Kaduk,  K. Khistyaev,  Jaehoon Kim,  
 P. Klunzinger,  K. Koh,  D. Kosenkov,  L. Koulias,  T. Kowalczyk,  
 C. M. Krauter,  A. Kunitsa,  Ka Un Lao,  A. Laurent,  K. V. Lawler,  
 Joonho Lee,  D. Lefrancois,  S. Lehtola,  D. S. Levine,  Yi-Pei Li,  
 You-Sheng Lin,  Fenglai Liu,  E. Livshits,  A. Luenser,  P. Manohar,  
 E. Mansoor,  S. F. Manzer,  Shan-Ping Mao,  Yuezhi Mao,  N. Mardirossian,  
 A. V. Marenich,  T. Markovich,  L. A. Martinez-Martinez,  S. A. Maurer,  
 N. J. Mayhall,  S. C. McKenzie,  J.-M. Mewes,  A. F. Morrison,  
 J. W. Mullinax,  K. Nanda,  T. S. Nguyen-Beck,  R. Olivares-Amaya,  
 J. A. Parkhill,  T. M. Perrine,  F. Plasser,  P. Pokhilko,  S. Prager,  
 A. Prociuk,  E. Ramos,  D. R. Rehn,  F. Rob,  M. Schneider,  N. Sergueev,  
 S. M. Sharada,  S. Sharma,  D. W. Small,  T. Stauch,  T. Stein,  
 Yu-Chuan Su,  A. J. W. Thom,  A. Tkatchenko,  T. Tsuchimochi,  N. M. Tubman,  
 L. Vogt,  M. L. Vidal,  O. Vydrov,  M. A. Watson,  J. Wenzel,  
 M. de Wergifosse,  T. A. Wesolowski,  A. White,  J. Witte,  A. Yamada,  
 Jun Yang,  K. Yao,  S. Yeganeh,  S. R. Yost,  Zhi-Qiang You,  A. Zech,  
 Igor Ying Zhang,  Xing Zhang,  Yan Zhao,  Ying Zhu,  B. R. Brooks,  
 G. K. L. Chan,  C. J. Cramer,  M. S. Gordon,  W. J. Hehre,  A. Klamt,  
 M. W. Schmidt,  C. D. Sherrill,  D. G. Truhlar,  A. Aspuru-Guzik,  R. Baer,  
 A. T. Bell,  N. A. Besley,  Jeng-Da Chai,  A. E. DePrince, III,  
 R. A. DiStasio Jr.,  A. Dreuw,  B. D. Dunietz,  T. R. Furlani,  
 Chao-Ping Hsu,  Yousung Jung,  Jing Kong,  D. S. Lambrecht,  WanZhen Liang,  
 C. Ochsenfeld,  V. A. Rassolov,  L. V. Slipchenko,  J. E. Subotnik,  
 T. Van Voorhis,  J. M. Herbert,  A. I. Krylov,  P. M. W. Gill,  M. Head-Gordon

 Contributors to earlier versions of Q-Chem not listed above: 
 R. D. Adamson,  B. Austin,  J. Baker,  G. J. O. Beran,  K. Brandhorst,  
 S. T. Brown,  E. F. C. Byrd,  A. K. Chakraborty,  C.-L. Cheng,  
 Siu Hung Chien,  D. M. Chipman,  D. L. Crittenden,  H. Dachsel,  
 R. J. Doerksen,  A. D. Dutoi,  L. Fusti-Molnar,  W. A. Goddard III,  
 A. Golubeva-Zadorozhnaya,  S. R. Gwaltney,  G. Hawkins,  A. Heyden,  
 S. Hirata,  G. Kedziora,  F. J. Keil,  C. Kelley,  Jihan Kim,  R. A. King,  
 R. Z. Khaliullin,  P. P. Korambath,  W. Kurlancheek,  A. M. Lee,  M. S. Lee,  
 S. V. Levchenko,  Ching Yeh Lin,  D. Liotard,  R. C. Lochan,  I. Lotan,  
 P. E. Maslen,  N. Nair,  D. P. O'Neill,  D. Neuhauser,  E. Neuscamman,  
 C. M. Oana,  R. Olson,  B. Peters,  R. Peverati,  P. A. Pieniazek,  
 Y. M. Rhee,  J. Ritchie,  M. A. Rohrdanz,  E. Rosta,  N. J. Russ,  
 H. F. Schaefer III,  N. E. Schultz,  N. Shenvi,  A. C. Simmonett,  A. Sodt,  
 D. Stuck,  K. S. Thanthiriwatte,  V. Vanovschi,  Tao Wang,  A. Warshel,  
 C. F. Williams,  Q. Wu,  X. Xu,  W. Zhang

 Please cite Q-Chem as follows:
 Y. Shao et al., Mol. Phys. 113, 184-215 (2015)
 DOI: 10.1080/00268976.2014.952696

 Q-Chem 5.1.1 for Intel X86 EM64T Linux

 Parts of Q-Chem use Armadillo 8.300.2 (Tropical Shenanigans).
 http://arma.sourceforge.net/

 Q-Chem begins on Thu Mar 14 08:19:48 2019  

Host: 
0

     Scratch files written to /staging/scratch/2868767/qchem7990//
 Aug318 |scratch|qcdevops|jenkins|workspace|build_RNUM 6013   
Processing $rem in /usr/usc/qchem/5.1.1/config/preferences.
 MEM_TOTAL  2000 
Input Ideriv = 2
Curr. Ideriv = -1
Max.  Ideriv = 2

Checking the input file for inconsistencies... 	...done.

--------------------------------------------------------------
User input:
--------------------------------------------------------------

$comment
potential surface scanner
$end

$rem
JOBTYPE  PES_SCAN
UNRESTRICTED TRUE
SYM_IGNORE  TRUE
GEOM_OPT_MAX_CYCLES 400
SCF_MAX_CYCLES 400
METHOD   B3LYP
BASIS   6-31G**
PDB_PRINT 2
SCF_CONVERGENCE 6
THRESH 14
SCF_PRINT 1
$end
$molecule
0 3
S 3.060673 0.487173 -0.051686
S -4.613460 1.566534 -0.063134
C 0.338146 -0.045005 0.108762
C 1.693576 -0.761746 -0.082523
C -0.803220 -1.005903 0.093834
H 0.365681 0.503060 1.058623
H 0.223771 0.698047 -0.690331
H 1.851334 -1.488189 0.718478
H 1.708496 -1.287334 -1.040535
H -1.124770 -1.503881 1.002706
H -1.233304 -1.342943 -0.843689
H 4.073997 -0.380690 -0.241286
H -4.432721 1.984479 1.209674
$end
$scan
stre 2 5 4.500000 4.501000 0.100000
$end
--------------------------------------------------------------
 ----------------------------------------------------------------
             Standard Nuclear Orientation (Angstroms)
    I     Atom           X                Y                Z
 ----------------------------------------------------------------
    1      S       3.0606730000     0.4871730000    -0.0516860000
    2      S      -4.6134600000     1.5665340000    -0.0631340000
    3      C       0.3381460000    -0.0450050000     0.1087620000
    4      C       1.6935760000    -0.7617460000    -0.0825230000
    5      C      -0.8032200000    -1.0059030000     0.0938340000
    6      H       0.3656810000     0.5030600000     1.0586230000
    7      H       0.2237710000     0.6980470000    -0.6903310000
    8      H       1.8513340000    -1.4881890000     0.7184780000
    9      H       1.7084960000    -1.2873340000    -1.0405350000
   10      H      -1.1247700000    -1.5038810000     1.0027060000
   11      H      -1.2333040000    -1.3429430000    -0.8436890000
   12      H       4.0739970000    -0.3806900000    -0.2412860000
   13      H      -4.4327210000     1.9844790000     1.2096740000
 ----------------------------------------------------------------
 Nuclear Repulsion Energy =   219.2667214977 hartrees
 There are       30 alpha and       28 beta electrons
 Requested basis set is 6-31G(d,p)
 There are 46 shells and 123 basis functions

 Total QAlloc Memory Limit   2000 MB
 Mega-Array Size       188 MB
 MEM_STATIC part       192 MB
A total of 1 constraints
  
            1
    1   1.0100000
    2   2.0100000
    3   5.0100000
    4   4.5000000
    5   4.5010000
    6   0.1000000
    7   0.0000000
    8   0.0000000
    9   0.0000000
   10   0.0000000

                       Distance Matrix (Angstroms)
             S (  1)   S (  2)   C (  3)   C (  4)   C (  5)   H (  6)
   S (  2)  7.749675
   C (  3)  2.778689  5.210087
   C (  4)  1.851946  6.723092  1.545153
   C (  5)  4.144891  4.600000  1.492067  2.514897
   H (  6)  2.914793  5.213555  1.096982  2.159920  2.138718
   H (  7)  2.915536  4.954437  1.097159  2.158878  2.138474  1.765502
   H (  8)  2.440842  7.192761  2.178135  1.092799  2.769375  2.507576
   H (  9)  2.440303  7.004784  2.177642  1.092819  2.770327  3.068408
   H ( 10)  4.753312  4.768063  2.251128  3.109913  1.085092  2.500477
   H ( 11)  4.734430  4.527668  2.249725  3.079576  1.085135  3.095686
   H ( 12)  1.347576  8.904792  3.767201  2.415950  4.928533  4.027702
   H ( 13)  7.744928  1.351808  5.300187  6.836888  4.833297  5.024150
             H (  7)   H (  8)   H (  9)   H ( 10)   H ( 11)   H ( 12)
   H (  8)  3.068115
   H (  9)  2.503755  1.776196
   H ( 10)  3.087624  2.989687  3.499875
   H ( 11)  2.512414  3.460701  2.948903  1.856571
   H ( 12)  4.023625  2.662317  2.656388  5.462257  5.427363
   H ( 13)  5.191131  7.196530  7.313190  4.811864  5.052159  8.947824

 
 A cutoff of  1.0D-14 yielded    906 shell pairs
 There are      6445 function pairs
 
 -------------------------------------------------------
 OpenMP Integral Computing Module                       
 Release: version 1.0, May 2013, Q-Chem Inc. Pittsburgh 
 -------------------------------------------------------
 Integral Job Info:
 Integral job number is                      11
 Integral operator is                         1
 short-range coefficients                     0
 long-range coefficients              100000000
 Omega coefficients                           0
 if combine SR and LR in K                    0
 Integral screening is                        0
 Integral computing path is                   2
 max size of driver memory is            800000
 size of driver memory is                593474
 size of scratch memory is             15267112
 max col of scratch BK array               1296
 max len of scratch array in speh3          155
 max len of scratch index in speh4           18
 max int batch size is                      520
 min int batch size is                       52
 fixed nKL is                                52
 max L of basis functions is                  2
 order of int derivative is                   0
 number of shells is                         46
 number of basis is                         123
 number of cartesian basis is               123
 number of contracted shell pairs           906
 number of primitive shell pairs           3339
 maxK2 (contraction) of shell pair           36
 max number of K2 of shell pair               1
 max number of CS2 of shell pair             80
 max number of PS2 of shell pair            294
 mem total for path MDJ                  514662
 -------------------------------------------------------
 Smallest overlap matrix eigenvalue = 5.81E-03

 Scale SEOQF with 1.000000e-01/1.000000e-01/1.000000e+00

 Standard Electronic Orientation quadrupole field applied
 Nucleus-field energy     =     0.0000000174 hartrees
 Guess from superposition of atomic densities
 Warning:  Energy on first SCF cycle will be non-variational
 SAD guess density has 58.000000 electrons

 -----------------------------------------------------------------------
  General SCF calculation program by
  Eric Jon Sundstrom, Paul Horn, Yuezhi Mao, Dmitri Zuev, Alec White,
  David Stuck, Shaama M.S., Shane Yost, Joonho Lee, David Small,
  Daniel Levine, Susi Lehtola, Hugh Burton, Evgeny Epifanovsky
 -----------------------------------------------------------------------
 Exchange:     0.2000 Hartree-Fock + 0.0800 Slater + 0.7200 B88
 Correlation:  0.1900 VWN1RPA + 0.8100 LYP
 Using SG-1 standard quadrature grid
 using 12 threads for integral computing
 -------------------------------------------------------
 OpenMP Integral computing Module                
 Release: version 1.0, May 2013, Q-Chem Inc. Pittsburgh 
 -------------------------------------------------------
 -------------------------------------------------------
 OpenMP BLAS3 based DFT computing Module                
 Release: version 1.0, May 2013, Q-Chem Inc. Pittsburgh 
 -------------------------------------------------------
 A unrestricted SCF calculation will be
 performed using DIIS
 SCF converges when DIIS error is below 1.0e-06
 Alpha HF Exchange    Energy =  -6.82166510901980
 Beta HF Exchange     Energy =  -6.82166510901980
 DFT Correlation      Energy =  -2.69166055572565
 DFT Exchange         Energy = -53.80800502492882
 One-Electron (alpha) Energy = -845.23054402043329
 One-Electron (beta)  Energy = -845.23054402043329
 Total Coulomb        Energy = 625.55873823102183
 ---------------------------------------
  Cycle       Energy         DIIS error
 ---------------------------------------
    1    -915.7786240935      2.60e-02  
 Alpha HF Exchange    Energy =  -6.95234411666654
 Beta HF Exchange     Energy =  -6.76809050109873
 DFT Correlation      Energy =  -2.70970910985180
 DFT Exchange         Energy = -54.42407849443723
 One-Electron (alpha) Energy = -861.51520272776497
 One-Electron (beta)  Energy = -834.47347536103837
 Total Coulomb        Energy = 632.51977333953471
    2    -915.0564054562      3.86e-03  
 Alpha HF Exchange    Energy =  -6.92891700883359
 Beta HF Exchange     Energy =  -6.76269769087780
 DFT Correlation      Energy =  -2.70081808821931
 DFT Exchange         Energy = -54.29831997567707
 One-Electron (alpha) Energy = -860.39654465143826
 One-Electron (beta)  Energy = -836.04657857663824
 Total Coulomb        Energy = 639.24484245326471
    3    -908.6223120233      1.31e-02  
 Alpha HF Exchange    Energy =  -6.90696392721060
 Beta HF Exchange     Energy =  -6.72895476632387
 DFT Correlation      Energy =  -2.68767795534854
 DFT Exchange         Energy = -54.06044183973546
 One-Electron (alpha) Energy = -858.64950303945739
 One-Electron (beta)  Energy = -833.50099022724112
 Total Coulomb        Energy = 627.92968681661409
    4    -915.3381234236      2.79e-03  
 Alpha HF Exchange    Energy =  -6.92517537557856
 Beta HF Exchange     Energy =  -6.74517051497867
 DFT Correlation      Energy =  -2.69618408266877
 DFT Exchange         Energy = -54.20583648595186
 One-Electron (alpha) Energy = -859.84203013532453
 One-Electron (beta)  Energy = -834.59728785132427
 Total Coulomb        Energy = 630.35044764804172
    5    -915.3945152827      1.15e-03  
 Alpha HF Exchange    Energy =  -6.92525833160753
 Beta HF Exchange     Energy =  -6.74433571253718
 DFT Correlation      Energy =  -2.69525708038241
 DFT Exchange         Energy = -54.20040639570680
 One-Electron (alpha) Energy = -859.75516872537412
 One-Electron (beta)  Energy = -834.47243786176841
 Total Coulomb        Energy = 630.12255500192202
    6    -915.4035875904      6.37e-04  
 Alpha HF Exchange    Energy =  -6.92534759722848
 Beta HF Exchange     Energy =  -6.74420805238265
 DFT Correlation      Energy =  -2.69512857450884
 DFT Exchange         Energy = -54.19979212294356
 One-Electron (alpha) Energy = -859.76654741452239
 One-Electron (beta)  Energy = -834.46394772601411
 Total Coulomb        Energy = 630.12159932277996
    7    -915.4066506497      4.38e-04  
 Alpha HF Exchange    Energy =  -6.92709957048356
 Beta HF Exchange     Energy =  -6.74491576466655
 DFT Correlation      Energy =  -2.69545848857816
 DFT Exchange         Energy = -54.20926345521507
 One-Electron (alpha) Energy = -859.82465189518939
 One-Electron (beta)  Energy = -834.48722204970340
 Total Coulomb        Energy = 630.21330673257853
    8    -915.4085829762      1.75e-04  
 Alpha HF Exchange    Energy =  -6.92758443529152
 Beta HF Exchange     Energy =  -6.74505368749556
 DFT Correlation      Energy =  -2.69549602773604
 DFT Exchange         Energy = -54.21159821616332
 One-Electron (alpha) Energy = -859.84245646132752
 One-Electron (beta)  Energy = -834.48942112401619
 Total Coulomb        Energy = 630.23595140203986
    9    -915.4089370349      4.16e-05  
 Alpha HF Exchange    Energy =  -6.92763839167267
 Beta HF Exchange     Energy =  -6.74503518086243
 DFT Correlation      Energy =  -2.69551037515029
 DFT Exchange         Energy = -54.21175426448154
 One-Electron (alpha) Energy = -859.84422325162643
 One-Electron (beta)  Energy = -834.48909795594045
 Total Coulomb        Energy = 630.23758292110335
   10    -915.4089549836      1.52e-05  
 Alpha HF Exchange    Energy =  -6.92767631052755
 Beta HF Exchange     Energy =  -6.74501782993133
 DFT Correlation      Energy =  -2.69551654836278
 DFT Exchange         Energy = -54.21183892625037
 One-Electron (alpha) Energy = -859.84419873061631
 One-Electron (beta)  Energy = -834.48762222370692
 Total Coulomb        Energy = 630.23619133681837
   11    -915.4089577175      3.38e-06  
 Alpha HF Exchange    Energy =  -6.92768785671211
 Beta HF Exchange     Energy =  -6.74503063407917
 DFT Correlation      Energy =  -2.69552271102565
 DFT Exchange         Energy = -54.21193935103001
 One-Electron (alpha) Energy = -859.84543528264498
 One-Electron (beta)  Energy = -834.48885226238167
 Total Coulomb        Energy = 630.23878875290848
   12    -915.4089578299      8.54e-07  Convergence criterion met
 ---------------------------------------
 SCF time:   CPU 34.14s  wall 3.00s 
<S^2> =          2.006214419
 Alpha HF Exchange    Energy =  -6.92768785671211
 Beta HF Exchange     Energy =  -6.74503063407917
 DFT Correlation      Energy =  -2.69552271102565
 DFT Exchange         Energy = -54.21193935103001
 One-Electron (alpha) Energy = -859.84543528264498
 One-Electron (beta)  Energy = -834.48885226238167
 Total Coulomb        Energy = 630.23878875290848
 Nuclear repulsion Energy = 219.26672151507580
 SCF   energy in the final basis set =     -915.4089578299
 Total energy in the final basis set =     -915.4089578299
 
 --------------------------------------------------------------
 
                    Orbital Energies (a.u.)
 --------------------------------------------------------------
 
 Alpha MOs
 -- Occupied --
-88.911 -88.872 -10.223 -10.200 -10.200  -7.972  -7.934  -5.944
 -5.934  -5.925  -5.899  -5.896  -5.889  -0.812  -0.740  -0.738
 -0.646  -0.589  -0.482  -0.447  -0.418  -0.413  -0.402  -0.373
 -0.350  -0.326  -0.321  -0.273  -0.236  -0.213
 -- Virtual --
  0.029   0.031   0.073   0.106   0.130   0.138   0.150   0.161
  0.202   0.216   0.262   0.271   0.325   0.328   0.356   0.359
  0.375   0.390   0.391   0.495   0.523   0.527   0.571   0.580
  0.608   0.631   0.673   0.688   0.696   0.727   0.737   0.741
  0.743   0.747   0.770   0.836   0.847   0.862   0.873   0.883
  0.907   0.916   0.949   1.028   1.084   1.144   1.164   1.232
  1.324   1.429   1.511   1.518   1.673   1.683   1.816   1.864
  1.939   1.969   1.990   2.057   2.065   2.066   2.076   2.098
  2.113   2.206   2.213   2.240   2.340   2.341   2.426   2.482
  2.514   2.594   2.602   2.685   2.698   2.753   2.774   2.783
  2.847   2.882   3.204   3.271   3.367   3.377   3.460   3.545
  3.918   3.985   4.223   4.391   4.594
 
 Beta MOs
 -- Occupied --
-88.905 -88.872 -10.222 -10.201 -10.186  -7.967  -7.934  -5.931
 -5.926  -5.921  -5.899  -5.896  -5.889  -0.806  -0.728  -0.699
 -0.630  -0.578  -0.478  -0.444  -0.412  -0.399  -0.393  -0.365
 -0.347  -0.325  -0.259  -0.235
 -- Virtual --
 -0.178  -0.057   0.033   0.042   0.077   0.111   0.131   0.142
  0.158   0.163   0.206   0.219   0.271   0.285   0.332   0.358
  0.365   0.367   0.376   0.391   0.392   0.499   0.524   0.543
  0.582   0.603   0.627   0.639   0.690   0.714   0.734   0.742
  0.742   0.748   0.773   0.791   0.797   0.839   0.850   0.863
  0.875   0.889   0.911   0.919   0.958   1.037   1.094   1.146
  1.167   1.240   1.336   1.465   1.519   1.524   1.674   1.707
  1.824   1.869   1.942   1.984   2.034   2.060   2.062   2.067
  2.079   2.098   2.113   2.211   2.214   2.240   2.342   2.349
  2.442   2.490   2.528   2.603   2.610   2.692   2.700   2.754
  2.775   2.785   2.850   2.886   3.206   3.274   3.369   3.381
  3.466   3.548   3.937   3.985   4.239   4.410   4.596
 --------------------------------------------------------------
 
          Ground-State Mulliken Net Atomic Charges

     Atom                 Charge (a.u.)    Spin (a.u.)
  --------------------------------------------------------
      1 S                    -0.055870       0.021312
      2 S                    -0.074588       1.028143
      3 C                    -0.200576      -0.074301
      4 C                    -0.314005       0.046637
      5 C                    -0.227489       1.075485
      6 H                     0.121067       0.011744
      7 H                     0.126239       0.014550
      8 H                     0.136453      -0.000418
      9 H                     0.137078      -0.000630
     10 H                     0.109492      -0.047549
     11 H                     0.112104      -0.047505
     12 H                     0.056398      -0.000007
     13 H                     0.073697      -0.027461
  --------------------------------------------------------
  Sum of atomic charges =    -0.000000
  Sum of spin   charges =     2.000000

 -----------------------------------------------------------------
                    Cartesian Multipole Moments
 -----------------------------------------------------------------
    Charge (ESU x 10^10)
                 0.0000
    Dipole Moment (Debye)
         X      -0.3865      Y      -1.3347      Z       0.8124
       Tot       1.6096
    Quadrupole Moments (Debye-Ang)
        XX     -49.3469     XY      -6.8339     YY     -46.8046
        XZ      -4.5391     YZ       2.7150     ZZ     -46.2813
    Octopole Moments (Debye-Ang^2)
       XXX      61.6647    XXY     -14.5757    XYY       6.0435
       YYY     -46.3603    XXZ      11.2657    XYZ      -9.4893
       YYZ       6.2813    XZZ       1.4326    YZZ     -15.6943
       ZZZ       1.4212
    Hexadecapole Moments (Debye-Ang^3)
      XXXX   -2727.3520   XXXY     117.7702   XXYY    -481.0907
      XYYY     242.6635   YYYY    -378.2256   XXXZ     -60.8430
      XXYZ      45.6663   XYYZ     -19.4309   YYYZ      12.5638
      XXZZ    -460.7357   XYZZ      69.7243   YYZZ     -70.1176
      XZZZ       7.1952   YZZZ       4.1341   ZZZZ     -83.4497
 -----------------------------------------------------------------
 Calculating analytic gradient of the SCF energy
 Gradient of SCF Energy
            1           2           3           4           5           6
    1  -0.0000075   0.0000453  -0.0000974   0.0000230   0.0000243   0.0000035
    2   0.0000062   0.0000187   0.0000515   0.0000117  -0.0001598   0.0000108
    3   0.0000111   0.0000110   0.0000570  -0.0000189  -0.0000678  -0.0000067
            7           8           9          10          11          12
    1   0.0000055   0.0000001   0.0000030   0.0000264   0.0000339   0.0000009
    2   0.0000089  -0.0000015   0.0000102   0.0000351  -0.0000060   0.0000124
    3  -0.0000006  -0.0000043  -0.0000022   0.0000132  -0.0000223   0.0000071
           13
    1  -0.0000612
    2   0.0000016
    3   0.0000234
 Max gradient component =       1.598E-04
 RMS gradient           =       3.875E-05
 Gradient time:  CPU 9.76 s  wall 0.85 s
 Geometry Optimization Parameters
   NAtoms,    NIC,     NZ,  NCons,   NDum,   NFix, NCnnct, MaxDiis
       13     160       0       1       0       0       0       0


** CONSTRAINED OPTIMIZATION IN DELOCALIZED INTERNAL COORDINATES **
   Searching for a Minimum

   Optimization Cycle:   1

                       Coordinates (Angstroms)
     ATOM                X               Y               Z
      1  S         3.0606730000    0.4871730000   -0.0516860000
      2  S        -4.6134600000    1.5665340000   -0.0631340000
      3  C         0.3381460000   -0.0450050000    0.1087620000
      4  C         1.6935760000   -0.7617460000   -0.0825230000
      5  C        -0.8032200000   -1.0059030000    0.0938340000
      6  H         0.3656810000    0.5030600000    1.0586230000
      7  H         0.2237710000    0.6980470000   -0.6903310000
      8  H         1.8513340000   -1.4881890000    0.7184780000
      9  H         1.7084960000   -1.2873340000   -1.0405350000
     10  H        -1.1247700000   -1.5038810000    1.0027060000
     11  H        -1.2333040000   -1.3429430000   -0.8436890000
     12  H         4.0739970000   -0.3806900000   -0.2412860000
     13  H        -4.4327210000    1.9844790000    1.2096740000
   Point Group: c1    Number of degrees of freedom:    33


   Energy is   -915.408957830

              Constraints and their Current Values
                                        Value     Constraint
   Distance(Angs):        2   5             4.600000     4.500000

 Attempting to Generate Delocalized Internal Coordinates

   Using Lagrange Multiplier Algorithm


 34 Hessian modes will be used to form the next step
  Hessian Eigenvalues:
    -0.997651    0.030563    0.040511    0.045000    0.045000    0.046932
     0.047716    0.056791    0.060496    0.063086    0.067411    0.071883
     0.075509    0.079345    0.085131    0.091032    0.111727    0.123551
     0.142412    0.159423    0.160000    0.220756    0.224175    0.237026
     0.258253    0.280673    0.283339    0.294091    0.312420    0.324671
     0.340181    0.344889    0.344912    1.002354

 Minimum Search - Taking P-RFO Step
 Searching for Lamda that Maximizes Along the Constraint modes Only
 Value Taken    Lamda =   0.01762707
 Searching for Lamda that Minimizes Along All other modes
 Value Taken    Lamda =  -0.01746812
 Step Taken.  Stepsize is  0.185718

                             Maximum     Tolerance    Cnvgd?
         Gradient            0.188973       0.000300      NO
         Displacement        0.185714       0.001200      NO
         Energy change     *********       0.000001      NO


 New Cartesian Coordinates Obtained by Inverse Iteration

 Displacement from previous Coordinates is:  0.180133
 ----------------------------------------------------------------
             Standard Nuclear Orientation (Angstroms)
    I     Atom           X                Y                Z
 ----------------------------------------------------------------
    1      S       3.0617943455     0.4808618237    -0.0487594275
    2      S      -4.5599265245     1.5203760478    -0.0590451450
    3      C       0.3339038780    -0.0257831537     0.1031634288
    4      C       1.6831192065    -0.7551660134    -0.0840631302
    5      C      -0.8265860445    -0.9906690041     0.0904389854
    6      H       0.3600534778     0.5219731363     1.0532447775
    7      H       0.2511301649     0.7088689505    -0.6954111183
    8      H       1.8315914358    -1.4832030248     0.7172617872
    9      H       1.6960785591    -1.2806860747    -1.0421429543
   10      H      -1.1304874065    -1.5075441939     1.0139795309
   11      H      -1.2369708533    -1.3437506258    -0.8479028900
   12      H       4.0675054776    -0.3964390089    -0.2354364000
   13      H      -4.4230067166     1.9747631410     1.2135655555
 ----------------------------------------------------------------
 Nuclear Repulsion Energy =   219.7136838096 hartrees
 There are       30 alpha and       28 beta electrons

                       Distance Matrix (Angstroms)
             S (  1)   S (  2)   C (  3)   C (  4)   C (  5)   H (  6)
   S (  2)  7.692290
   C (  3)  2.778697  5.134832
   C (  4)  1.851960  6.644873  1.545133
   C (  5)  4.159841  4.501725  1.509272  2.526763
   H (  6)  2.918134  5.142004  1.096985  2.162188  2.150162
   H (  7)  2.893092  4.920343  1.088249  2.137227  2.160431  1.761985
   H (  8)  2.440848  7.104621  2.178132  1.092796  2.775140  2.509789
   H (  9)  2.440295  6.924596  2.177620  1.092820  2.780412  3.070048
   H ( 10)  4.760084  4.699014  2.273685  3.112580  1.101110  2.518371
   H ( 11)  4.737850  4.457303  2.260357  3.075193  1.083313  3.105765
   H ( 12)  1.347576  8.839563  3.767203  2.415967  4.940793  4.031052
   H ( 13)  7.736114  1.358217  5.278577  6.813305  4.794731  5.001396
             H (  7)   H (  8)   H (  9)   H ( 10)   H ( 11)   H ( 12)
   H (  8)  3.049374
   H (  9)  2.483229  1.776199
   H ( 10)  3.121437  2.977003  3.502653
   H ( 11)  2.539871  3.447501  2.940151  1.872104
   H ( 12)  3.999750  2.662330  2.656376  5.460286  5.423097
   H ( 13)  5.205212  7.164066  7.288990  4.796559  5.041132  8.933700

 
 Applying Cartesian multipole field
    Component          Value
    ---------          -----
     (2,0,0)        1.00000E-11
     (0,2,0)        2.00000E-11
     (0,0,2)       -3.00000E-10
 Nucleus-field energy     =     0.0000000169 hartrees
 Requested basis set is 6-31G(d,p)
 There are 46 shells and 123 basis functions
 A cutoff of  1.0D-14 yielded    909 shell pairs
 There are      6485 function pairs
 Smallest overlap matrix eigenvalue = 5.92E-03
 Guess from superposition of atomic densities
 Warning:  Energy on first SCF cycle will be non-variational
 SAD guess density has 58.000000 electrons

 -----------------------------------------------------------------------
  General SCF calculation program by
  Eric Jon Sundstrom, Paul Horn, Yuezhi Mao, Dmitri Zuev, Alec White,
  David Stuck, Shaama M.S., Shane Yost, Joonho Lee, David Small,
  Daniel Levine, Susi Lehtola, Hugh Burton, Evgeny Epifanovsky
 -----------------------------------------------------------------------
 Exchange:     0.2000 Hartree-Fock + 0.0800 Slater + 0.7200 B88
 Correlation:  0.1900 VWN1RPA + 0.8100 LYP
 Using SG-1 standard quadrature grid
 using 12 threads for integral computing
 -------------------------------------------------------
 OpenMP Integral computing Module                
 Release: version 1.0, May 2013, Q-Chem Inc. Pittsburgh 
 -------------------------------------------------------
 -------------------------------------------------------
 OpenMP BLAS3 based DFT computing Module                
 Release: version 1.0, May 2013, Q-Chem Inc. Pittsburgh 
 -------------------------------------------------------
 A unrestricted SCF calculation will be
 performed using DIIS
 SCF converges when DIIS error is below 1.0e-06
 Alpha HF Exchange    Energy =  -6.81924988131290
 Beta HF Exchange     Energy =  -6.81924988131290
 DFT Correlation      Energy =  -2.69115389728207
 DFT Exchange         Energy = -53.80286555967837
 One-Electron (alpha) Energy = -845.69044552303455
 One-Electron (beta)  Energy = -845.69044552303455
 Total Coulomb        Energy = 626.04330144431810
 ---------------------------------------
  Cycle       Energy         DIIS error
 ---------------------------------------
    1    -915.7564249948      2.58e-02  
 Alpha HF Exchange    Energy =  -6.95075359268543
 Beta HF Exchange     Energy =  -6.76676226391875
 DFT Correlation      Energy =  -2.70892175654703
 DFT Exchange         Energy = -54.41337725941569
 One-Electron (alpha) Energy = -861.97835364359503
 One-Electron (beta)  Energy = -834.93249889213132
 Total Coulomb        Energy = 632.97947715614384
    2    -915.0575064256      3.84e-03  
 Alpha HF Exchange    Energy =  -6.92790067783741
 Beta HF Exchange     Energy =  -6.76183469112087
 DFT Correlation      Energy =  -2.70019172873390
 DFT Exchange         Energy = -54.29168311524883
 One-Electron (alpha) Energy = -860.79753798746310
 One-Electron (beta)  Energy = -836.41666390005173
 Total Coulomb        Energy = 639.54911618227925
    3    -908.6330120916      1.31e-02  
 Alpha HF Exchange    Energy =  -6.90603692038402
 Beta HF Exchange     Energy =  -6.72802949050860
 DFT Correlation      Energy =  -2.68704288105161
 DFT Exchange         Energy = -54.05383892068465
 One-Electron (alpha) Energy = -859.13808500097923
 One-Electron (beta)  Energy = -833.93419893414614
 Total Coulomb        Energy = 628.39589812398674
    4    -915.3376501972      2.79e-03  
 Alpha HF Exchange    Energy =  -6.92400099353662
 Beta HF Exchange     Energy =  -6.74409716541273
 DFT Correlation      Energy =  -2.69545247118857
 DFT Exchange         Energy = -54.19767051148222
 One-Electron (alpha) Energy = -860.32018690937377
 One-Electron (beta)  Energy = -835.02161664601249
 Total Coulomb        Energy = 630.79544075995352
    5    -915.3939001105      1.16e-03  
 Alpha HF Exchange    Energy =  -6.92410354449778
 Beta HF Exchange     Energy =  -6.74325725368733
 DFT Correlation      Energy =  -2.69453708639931
 DFT Exchange         Energy = -54.19230216674342
 One-Electron (alpha) Energy = -860.23499886541663
 One-Electron (beta)  Energy = -834.89759296335399
 Total Coulomb        Energy = 630.57012305757053
    6    -915.4029849960      6.43e-04  
 Alpha HF Exchange    Energy =  -6.92419394251837
 Beta HF Exchange     Energy =  -6.74311967597337
 DFT Correlation      Energy =  -2.69440516715295
 DFT Exchange         Energy = -54.19163952373685
 One-Electron (alpha) Energy = -860.24654544461657
 One-Electron (beta)  Energy = -834.88852217669523
 Total Coulomb        Energy = 630.56862654373720
    7    -915.4061155604      4.42e-04  
 Alpha HF Exchange    Energy =  -6.92597655266518
 Beta HF Exchange     Energy =  -6.74384356125280
 DFT Correlation      Energy =  -2.69474926635347
 DFT Exchange         Energy = -54.20131370212550
 One-Electron (alpha) Energy = -860.30680850405849
 One-Electron (beta)  Energy = -834.91311549729073
 Total Coulomb        Energy = 630.66403514070919
    8    -915.4080881165      1.76e-04  
 Alpha HF Exchange    Energy =  -6.92645351086892
 Beta HF Exchange     Energy =  -6.74397589661974
 DFT Correlation      Energy =  -2.69478580867411
 DFT Exchange         Energy = -54.20359254712947
 One-Electron (alpha) Energy = -860.32477387895926
 One-Electron (beta)  Energy = -834.91531510150458
 Total Coulomb        Energy = 630.68676653425223
    9    -915.4084463830      4.18e-05  
 Alpha HF Exchange    Energy =  -6.92650707180221
 Beta HF Exchange     Energy =  -6.74395484448998
 DFT Correlation      Energy =  -2.69480063374197
 DFT Exchange         Energy = -54.20373946736930
 One-Electron (alpha) Energy = -860.32636473852926
 One-Electron (beta)  Energy = -834.91477615820259
 Total Coulomb        Energy = 630.68799448679601
   10    -915.4084646008      1.51e-05  
 Alpha HF Exchange    Energy =  -6.92654674463917
 Beta HF Exchange     Energy =  -6.74393988480469
 DFT Correlation      Energy =  -2.69480805066740
 DFT Exchange         Energy = -54.20384130954692
 One-Electron (alpha) Energy = -860.32656406129036
 One-Electron (beta)  Energy = -834.91351057840689
 Total Coulomb        Energy = 630.68705946982243
   11    -915.4084673330      3.33e-06  
 Alpha HF Exchange    Energy =  -6.92655672549572
 Beta HF Exchange     Energy =  -6.74395205369937
 DFT Correlation      Energy =  -2.69481385168932
 DFT Exchange         Energy = -54.20393293595018
 One-Electron (alpha) Energy = -860.32772272208717
 One-Electron (beta)  Energy = -834.91470092748068
 Total Coulomb        Energy = 630.68952794983340
   12    -915.4084674400      8.96e-07  Convergence criterion met
 ---------------------------------------
 SCF time:   CPU 32.98s  wall 3.00s 
<S^2> =          2.006273400
 Alpha HF Exchange    Energy =  -6.92655672549572
 Beta HF Exchange     Energy =  -6.74395205369937
 DFT Correlation      Energy =  -2.69481385168932
 DFT Exchange         Energy = -54.20393293595018
 One-Electron (alpha) Energy = -860.32772272208717
 One-Electron (beta)  Energy = -834.91470092748068
 Total Coulomb        Energy = 630.68952794983340
 Nuclear repulsion Energy = 219.71368382654441
 SCF   energy in the final basis set =     -915.4084674400
 Total energy in the final basis set =     -915.4084674400
 
 --------------------------------------------------------------
 
                    Orbital Energies (a.u.)
 --------------------------------------------------------------
 
 Alpha MOs
 -- Occupied --
-88.911 -88.872 -10.223 -10.203 -10.200  -7.972  -7.935  -5.944
 -5.934  -5.924  -5.900  -5.896  -5.889  -0.811  -0.738  -0.737
 -0.646  -0.589  -0.481  -0.446  -0.417  -0.412  -0.400  -0.371
 -0.352  -0.326  -0.320  -0.273  -0.236  -0.214
 -- Virtual --
  0.029   0.030   0.072   0.105   0.131   0.138   0.150   0.162
  0.202   0.213   0.256   0.272   0.325   0.328   0.356   0.359
  0.375   0.390   0.391   0.495   0.522   0.527   0.573   0.578
  0.610   0.625   0.673   0.689   0.696   0.728   0.737   0.741
  0.743   0.747   0.768   0.836   0.848   0.864   0.871   0.883
  0.905   0.920   0.948   1.027   1.079   1.144   1.158   1.230
  1.325   1.424   1.508   1.522   1.675   1.684   1.808   1.857
  1.931   1.968   1.982   2.055   2.063   2.067   2.077   2.098
  2.117   2.205   2.213   2.239   2.337   2.340   2.416   2.477
  2.503   2.593   2.604   2.681   2.688   2.753   2.771   2.779
  2.848   2.867   3.205   3.265   3.365   3.373   3.448   3.543
  3.918   3.984   4.218   4.389   4.592
 
 Beta MOs
 -- Occupied --
-88.905 -88.872 -10.221 -10.201 -10.189  -7.967  -7.935  -5.930
 -5.926  -5.921  -5.899  -5.896  -5.889  -0.805  -0.727  -0.697
 -0.629  -0.579  -0.478  -0.443  -0.411  -0.399  -0.391  -0.364
 -0.349  -0.325  -0.258  -0.235
 -- Virtual --
 -0.177  -0.058   0.033   0.040   0.076   0.110   0.132   0.143
  0.156   0.163   0.206   0.217   0.265   0.286   0.333   0.357
  0.365   0.367   0.376   0.391   0.393   0.498   0.524   0.544
  0.580   0.602   0.627   0.636   0.691   0.715   0.735   0.742
  0.743   0.748   0.771   0.792   0.797   0.839   0.850   0.866
  0.873   0.889   0.909   0.923   0.957   1.036   1.089   1.145
  1.161   1.238   1.336   1.455   1.516   1.532   1.676   1.707
  1.817   1.861   1.935   1.986   2.021   2.058   2.060   2.068
  2.080   2.099   2.117   2.210   2.214   2.240   2.339   2.349
  2.433   2.485   2.516   2.603   2.611   2.688   2.690   2.754
  2.772   2.781   2.851   2.871   3.208   3.269   3.368   3.377
  3.454   3.545   3.936   3.985   4.235   4.407   4.595
 --------------------------------------------------------------
 
          Ground-State Mulliken Net Atomic Charges

     Atom                 Charge (a.u.)    Spin (a.u.)
  --------------------------------------------------------
      1 S                    -0.055980       0.020926
      2 S                    -0.074719       1.028606
      3 C                    -0.201248      -0.073422
      4 C                    -0.314749       0.044776
      5 C                    -0.227311       1.078579
      6 H                     0.121349       0.010884
      7 H                     0.127787       0.013128
      8 H                     0.136081      -0.000439
      9 H                     0.136869      -0.000623
     10 H                     0.108578      -0.047773
     11 H                     0.113077      -0.046970
     12 H                     0.056698       0.000044
     13 H                     0.073569      -0.027714
  --------------------------------------------------------
  Sum of atomic charges =     0.000000
  Sum of spin   charges =     2.000000

 -----------------------------------------------------------------
                    Cartesian Multipole Moments
 -----------------------------------------------------------------
    Charge (ESU x 10^10)
                -0.0000
    Dipole Moment (Debye)
         X      -0.3952      Y      -1.3267      Z       0.7907
       Tot       1.5943
    Quadrupole Moments (Debye-Ang)
        XX     -49.1009     XY      -6.9179     YY     -46.7685
        XZ      -4.5013     YZ       2.7176     ZZ     -46.2826
    Octopole Moments (Debye-Ang^2)
       XXX      56.6545    XXY     -13.4737    XYY       5.8306
       YYY     -45.2757    XXZ      11.0834    XYZ      -9.4517
       YYZ       6.1514    XZZ       1.0058    YZZ     -15.2663
       ZZZ       1.2259
    Hexadecapole Moments (Debye-Ang^3)
      XXXX   -2664.6242   XXXY     101.9994   XXYY    -474.3643
      XYYY     232.8530   YYYY    -366.0395   XXXZ     -59.1406
      XXYZ      45.4497   XYYZ     -18.8892   YYYZ      11.7514
      XXZZ    -455.0116   XYZZ      66.2613   YYZZ     -68.0178
      XZZZ       7.7832   YZZZ       3.6539   ZZZZ     -83.5391
 -----------------------------------------------------------------
 Calculating analytic gradient of the SCF energy
 Gradient of SCF Energy
            1           2           3           4           5           6
    1   0.0000686  -0.0002208   0.0033863   0.0004411  -0.0057246  -0.0000088
    2  -0.0000301  -0.0011084   0.0091033   0.0011764  -0.0021616   0.0000136
    3  -0.0000299  -0.0029905  -0.0037800  -0.0014700  -0.0086987   0.0003133
            7           8           9          10          11          12
    1   0.0036279  -0.0003537   0.0000293  -0.0025704   0.0010574   0.0000238
    2  -0.0036563   0.0001172  -0.0000468  -0.0050091   0.0004765   0.0000130
    3   0.0037306   0.0000772   0.0000156   0.0089874   0.0007613   0.0000489
           13
    1   0.0002439
    2   0.0011124
    3   0.0030347
 Max gradient component =       9.103E-03
 RMS gradient           =       3.208E-03
 Gradient time:  CPU 9.68 s  wall 0.86 s
 Geometry Optimization Parameters
   NAtoms,    NIC,     NZ,  NCons,   NDum,   NFix, NCnnct, MaxDiis
       13     160       0       1       0       0       0       0

 Cartesian Hessian Update
 Hessian Updated using BFGS Update


** CONSTRAINED OPTIMIZATION IN DELOCALIZED INTERNAL COORDINATES **
   Searching for a Minimum

   Optimization Cycle:   2

                       Coordinates (Angstroms)
     ATOM                X               Y               Z
      1  S         3.0617943455    0.4808618237   -0.0487594275
      2  S        -4.5599265245    1.5203760478   -0.0590451450
      3  C         0.3339038780   -0.0257831537    0.1031634288
      4  C         1.6831192065   -0.7551660134   -0.0840631302
      5  C        -0.8265860445   -0.9906690041    0.0904389854
      6  H         0.3600534778    0.5219731363    1.0532447775
      7  H         0.2511301649    0.7088689505   -0.6954111183
      8  H         1.8315914358   -1.4832030248    0.7172617872
      9  H         1.6960785591   -1.2806860747   -1.0421429543
     10  H        -1.1304874065   -1.5075441939    1.0139795309
     11  H        -1.2369708533   -1.3437506258   -0.8479028900
     12  H         4.0675054776   -0.3964390089   -0.2354364000
     13  H        -4.4230067166    1.9747631410    1.2135655555
   Point Group: c1    Number of degrees of freedom:    33


   Energy is   -915.408467440

              Constraints and their Current Values
                                        Value     Constraint
   Distance(Angs):        2   5             4.501725     4.500000
 Hessian Updated using BFGS Update

   Using Lagrange Multiplier Algorithm


 34 Hessian modes will be used to form the next step
  Hessian Eigenvalues:
    -0.987995    0.031119    0.040667    0.045000    0.045002    0.046931
     0.047926    0.056829    0.060536    0.063161    0.067415    0.071883
     0.075519    0.079368    0.085136    0.091669    0.116356    0.123614
     0.142534    0.159652    0.160002    0.220791    0.224175    0.239614
     0.258253    0.280674    0.286731    0.308487    0.323850    0.340159
     0.344889    0.344910    0.495313    1.020043

 Minimum Search - Taking P-RFO Step
 Searching for Lamda that Maximizes Along the Constraint modes Only
 Value Taken    Lamda =   0.00002398
 Searching for Lamda that Minimizes Along All other modes
 Value Taken    Lamda =  -0.00045852
 Step Taken.  Stepsize is  0.038016

                             Maximum     Tolerance    Cnvgd?
         Gradient            0.007245       0.000300      NO
         Displacement        0.019016       0.001200      NO
         Energy change      0.000490       0.000001      NO


 New Cartesian Coordinates Obtained by Inverse Iteration

 Displacement from previous Coordinates is:  0.044109
 ----------------------------------------------------------------
             Standard Nuclear Orientation (Angstroms)
    I     Atom           X                Y                Z
 ----------------------------------------------------------------
    1      S       3.0601091283     0.4782114715    -0.0482686665
    2      S      -4.5581415895     1.5169907052    -0.0552366947
    3      C       0.3322409712    -0.0253999237     0.1024550027
    4      C       1.6808607772    -0.7571553852    -0.0815958958
    5      C      -0.8213691055    -0.9861338312     0.0893405534
    6      H       0.3586739133     0.5229577991     1.0519103119
    7      H       0.2416443440     0.7118689410    -0.6993393418
    8      H       1.8296530545    -1.4840314360     0.7207984790
    9      H       1.6937979144    -1.2843046034    -1.0387697236
   10      H      -1.1207825316    -1.5000421846     1.0064909622
   11      H      -1.2330051994    -1.3406053171    -0.8490368154
   12      H       4.0652394389    -0.4000262439    -0.2335830518
   13      H      -4.4207221158     1.9712720082     1.2137278803
 ----------------------------------------------------------------
 Nuclear Repulsion Energy =   219.9284974405 hartrees
 There are       30 alpha and       28 beta electrons

                       Distance Matrix (Angstroms)
             S (  1)   S (  2)   C (  3)   C (  4)   C (  5)   H (  6)
   S (  2)  7.688749
   C (  3)  2.778058  5.130271
   C (  4)  1.851909  6.640601  1.545353
   C (  5)  4.150797  4.500000  1.501332  2.518493
   H (  6)  2.917216  5.137018  1.096750  2.161413  2.143922
   H (  7)  2.902108  4.909280  1.092999  2.147320  2.152958  1.765293
   H (  8)  2.440468  7.100161  2.179954  1.092852  2.770300  2.510263
   H (  9)  2.440156  6.921079  2.177400  1.092811  2.772653  3.069152
   H ( 10)  4.744034  4.695231  2.259010  3.095968  1.093122  2.506668
   H ( 11)  4.730767  4.455615  2.255016  3.069201  1.084272  3.101598
   H ( 12)  1.347564  8.835692  3.766768  2.415761  4.932215  4.030263
   H ( 13)  7.732057  1.354816  5.273735  6.808193  4.792269  4.996641
             H (  7)   H (  8)   H (  9)   H ( 10)   H ( 11)   H ( 12)
   H (  8)  3.059500
   H (  9)  2.491721  1.776071
   H ( 10)  3.107831  2.964278  3.485900
   H ( 11)  2.531729  3.444536  2.933487  1.865743
   H ( 12)  4.009129  2.661533  2.655938  5.444506  5.416167
   H ( 13)  5.194572  7.158861  7.284221  4.794014  5.038360  8.929127

 
 Applying Cartesian multipole field
    Component          Value
    ---------          -----
     (2,0,0)        1.00000E-11
     (0,2,0)        2.00000E-11
     (0,0,2)       -3.00000E-10
 Nucleus-field energy     =     0.0000000169 hartrees
 Requested basis set is 6-31G(d,p)
 There are 46 shells and 123 basis functions
 A cutoff of  1.0D-14 yielded    909 shell pairs
 There are      6485 function pairs
 Smallest overlap matrix eigenvalue = 5.87E-03
 Guess from superposition of atomic densities
 Warning:  Energy on first SCF cycle will be non-variational
 SAD guess density has 58.000000 electrons

 -----------------------------------------------------------------------
  General SCF calculation program by
  Eric Jon Sundstrom, Paul Horn, Yuezhi Mao, Dmitri Zuev, Alec White,
  David Stuck, Shaama M.S., Shane Yost, Joonho Lee, David Small,
  Daniel Levine, Susi Lehtola, Hugh Burton, Evgeny Epifanovsky
 -----------------------------------------------------------------------
 Exchange:     0.2000 Hartree-Fock + 0.0800 Slater + 0.7200 B88
 Correlation:  0.1900 VWN1RPA + 0.8100 LYP
 Using SG-1 standard quadrature grid
 using 12 threads for integral computing
 -------------------------------------------------------
 OpenMP Integral computing Module                
 Release: version 1.0, May 2013, Q-Chem Inc. Pittsburgh 
 -------------------------------------------------------
 -------------------------------------------------------
 OpenMP BLAS3 based DFT computing Module                
 Release: version 1.0, May 2013, Q-Chem Inc. Pittsburgh 
 -------------------------------------------------------
 A unrestricted SCF calculation will be
 performed using DIIS
 SCF converges when DIIS error is below 1.0e-06
 Alpha HF Exchange    Energy =  -6.82040233291913
 Beta HF Exchange     Energy =  -6.82040233291913
 DFT Correlation      Energy =  -2.69143728131602
 DFT Exchange         Energy = -53.80526576569349
 One-Electron (alpha) Energy = -845.89932457519762
 One-Electron (beta)  Energy = -845.89932457519762
 Total Coulomb        Energy = 626.24072262934283
 ---------------------------------------
  Cycle       Energy         DIIS error
 ---------------------------------------
    1    -915.7669367765      2.59e-02  
 Alpha HF Exchange    Energy =  -6.95152571787193
 Beta HF Exchange     Energy =  -6.76730408237337
 DFT Correlation      Energy =  -2.70932833403443
 DFT Exchange         Energy = -54.41827445352961
 One-Electron (alpha) Energy = -862.21251522672310
 One-Electron (beta)  Energy = -835.13754726124660
 Total Coulomb        Energy = 633.21065787503289
    2    -915.0573397433      3.85e-03  
 Alpha HF Exchange    Energy =  -6.92832588397059
 Beta HF Exchange     Energy =  -6.76219987872879
 DFT Correlation      Energy =  -2.70046498993890
 DFT Exchange         Energy = -54.29444053473682
 One-Electron (alpha) Energy = -861.01757576444038
 One-Electron (beta)  Energy = -836.60633835749195
 Total Coulomb        Energy = 639.74995997173869
    3    -908.6308879801      1.32e-02  
 Alpha HF Exchange    Energy =  -6.90652395773018
 Beta HF Exchange     Energy =  -6.72845786149727
 DFT Correlation      Energy =  -2.68736633702854
 DFT Exchange         Energy = -54.05710820514602
 One-Electron (alpha) Energy = -859.36040555388411
 One-Electron (beta)  Energy = -834.13082866214540
 Total Coulomb        Energy = 628.60421594070635
    4    -915.3379771793      2.79e-03  
 Alpha HF Exchange    Energy =  -6.92459350133287
 Beta HF Exchange     Energy =  -6.74459055831312
 DFT Correlation      Energy =  -2.69581030471247
 DFT Exchange         Energy = -54.20159801743628
 One-Electron (alpha) Energy = -860.54658076259545
 One-Electron (beta)  Energy = -835.22238143959964
 Total Coulomb        Energy = 631.01278258930040
    5    -915.3942745372      1.16e-03  
 Alpha HF Exchange    Energy =  -6.92468516755885
 Beta HF Exchange     Energy =  -6.74374869817236
 DFT Correlation      Energy =  -2.69488883191545
 DFT Exchange         Energy = -54.19617010526480
 One-Electron (alpha) Energy = -860.46044833943938
 One-Electron (beta)  Energy = -835.09798244261913
 Total Coulomb        Energy = 630.78606625790860
    6    -915.4033598696      6.41e-04  
 Alpha HF Exchange    Energy =  -6.92477801187381
 Beta HF Exchange     Energy =  -6.74361860097326
 DFT Correlation      Energy =  -2.69476024417732
 DFT Exchange         Energy = -54.19555009567281
 One-Electron (alpha) Energy = -860.47217039678162
 One-Electron (beta)  Energy = -835.08957341652308
 Total Coulomb        Energy = 630.78549029581768
    7    -915.4064630127      4.40e-04  
 Alpha HF Exchange    Energy =  -6.92654281256695
 Beta HF Exchange     Energy =  -6.74433371529758
 DFT Correlation      Energy =  -2.69509771909571
 DFT Exchange         Energy = -54.20510745147303
 One-Electron (alpha) Energy = -860.53134973991985
 One-Electron (beta)  Energy = -835.11376361460077
 Total Coulomb        Energy = 630.87927690583513
    8    -915.4084206897      1.76e-04  
 Alpha HF Exchange    Energy =  -6.92702198094845
 Beta HF Exchange     Energy =  -6.74446803975732
 DFT Correlation      Energy =  -2.69513531568529
 DFT Exchange         Energy = -54.20740440385610
 One-Electron (alpha) Energy = -860.54923213019129
 One-Electron (beta)  Energy = -835.11605325684559
 Total Coulomb        Energy = 630.90204030755626
    9    -915.4087773623      4.17e-05  
 Alpha HF Exchange    Energy =  -6.92707587512212
 Beta HF Exchange     Energy =  -6.74444871440550
 DFT Correlation      Energy =  -2.69515042307760
 DFT Exchange         Energy = -54.20755867524834
 One-Electron (alpha) Energy = -860.55095735260943
 One-Electron (beta)  Energy = -835.11568526147539
 Total Coulomb        Energy = 630.90358333741938
   10    -915.4087955071      1.52e-05  
 Alpha HF Exchange    Energy =  -6.92711443168852
 Beta HF Exchange     Energy =  -6.74443247161367
 DFT Correlation      Energy =  -2.69515735183386
 DFT Exchange         Energy = -54.20765091215711
 One-Electron (alpha) Energy = -860.55104282428056
 One-Electron (beta)  Energy = -835.11431678965505
 Total Coulomb        Energy = 630.90241906335086
   11    -915.4087982604      3.37e-06  
 Alpha HF Exchange    Energy =  -6.92712523071257
 Beta HF Exchange     Energy =  -6.74444500961195
 DFT Correlation      Energy =  -2.69516339291979
 DFT Exchange         Energy = -54.20774734651151
 One-Electron (alpha) Energy = -860.55224748737714
 One-Electron (beta)  Energy = -835.11553263407700
 Total Coulomb        Energy = 630.90496527305538
   12    -915.4087983707      8.76e-07  Convergence criterion met
 ---------------------------------------
 SCF time:   CPU 33.18s  wall 2.00s 
<S^2> =          2.006226592
 Alpha HF Exchange    Energy =  -6.92712523071257
 Beta HF Exchange     Energy =  -6.74444500961195
 DFT Correlation      Energy =  -2.69516339291979
 DFT Exchange         Energy = -54.20774734651151
 One-Electron (alpha) Energy = -860.55224748737714
 One-Electron (beta)  Energy = -835.11553263407700
 Total Coulomb        Energy = 630.90496527305538
 Nuclear repulsion Energy = 219.92849745744383
 SCF   energy in the final basis set =     -915.4087983707
 Total energy in the final basis set =     -915.4087983707
 
 --------------------------------------------------------------
 
                    Orbital Energies (a.u.)
 --------------------------------------------------------------
 
 Alpha MOs
 -- Occupied --
-88.911 -88.872 -10.223 -10.201 -10.200  -7.972  -7.935  -5.944
 -5.933  -5.924  -5.900  -5.896  -5.889  -0.811  -0.739  -0.738
 -0.646  -0.589  -0.481  -0.446  -0.417  -0.412  -0.401  -0.372
 -0.351  -0.326  -0.320  -0.273  -0.236  -0.214
 -- Virtual --
  0.029   0.031   0.073   0.105   0.130   0.138   0.150   0.162
  0.202   0.213   0.259   0.271   0.325   0.328   0.356   0.359
  0.375   0.390   0.391   0.495   0.523   0.526   0.573   0.579
  0.610   0.628   0.673   0.688   0.696   0.727   0.737   0.741
  0.743   0.747   0.767   0.837   0.847   0.863   0.873   0.883
  0.906   0.918   0.949   1.028   1.082   1.144   1.160   1.232
  1.324   1.424   1.512   1.521   1.674   1.684   1.811   1.860
  1.935   1.970   1.984   2.056   2.065   2.067   2.077   2.098
  2.113   2.206   2.213   2.240   2.338   2.340   2.420   2.478
  2.505   2.598   2.603   2.684   2.693   2.753   2.772   2.782
  2.846   2.871   3.204   3.269   3.367   3.374   3.454   3.541
  3.918   3.984   4.221   4.390   4.593
 
 Beta MOs
 -- Occupied --
-88.905 -88.872 -10.222 -10.201 -10.188  -7.967  -7.934  -5.930
 -5.926  -5.921  -5.899  -5.896  -5.889  -0.805  -0.727  -0.698
 -0.629  -0.579  -0.478  -0.443  -0.412  -0.399  -0.392  -0.365
 -0.349  -0.325  -0.258  -0.235
 -- Virtual --
 -0.178  -0.058   0.033   0.041   0.076   0.110   0.132   0.143
  0.157   0.164   0.206   0.217   0.268   0.285   0.333   0.357
  0.365   0.367   0.376   0.391   0.393   0.499   0.524   0.543
  0.581   0.603   0.628   0.637   0.691   0.715   0.735   0.742
  0.743   0.748   0.771   0.792   0.797   0.840   0.850   0.865
  0.875   0.889   0.910   0.921   0.957   1.037   1.092   1.146
  1.163   1.240   1.336   1.455   1.519   1.532   1.675   1.707
  1.820   1.864   1.939   1.989   2.025   2.060   2.062   2.068
  2.080   2.098   2.113   2.211   2.214   2.241   2.339   2.349
  2.437   2.486   2.519   2.604   2.614   2.691   2.695   2.754
  2.774   2.784   2.849   2.875   3.206   3.272   3.368   3.379
  3.460   3.544   3.937   3.985   4.237   4.409   4.595
 --------------------------------------------------------------
 
          Ground-State Mulliken Net Atomic Charges

     Atom                 Charge (a.u.)    Spin (a.u.)
  --------------------------------------------------------
      1 S                    -0.055887       0.021458
      2 S                    -0.074708       1.028476
      3 C                    -0.201097      -0.073562
      4 C                    -0.314547       0.045707
      5 C                    -0.226763       1.076180
      6 H                     0.121302       0.011248
      7 H                     0.127050       0.013450
      8 H                     0.136161      -0.000483
      9 H                     0.136957      -0.000636
     10 H                     0.108913      -0.047379
     11 H                     0.112579      -0.046938
     12 H                     0.056489       0.000060
     13 H                     0.073553      -0.027582
  --------------------------------------------------------
  Sum of atomic charges =    -0.000000
  Sum of spin   charges =     2.000000

 -----------------------------------------------------------------
                    Cartesian Multipole Moments
 -----------------------------------------------------------------
    Charge (ESU x 10^10)
                 0.0000
    Dipole Moment (Debye)
         X      -0.3986      Y      -1.3274      Z       0.7979
       Tot       1.5993
    Quadrupole Moments (Debye-Ang)
        XX     -49.1385     XY      -6.9524     YY     -46.7329
        XZ      -4.4814     YZ       2.7096     ZZ     -46.2788
    Octopole Moments (Debye-Ang^2)
       XXX      56.6871    XXY     -13.3821    XYY       5.7814
       YYY     -45.0410    XXZ      11.0422    XYZ      -9.4533
       YYZ       6.0713    XZZ       0.9791    YZZ     -15.1892
       ZZZ       1.0992
    Hexadecapole Moments (Debye-Ang^3)
      XXXX   -2663.6820   XXXY     101.7768   XXYY    -473.1545
      XYYY     232.2859   YYYY    -364.2714   XXXZ     -58.3894
      XXYZ      45.2252   XYYZ     -18.6340   YYYZ      11.4255
      XXZZ    -454.4759   XYZZ      66.1681   YYZZ     -67.7617
      XZZZ       8.1678   YZZZ       3.4039   ZZZZ     -83.4002
 -----------------------------------------------------------------
 Calculating analytic gradient of the SCF energy
 Gradient of SCF Energy
            1           2           3           4           5           6
    1  -0.0000710  -0.0000551   0.0017130   0.0001071  -0.0036580  -0.0000591
    2  -0.0000139  -0.0005460   0.0051981   0.0004143  -0.0014870  -0.0002141
    3  -0.0000034  -0.0014086  -0.0015968  -0.0007125  -0.0044908   0.0001624
            7           8           9          10          11          12
    1   0.0021008  -0.0000249  -0.0000007  -0.0008806   0.0007735  -0.0000230
    2  -0.0016321  -0.0000164  -0.0000158  -0.0024325   0.0002036  -0.0000073
    3   0.0015491   0.0000074   0.0000204   0.0047349   0.0002512   0.0000341
           13
    1   0.0000779
    2   0.0005491
    3   0.0014526
 Max gradient component =       5.198E-03
 RMS gradient           =       1.702E-03
 Gradient time:  CPU 9.58 s  wall 0.83 s
 Geometry Optimization Parameters
   NAtoms,    NIC,     NZ,  NCons,   NDum,   NFix, NCnnct, MaxDiis
       13     160       0       1       0       0       0       0

 Cartesian Hessian Update
 Hessian Updated using BFGS Update


** CONSTRAINED OPTIMIZATION IN DELOCALIZED INTERNAL COORDINATES **
   Searching for a Minimum

   Optimization Cycle:   3

                       Coordinates (Angstroms)
     ATOM                X               Y               Z
      1  S         3.0601091283    0.4782114715   -0.0482686665
      2  S        -4.5581415895    1.5169907052   -0.0552366947
      3  C         0.3322409712   -0.0253999237    0.1024550027
      4  C         1.6808607772   -0.7571553852   -0.0815958958
      5  C        -0.8213691055   -0.9861338312    0.0893405534
      6  H         0.3586739133    0.5229577991    1.0519103119
      7  H         0.2416443440    0.7118689410   -0.6993393418
      8  H         1.8296530545   -1.4840314360    0.7207984790
      9  H         1.6937979144   -1.2843046034   -1.0387697236
     10  H        -1.1207825316   -1.5000421846    1.0064909622
     11  H        -1.2330051994   -1.3406053171   -0.8490368154
     12  H         4.0652394389   -0.4000262439   -0.2335830518
     13  H        -4.4207221158    1.9712720082    1.2137278803
   Point Group: c1    Number of degrees of freedom:    33


   Energy is   -915.408798371

              Constraints and their Current Values
                                        Value     Constraint
   Distance(Angs):        2   5             4.500000     4.500000
 Hessian Updated using BFGS Update

 32 Hessian modes will be used to form the next step
  Hessian Eigenvalues:
     0.030036    0.040185    0.044996    0.045000    0.046921    0.047381
     0.056780    0.060605    0.062644    0.067453    0.071851    0.075590
     0.079410    0.085145    0.090821    0.107250    0.123719    0.142792
     0.159952    0.160271    0.220545    0.224008    0.238175    0.258248
     0.279584    0.280881    0.287466    0.319210    0.324494    0.340690
     0.344891    0.345013

 Minimum Search - Taking Simple RFO Step
 Searching for Lamda that Minimizes Along All modes
 Value Taken    Lamda =  -0.00025481
 Step Taken.  Stepsize is  0.047045

                             Maximum     Tolerance    Cnvgd?
         Gradient           0.003669      0.000300      NO
         Displacement       0.021323      0.001200      NO
         Energy change     -0.000331      0.000001      NO


 New Cartesian Coordinates Obtained by Inverse Iteration

 Displacement from previous Coordinates is:  0.044463
 ----------------------------------------------------------------
             Standard Nuclear Orientation (Angstroms)
    I     Atom           X                Y                Z
 ----------------------------------------------------------------
    1      S       3.0588496395     0.4776001824    -0.0488095049
    2      S      -4.5556245377     1.5168600504    -0.0512477882
    3      C       0.3299779379    -0.0283379782     0.1015214377
    4      C       1.6798606536    -0.7589113826    -0.0792265955
    5      C      -0.8165662725    -0.9831537677     0.0879564580
    6      H       0.3576206504     0.5223902166     1.0496888577
    7      H       0.2282941753     0.7110358657    -0.7024330369
    8      H       1.8279099682    -1.4828521627     0.7258222690
    9      H       1.6942177285    -1.2889828336    -1.0348021163
   10      H      -1.1142117774    -1.4942068195     0.9971935563
   11      H      -1.2310440745    -1.3373795112    -0.8503691629
   12      H       4.0654975543    -0.3995952117    -0.2311655965
   13      H      -4.4165826455     1.9691353520     1.2147642225
 ----------------------------------------------------------------
 Nuclear Repulsion Energy =   220.1098099603 hartrees
 There are       30 alpha and       28 beta electrons

                       Distance Matrix (Angstroms)
             S (  1)   S (  2)   C (  3)   C (  4)   C (  5)   H (  6)
   S (  2)  7.685069
   C (  3)  2.779445  5.126411
   C (  4)  1.852430  6.637861  1.545507
   C (  5)  4.143833  4.500000  1.492120  2.512047
   H (  6)  2.916392  5.132349  1.096853  2.159746  2.137828
   H (  7)  2.914406  4.894821  1.096976  2.157818  2.141665  1.766987
   H (  8)  2.441033  7.095888  2.179258  1.092755  2.765832  2.507516
   H (  9)  2.440331  6.921030  2.177523  1.092843  2.767337  3.068007
   H ( 10)  4.732503  4.691383  2.244256  3.083209  1.084657  2.497140
   H ( 11)  4.726504  4.454000  2.248661  3.066374  1.085229  3.097228
   H ( 12)  1.347615  8.833398  3.768636  2.417324  4.927162  4.029764
   H ( 13)  7.726796  1.351544  5.268685  6.803181  4.790180  4.991326
             H (  7)   H (  8)   H (  9)   H ( 10)   H ( 11)   H ( 12)
   H (  8)  3.067870
   H (  9)  2.501894  1.776304
   H ( 10)  3.090979  2.954632  3.472521
   H ( 11)  2.519436  3.444233  2.931470  1.857884
   H ( 12)  4.022403  2.663845  2.657030  5.434743  5.414444
   H ( 13)  5.180091  7.151851  7.281330  4.790379  5.034429  8.924533

 
 Applying Cartesian multipole field
    Component          Value
    ---------          -----
     (2,0,0)        1.00000E-11
     (0,2,0)        2.00000E-11
     (0,0,2)       -3.00000E-10
 Nucleus-field energy     =     0.0000000169 hartrees
 Requested basis set is 6-31G(d,p)
 There are 46 shells and 123 basis functions
 A cutoff of  1.0D-14 yielded    909 shell pairs
 There are      6485 function pairs
 Smallest overlap matrix eigenvalue = 5.82E-03
 Guess from superposition of atomic densities
 Warning:  Energy on first SCF cycle will be non-variational
 SAD guess density has 58.000000 electrons

 -----------------------------------------------------------------------
  General SCF calculation program by
  Eric Jon Sundstrom, Paul Horn, Yuezhi Mao, Dmitri Zuev, Alec White,
  David Stuck, Shaama M.S., Shane Yost, Joonho Lee, David Small,
  Daniel Levine, Susi Lehtola, Hugh Burton, Evgeny Epifanovsky
 -----------------------------------------------------------------------
 Exchange:     0.2000 Hartree-Fock + 0.0800 Slater + 0.7200 B88
 Correlation:  0.1900 VWN1RPA + 0.8100 LYP
 Using SG-1 standard quadrature grid
 using 12 threads for integral computing
 -------------------------------------------------------
 OpenMP Integral computing Module                
 Release: version 1.0, May 2013, Q-Chem Inc. Pittsburgh 
 -------------------------------------------------------
 -------------------------------------------------------
 OpenMP BLAS3 based DFT computing Module                
 Release: version 1.0, May 2013, Q-Chem Inc. Pittsburgh 
 -------------------------------------------------------
 A unrestricted SCF calculation will be
 performed using DIIS
 SCF converges when DIIS error is below 1.0e-06
 Alpha HF Exchange    Energy =  -6.82169686204370
 Beta HF Exchange     Energy =  -6.82169686204370
 DFT Correlation      Energy =  -2.69173232908212
 DFT Exchange         Energy = -53.80797652159595
 One-Electron (alpha) Energy = -846.07346798562958
 One-Electron (beta)  Energy = -846.07346798562958
 Total Coulomb        Energy = 626.40163462107648
 ---------------------------------------
  Cycle       Energy         DIIS error
 ---------------------------------------
    1    -915.7785939478      2.60e-02  
 Alpha HF Exchange    Energy =  -6.95238952860149
 Beta HF Exchange     Energy =  -6.76793710782154
 DFT Correlation      Energy =  -2.70976801833940
 DFT Exchange         Energy = -54.42387744293631
 One-Electron (alpha) Energy = -862.41169625558746
 One-Electron (beta)  Energy = -835.31065573345984
 Total Coulomb        Energy = 633.40977657068686
    2    -915.0567375389      3.87e-03  
 Alpha HF Exchange    Energy =  -6.92884985718514
 Beta HF Exchange     Energy =  -6.76268629218501
 DFT Correlation      Energy =  -2.70076822494511
 DFT Exchange         Energy = -54.29798971423645
 One-Electron (alpha) Energy = -861.20190424157227
 One-Electron (beta)  Energy = -836.76250147433393
 Total Coulomb        Energy = 639.91705672582111
    3    -908.6278331015      1.32e-02  
 Alpha HF Exchange    Energy =  -6.90706603166176
 Beta HF Exchange     Energy =  -6.72893368418672
 DFT Correlation      Energy =  -2.68770890697423
 DFT Exchange         Energy = -54.06076651365486
 One-Electron (alpha) Energy = -859.54607476014951
 One-Electron (beta)  Energy = -834.29293214059544
 Total Coulomb        Energy = 628.77563217713271
    4    -915.3380398829      2.79e-03  
 Alpha HF Exchange    Energy =  -6.92525251181342
 Beta HF Exchange     Energy =  -6.74514696406970
 DFT Correlation      Energy =  -2.69619587404896
 DFT Exchange         Energy = -54.20603483658633
 One-Electron (alpha) Energy = -860.73736017921635
 One-Electron (beta)  Energy = -835.38949369567331
 Total Coulomb        Energy = 631.19520670102111
    5    -915.3944673832      1.15e-03  
 Alpha HF Exchange    Energy =  -6.92533678712854
 Beta HF Exchange     Energy =  -6.74430696006024
 DFT Correlation      Energy =  -2.69526859980867
 DFT Exchange         Energy = -54.20057394058608
 One-Electron (alpha) Energy = -860.65036276897922
 One-Electron (beta)  Energy = -835.26487311815868
 Total Coulomb        Energy = 630.96736201124452
    6    -915.4035501863      6.37e-04  
 Alpha HF Exchange    Energy =  -6.92542791562190
 Beta HF Exchange     Energy =  -6.74418334493915
 DFT Correlation      Energy =  -2.69514238779889
 DFT Exchange         Energy = -54.19997738980400
 One-Electron (alpha) Energy = -860.66207360920259
 One-Electron (beta)  Energy = -835.25704805788916
 Total Coulomb        Energy = 630.96742846102154
    7    -915.4066142671      4.38e-04  
 Alpha HF Exchange    Energy =  -6.92717080670763
 Beta HF Exchange     Energy =  -6.74488943178399
 DFT Correlation      Energy =  -2.69547219072792
 DFT Exchange         Energy = -54.20940016531591
 One-Electron (alpha) Energy = -860.72005342668638
 One-Electron (beta)  Energy = -835.28084912480062
 Total Coulomb        Energy = 631.05947397112436
    8    -915.4085511977      1.75e-04  
 Alpha HF Exchange    Energy =  -6.92765187035731
 Beta HF Exchange     Energy =  -6.74502565825944
 DFT Correlation      Energy =  -2.69551058628029
 DFT Exchange         Energy = -54.21171336868061
 One-Electron (alpha) Energy = -860.73779613306476
 One-Electron (beta)  Energy = -835.28319701623332
 Total Coulomb        Energy = 631.08217877674804
    9    -915.4089058790      4.17e-05  
 Alpha HF Exchange    Energy =  -6.92770624104482
 Beta HF Exchange     Energy =  -6.74500849258316
 DFT Correlation      Energy =  -2.69552594365520
 DFT Exchange         Energy = -54.21187699566221
 One-Electron (alpha) Energy = -860.73967757308571
 One-Electron (beta)  Energy = -835.28302576513522
 Total Coulomb        Energy = 631.08408705507009
   10    -915.4089239789      1.53e-05  
 Alpha HF Exchange    Energy =  -6.92774360544237
 Beta HF Exchange     Energy =  -6.74499086137691
 DFT Correlation      Energy =  -2.69553233196869
 DFT Exchange         Energy = -54.21195888888440
 One-Electron (alpha) Energy = -860.73964143198850
 One-Electron (beta)  Energy = -835.28154954601030
 Total Coulomb        Energy = 631.08267993047616
   11    -915.4089267580      3.41e-06  
 Alpha HF Exchange    Energy =  -6.92775526946128
 Beta HF Exchange     Energy =  -6.74500374178706
 DFT Correlation      Energy =  -2.69553860318601
 DFT Exchange         Energy = -54.21206017753502
 One-Electron (alpha) Energy = -860.74089027129810
 One-Electron (beta)  Energy = -835.28278747294632
 Total Coulomb        Energy = 631.08529868770017
   12    -915.4089268714      8.53e-07  Convergence criterion met
 ---------------------------------------
 SCF time:   CPU 33.08s  wall 2.00s 
<S^2> =          2.006177997
 Alpha HF Exchange    Energy =  -6.92775526946128
 Beta HF Exchange     Energy =  -6.74500374178706
 DFT Correlation      Energy =  -2.69553860318601
 DFT Exchange         Energy = -54.21206017753502
 One-Electron (alpha) Energy = -860.74089027129810
 One-Electron (beta)  Energy = -835.28278747294632
 Total Coulomb        Energy = 631.08529868770017
 Nuclear repulsion Energy = 220.10980997716106
 SCF   energy in the final basis set =     -915.4089268714
 Total energy in the final basis set =     -915.4089268714
 
 --------------------------------------------------------------
 
                    Orbital Energies (a.u.)
 --------------------------------------------------------------
 
 Alpha MOs
 -- Occupied --
-88.911 -88.872 -10.223 -10.200 -10.200  -7.972  -7.935  -5.943
 -5.933  -5.924  -5.899  -5.896  -5.889  -0.812  -0.740  -0.738
 -0.646  -0.589  -0.482  -0.447  -0.418  -0.413  -0.402  -0.373
 -0.351  -0.326  -0.320  -0.273  -0.236  -0.213
 -- Virtual --
  0.029   0.032   0.073   0.106   0.130   0.139   0.150   0.162
  0.202   0.214   0.262   0.271   0.325   0.328   0.356   0.359
  0.375   0.390   0.391   0.495   0.523   0.526   0.573   0.579
  0.609   0.631   0.674   0.688   0.696   0.727   0.737   0.741
  0.743   0.746   0.767   0.838   0.847   0.862   0.874   0.884
  0.907   0.916   0.949   1.029   1.085   1.144   1.161   1.234
  1.324   1.424   1.516   1.521   1.673   1.683   1.815   1.864
  1.939   1.974   1.986   2.057   2.066   2.066   2.077   2.098
  2.111   2.207   2.213   2.240   2.338   2.342   2.424   2.480
  2.508   2.601   2.603   2.688   2.699   2.753   2.774   2.785
  2.845   2.877   3.204   3.272   3.366   3.378   3.462   3.542
  3.918   3.984   4.223   4.391   4.593
 
 Beta MOs
 -- Occupied --
-88.905 -88.872 -10.222 -10.201 -10.186  -7.967  -7.934  -5.930
 -5.926  -5.921  -5.899  -5.896  -5.889  -0.806  -0.728  -0.698
 -0.630  -0.579  -0.478  -0.443  -0.412  -0.399  -0.392  -0.365
 -0.348  -0.325  -0.258  -0.235
 -- Virtual --
 -0.178  -0.058   0.033   0.042   0.076   0.110   0.131   0.142
  0.158   0.163   0.206   0.218   0.271   0.285   0.332   0.357
  0.365   0.367   0.376   0.391   0.393   0.499   0.525   0.542
  0.581   0.604   0.629   0.639   0.691   0.715   0.735   0.742
  0.743   0.748   0.770   0.791   0.797   0.841   0.849   0.864
  0.876   0.890   0.911   0.919   0.958   1.038   1.095   1.146
  1.164   1.241   1.336   1.456   1.522   1.532   1.674   1.707
  1.824   1.868   1.943   1.990   2.029   2.061   2.063   2.067
  2.080   2.098   2.111   2.212   2.215   2.241   2.340   2.350
  2.441   2.488   2.522   2.604   2.618   2.695   2.701   2.754
  2.776   2.787   2.848   2.881   3.206   3.275   3.368   3.382
  3.468   3.545   3.937   3.985   4.239   4.410   4.596
 --------------------------------------------------------------
 
          Ground-State Mulliken Net Atomic Charges

     Atom                 Charge (a.u.)    Spin (a.u.)
  --------------------------------------------------------
      1 S                    -0.055899       0.021786
      2 S                    -0.074703       1.028346
      3 C                    -0.200901      -0.073786
      4 C                    -0.314301       0.046939
      5 C                    -0.226096       1.073518
      6 H                     0.121131       0.011767
      7 H                     0.126319       0.013838
      8 H                     0.136263      -0.000503
      9 H                     0.137033      -0.000652
     10 H                     0.109195      -0.046964
     11 H                     0.112029      -0.046917
     12 H                     0.056379       0.000084
     13 H                     0.073550      -0.027456
  --------------------------------------------------------
  Sum of atomic charges =    -0.000000
  Sum of spin   charges =     2.000000

 -----------------------------------------------------------------
                    Cartesian Multipole Moments
 -----------------------------------------------------------------
    Charge (ESU x 10^10)
                -0.0000
    Dipole Moment (Debye)
         X      -0.4010      Y      -1.3294      Z       0.8071
       Tot       1.6061
    Quadrupole Moments (Debye-Ang)
        XX     -49.1483     XY      -6.9761     YY     -46.7121
        XZ      -4.4558     YZ       2.7016     ZZ     -46.2778
    Octopole Moments (Debye-Ang^2)
       XXX      56.8784    XXY     -13.3671    XYY       5.6859
       YYY     -44.9438    XXZ      11.0319    XYZ      -9.4550
       YYZ       6.0128    XZZ       0.9265    YZZ     -15.1542
       ZZZ       1.0170
    Hexadecapole Moments (Debye-Ang^3)
      XXXX   -2662.4207   XXXY     102.1784   XXYY    -472.1676
      XYYY     231.9871   YYYY    -363.5712   XXXZ     -57.4585
      XXYZ      44.9696   XYYZ     -18.3699   YYYZ      11.1405
      XXZZ    -453.8824   XYZZ      66.1051   YYZZ     -67.6658
      XZZZ       8.7217   YZZZ       3.1716   ZZZZ     -83.2632
 -----------------------------------------------------------------
 Calculating analytic gradient of the SCF energy
 Gradient of SCF Energy
            1           2           3           4           5           6
    1   0.0000674   0.0001095  -0.0004911  -0.0001712  -0.0011357   0.0000151
    2  -0.0000060   0.0000108   0.0003523  -0.0001450  -0.0002250  -0.0002334
    3  -0.0000251   0.0001437   0.0001625   0.0000875   0.0000906   0.0000600
            7           8           9          10          11          12
    1   0.0003534   0.0000393  -0.0000247   0.0008398   0.0004338   0.0000523
    2  -0.0000502  -0.0000031   0.0000286   0.0003533  -0.0001228   0.0000491
    3  -0.0000945  -0.0000418  -0.0000279  -0.0000947  -0.0001773   0.0000174
           13
    1  -0.0000880
    2  -0.0000086
    3  -0.0001003
 Max gradient component =       1.136E-03
 RMS gradient           =       2.835E-04
 Gradient time:  CPU 9.51 s  wall 0.87 s
 Geometry Optimization Parameters
   NAtoms,    NIC,     NZ,  NCons,   NDum,   NFix, NCnnct, MaxDiis
       13     160       0       1       0       0       0       0

 Cartesian Hessian Update
 Hessian Updated using BFGS Update


** CONSTRAINED OPTIMIZATION IN DELOCALIZED INTERNAL COORDINATES **
   Searching for a Minimum

   Optimization Cycle:   4

                       Coordinates (Angstroms)
     ATOM                X               Y               Z
      1  S         3.0588496395    0.4776001824   -0.0488095049
      2  S        -4.5556245377    1.5168600504   -0.0512477882
      3  C         0.3299779379   -0.0283379782    0.1015214377
      4  C         1.6798606536   -0.7589113826   -0.0792265955
      5  C        -0.8165662725   -0.9831537677    0.0879564580
      6  H         0.3576206504    0.5223902166    1.0496888577
      7  H         0.2282941753    0.7110358657   -0.7024330369
      8  H         1.8279099682   -1.4828521627    0.7258222690
      9  H         1.6942177285   -1.2889828336   -1.0348021163
     10  H        -1.1142117774   -1.4942068195    0.9971935563
     11  H        -1.2310440745   -1.3373795112   -0.8503691629
     12  H         4.0654975543   -0.3995952117   -0.2311655965
     13  H        -4.4165826455    1.9691353520    1.2147642225
   Point Group: c1    Number of degrees of freedom:    33


   Energy is   -915.408926871

              Constraints and their Current Values
                                        Value     Constraint
   Distance(Angs):        2   5             4.500000     4.500000
 Hessian Updated using BFGS Update

 32 Hessian modes will be used to form the next step
  Hessian Eigenvalues:
     0.028925    0.039430    0.044986    0.045000    0.046650    0.047009
     0.056827    0.060232    0.061692    0.067307    0.071708    0.074782
     0.079383    0.085146    0.090719    0.105651    0.123721    0.142744
     0.159574    0.160344    0.221045    0.224404    0.239068    0.258256
     0.280654    0.285353    0.300072    0.324131    0.332929    0.343203
     0.344891    0.345125

 Minimum Search - Taking Simple RFO Step
 Searching for Lamda that Minimizes Along All modes
 Value Taken    Lamda =  -0.00000729
 Step Taken.  Stepsize is  0.011441

                             Maximum     Tolerance    Cnvgd?
         Gradient           0.000326      0.000300      NO
         Displacement       0.006179      0.001200      NO
         Energy change     -0.000129      0.000001      NO


 New Cartesian Coordinates Obtained by Inverse Iteration

 Displacement from previous Coordinates is:  0.011654
 ----------------------------------------------------------------
             Standard Nuclear Orientation (Angstroms)
    I     Atom           X                Y                Z
 ----------------------------------------------------------------
    1      S       3.0579758244     0.4791179847    -0.0490523033
    2      S      -4.5542225470     1.5183399342    -0.0513403371
    3      C       0.3300940856    -0.0297287045     0.1014827696
    4      C       1.6807063290    -0.7589508824    -0.0791401105
    5      C      -0.8167555399    -0.9840491396     0.0879181160
    6      H       0.3578590597     0.5220035985     1.0491754733
    7      H       0.2264287159     0.7098270474    -0.7023470344
    8      H       1.8292790333    -1.4822120408     0.7264678094
    9      H       1.6959242839    -1.2896323813    -1.0343407654
   10      H      -1.1165899929    -1.4956567747     0.9965201866
   11      H      -1.2322181514    -1.3371554591    -0.8504538397
   12      H       4.0648198629    -0.3978785538    -0.2310994948
   13      H      -4.4151019635     1.9695773714     1.2151025302
 ----------------------------------------------------------------
 Nuclear Repulsion Energy =   220.1159470061 hartrees
 There are       30 alpha and       28 beta electrons

                       Distance Matrix (Angstroms)
             S (  1)   S (  2)   C (  3)   C (  4)   C (  5)   H (  6)
   S (  2)  7.682809
   C (  3)  2.779015  5.126053
[...]
   C (  4)  1.852025  6.630518  1.545377
   C (  5)  4.144799  4.500000  1.491986  2.514649
   H (  6)  2.914381  5.125432  1.097015  2.159541  2.138858
   H (  7)  2.916102  4.873913  1.097072  2.158970  2.138238  1.766257
   H (  8)  2.440928  7.094770  2.178257  1.092789  2.768848  2.506938
   H (  9)  2.440234  6.913753  2.177837  1.092788  2.770266  3.068158
   H ( 10)  4.750558  4.672966  2.251102  3.105547  1.085116  2.502510
   H ( 11)  4.738146  4.421340  2.249959  3.085022  1.085096  3.094508
   H ( 12)  1.347576  8.818449  3.767466  2.416075  4.928404  4.028459
   H ( 13)  7.699663  1.351766  5.249579  6.785395  4.778903  4.972763
             H (  7)   H (  8)   H (  9)   H ( 10)   H ( 11)   H ( 12)
   H (  8)  3.068128
   H (  9)  2.503492  1.776306
   H ( 10)  3.088882  2.983344  3.494734
   H ( 11)  2.509620  3.467219  2.956514  1.856464
   H ( 12)  4.022791  2.664422  2.654530  5.458590  5.432416
   H ( 13)  5.150105  7.139753  7.264223  4.760465  4.993408  8.900250

 
 Applying Cartesian multipole field
    Component          Value
    ---------          -----
     (2,0,0)        1.00000E-11
     (0,2,0)        2.00000E-11
     (0,0,2)       -3.00000E-10
 Nucleus-field energy     =     0.0000000168 hartrees
 Requested basis set is 6-31G(d,p)
 There are 46 shells and 123 basis functions
 A cutoff of  1.0D-14 yielded    910 shell pairs
 There are      6486 function pairs
 Smallest overlap matrix eigenvalue = 5.81E-03
 Guess from superposition of atomic densities
 Warning:  Energy on first SCF cycle will be non-variational
 SAD guess density has 58.000000 electrons

 -----------------------------------------------------------------------
  General SCF calculation program by
  Eric Jon Sundstrom, Paul Horn, Yuezhi Mao, Dmitri Zuev, Alec White,
  David Stuck, Shaama M.S., Shane Yost, Joonho Lee, David Small,
  Daniel Levine, Susi Lehtola, Hugh Burton, Evgeny Epifanovsky
 -----------------------------------------------------------------------
 Exchange:     0.2000 Hartree-Fock + 0.0800 Slater + 0.7200 B88
 Correlation:  0.1900 VWN1RPA + 0.8100 LYP
 Using SG-1 standard quadrature grid
 using 12 threads for integral computing
 -------------------------------------------------------
 OpenMP Integral computing Module                
 Release: version 1.0, May 2013, Q-Chem Inc. Pittsburgh 
 -------------------------------------------------------
 -------------------------------------------------------
 OpenMP BLAS3 based DFT computing Module                
 Release: version 1.0, May 2013, Q-Chem Inc. Pittsburgh 
 -------------------------------------------------------
 A unrestricted SCF calculation will be
 performed using DIIS
 SCF converges when DIIS error is below 1.0e-06
 Alpha HF Exchange    Energy =  -6.82165601953252
 Beta HF Exchange     Energy =  -6.82165601953252
 DFT Correlation      Energy =  -2.69170702863897
 DFT Exchange         Energy = -53.80792735525635
 One-Electron (alpha) Energy = -846.14744411423192
 One-Electron (beta)  Energy = -846.14744411423192
 Total Coulomb        Energy = 626.47571364251439
 ---------------------------------------
  Cycle       Energy         DIIS error
 ---------------------------------------
    1    -915.7784947960      2.60e-02  
 Alpha HF Exchange    Energy =  -6.95233489413229
 Beta HF Exchange     Energy =  -6.76796951562148
 DFT Correlation      Energy =  -2.70977225847502
 DFT Exchange         Energy = -54.42376574068581
 One-Electron (alpha) Energy = -862.48630299232263
 One-Electron (beta)  Energy = -835.38797514858072
 Total Coulomb        Energy = 633.48709371862230
    2    -915.0574006183      3.86e-03  
 Alpha HF Exchange    Energy =  -6.92877882896130
 Beta HF Exchange     Energy =  -6.76267617467708
 DFT Correlation      Energy =  -2.70078147497992
 DFT Exchange         Energy = -54.29768383501521
 One-Electron (alpha) Energy = -861.26847935553224
 One-Electron (beta)  Energy = -836.82515338732230
 Total Coulomb        Energy = 639.97032917854187
    3    -908.6295976650      1.32e-02  
 Alpha HF Exchange    Energy =  -6.90697622302007
 Beta HF Exchange     Energy =  -6.72894890473731
 DFT Correlation      Energy =  -2.68771522583019
 DFT Exchange         Energy = -54.06048788266777
 One-Electron (alpha) Energy = -859.62027228056627
 One-Electron (beta)  Energy = -834.36647385210676
 Total Coulomb        Energy = 628.84919424785812
    4    -915.3380539081      2.79e-03  
 Alpha HF Exchange    Energy =  -6.92517617660651
 Beta HF Exchange     Energy =  -6.74515428894046
 DFT Correlation      Energy =  -2.69621314633065
 DFT Exchange         Energy = -54.20577332181488
 One-Electron (alpha) Energy = -860.81195065751012
 One-Electron (beta)  Energy = -835.46232088493264
 Total Coulomb        Energy = 631.26844954026171
    5    -915.3945127229      1.15e-03  
 Alpha HF Exchange    Energy =  -6.92525921457070
 Beta HF Exchange     Energy =  -6.74432116304315
 DFT Correlation      Energy =  -2.69528432636524
 DFT Exchange         Energy = -54.20034222949906
 One-Electron (alpha) Energy = -860.72533511367737
 One-Electron (beta)  Energy = -835.33794201040087
 Total Coulomb        Energy = 631.04127432740495
    6    -915.4035835172      6.37e-04  
 Alpha HF Exchange    Energy =  -6.92534929806302
 Beta HF Exchange     Energy =  -6.74419562788860
 DFT Correlation      Energy =  -2.69515624899651
 DFT Exchange         Energy = -54.19973836371211
 One-Electron (alpha) Energy = -860.73694960275634
 One-Electron (beta)  Energy = -835.32981590983525
 Total Coulomb        Energy = 631.04093276702611
    7    -915.4066460713      4.38e-04  
 Alpha HF Exchange    Energy =  -6.92709588217380
 Beta HF Exchange     Energy =  -6.74490090139894
 DFT Correlation      Energy =  -2.69548419125716
 DFT Exchange         Energy = -54.20917603971549
 One-Electron (alpha) Energy = -860.79507392960681
 One-Electron (beta)  Energy = -835.35334588611136
 Total Coulomb        Energy = 631.13287030020342
    8    -915.4085803171      1.76e-04  
 Alpha HF Exchange    Energy =  -6.92757977967202
 Beta HF Exchange     Energy =  -6.74503819754470
 DFT Correlation      Energy =  -2.69552160653155
 DFT Exchange         Energy = -54.21150555560037
 One-Electron (alpha) Energy = -860.81298353017530
 One-Electron (beta)  Energy = -835.35567295429962
 Total Coulomb        Energy = 631.15573947238033
    9    -915.4089359385      4.18e-05  
 Alpha HF Exchange    Energy =  -6.92763443522654
 Beta HF Exchange     Energy =  -6.74502007792110
 DFT Correlation      Energy =  -2.69553634248537
 DFT Exchange         Energy = -54.21166640661619
 One-Electron (alpha) Energy = -860.81482124431636
 One-Electron (beta)  Energy = -835.35540451786494
 Total Coulomb        Energy = 631.15750273372635
   10    -915.4089540778      1.52e-05  
 Alpha HF Exchange    Energy =  -6.92767232157134
 Beta HF Exchange     Energy =  -6.74500255810116
 DFT Correlation      Energy =  -2.69554255266207
 DFT Exchange         Energy = -54.21175056287156
 One-Electron (alpha) Energy = -860.81480628581778
 One-Electron (beta)  Energy = -835.35392957434158
 Total Coulomb        Energy = 631.15612079832329
   11    -915.4089568441      3.40e-06  
 Alpha HF Exchange    Energy =  -6.92768389418005
 Beta HF Exchange     Energy =  -6.74501542910247
 DFT Correlation      Energy =  -2.69554875911223
 DFT Exchange         Energy = -54.21185145214075
 One-Electron (alpha) Energy = -860.81605171993760
 One-Electron (beta)  Energy = -835.35516716752898
 Total Coulomb        Energy = 631.15873525280267
   12    -915.4089569563      8.56e-07  Convergence criterion met
 ---------------------------------------
 SCF time:   CPU 33.00s  wall 3.00s 
<S^2> =          2.006217338
 Alpha HF Exchange    Energy =  -6.92768389418005
 Beta HF Exchange     Energy =  -6.74501542910247
 DFT Correlation      Energy =  -2.69554875911223
 DFT Exchange         Energy = -54.21185145214075
 One-Electron (alpha) Energy = -860.81605171993760
 One-Electron (beta)  Energy = -835.35516716752898
 Total Coulomb        Energy = 631.15873525280267
 Nuclear repulsion Energy = 220.18362621293446
 SCF   energy in the final basis set =     -915.4089569563
 Total energy in the final basis set =     -915.4089569563
 
 --------------------------------------------------------------
 
                    Orbital Energies (a.u.)
 --------------------------------------------------------------
 
 Alpha MOs
 -- Occupied --
-88.911 -88.872 -10.223 -10.200 -10.200  -7.972  -7.934  -5.944
 -5.934  -5.924  -5.899  -5.896  -5.889  -0.812  -0.739  -0.738
 -0.646  -0.589  -0.482  -0.447  -0.418  -0.413  -0.402  -0.373
 -0.350  -0.326  -0.321  -0.273  -0.235  -0.213
 -- Virtual --
  0.029   0.031   0.073   0.106   0.130   0.138   0.150   0.161
  0.202   0.216   0.262   0.271   0.325   0.327   0.356   0.359
  0.375   0.390   0.391   0.495   0.523   0.527   0.574   0.580
  0.610   0.631   0.673   0.688   0.696   0.727   0.737   0.741
  0.743   0.747   0.770   0.836   0.847   0.862   0.873   0.883
  0.907   0.916   0.949   1.028   1.084   1.144   1.165   1.232
  1.324   1.430   1.510   1.518   1.673   1.683   1.815   1.864
  1.939   1.969   1.991   2.057   2.065   2.066   2.076   2.098
  2.113   2.206   2.212   2.240   2.340   2.341   2.426   2.482
  2.515   2.594   2.602   2.684   2.698   2.753   2.774   2.783
  2.847   2.882   3.204   3.271   3.368   3.376   3.460   3.545
  3.918   3.985   4.223   4.391   4.594
 
 Beta MOs
 -- Occupied --
-88.905 -88.872 -10.222 -10.201 -10.186  -7.967  -7.934  -5.930
 -5.926  -5.921  -5.899  -5.896  -5.889  -0.806  -0.728  -0.698
 -0.630  -0.578  -0.478  -0.444  -0.412  -0.399  -0.392  -0.365
 -0.348  -0.325  -0.259  -0.235
 -- Virtual --
 -0.178  -0.057   0.033   0.042   0.077   0.111   0.131   0.142
  0.158   0.163   0.206   0.219   0.271   0.285   0.332   0.358
  0.364   0.367   0.376   0.391   0.392   0.499   0.524   0.544
  0.582   0.603   0.629   0.639   0.691   0.715   0.734   0.742
  0.743   0.748   0.774   0.791   0.797   0.839   0.850   0.863
  0.875   0.889   0.911   0.919   0.958   1.037   1.094   1.146
  1.167   1.240   1.336   1.466   1.519   1.524   1.674   1.707
  1.824   1.869   1.942   1.984   2.035   2.060   2.062   2.067
  2.079   2.098   2.113   2.212   2.214   2.240   2.342   2.349
  2.443   2.490   2.529   2.604   2.610   2.691   2.700   2.754
  2.775   2.785   2.850   2.886   3.206   3.274   3.369   3.381
  3.465   3.548   3.937   3.985   4.239   4.410   4.596
 --------------------------------------------------------------
 
          Ground-State Mulliken Net Atomic Charges

     Atom                 Charge (a.u.)    Spin (a.u.)
  --------------------------------------------------------
      1 S                    -0.055944       0.021341
      2 S                    -0.074783       1.028328
      3 C                    -0.200620      -0.074266
      4 C                    -0.314027       0.046754
      5 C                    -0.227606       1.075108
      6 H                     0.121092       0.012217
      7 H                     0.126338       0.014069
      8 H                     0.136440      -0.000440
      9 H                     0.137127      -0.000606
     10 H                     0.109523      -0.047533
     11 H                     0.112426      -0.047502
     12 H                     0.056394      -0.000006
     13 H                     0.073640      -0.027464
  --------------------------------------------------------
  Sum of atomic charges =    -0.000000
  Sum of spin   charges =     2.000000

 -----------------------------------------------------------------
                    Cartesian Multipole Moments
 -----------------------------------------------------------------
    Charge (ESU x 10^10)
                 0.0000
    Dipole Moment (Debye)
         X      -0.4166      Y      -1.3138      Z       0.8059
       Tot       1.5966
    Quadrupole Moments (Debye-Ang)
        XX     -49.0753     XY      -6.9271     YY     -46.8085
        XZ      -4.4769     YZ       2.6900     ZZ     -46.2889
    Octopole Moments (Debye-Ang^2)
       XXX      57.0319    XXY     -13.6100    XYY       5.5047
       YYY     -44.9571    XXZ      10.8421    XYZ      -9.3333
       YYZ       6.1098    XZZ       0.8754    YZZ     -15.2435
       ZZZ       1.2187
    Hexadecapole Moments (Debye-Ang^3)
      XXXX   -2654.2209   XXXY     103.0555   XXYY    -470.9431
      XYYY     230.3525   YYYY    -365.5381   XXXZ     -58.8764
      XXYZ      44.5400   XYYZ     -18.6867   YYYZ      11.7864
      XXZZ    -452.2314   XYZZ      65.7668   YYZZ     -68.1188
      XZZZ       7.3010   YZZZ       3.8155   ZZZZ     -83.3427
 -----------------------------------------------------------------
 Calculating analytic gradient of the SCF energy
 Gradient of SCF Energy
            1           2           3           4           5           6
    1   0.0000139   0.0000890  -0.0002443   0.0000418   0.0000929   0.0000484
    2   0.0000080  -0.0000174   0.0002234  -0.0000515  -0.0001543  -0.0000569
    3   0.0000118   0.0000368   0.0001437  -0.0000141  -0.0001026   0.0000162
            7           8           9          10          11          12
    1   0.0000120  -0.0000063   0.0000110  -0.0000082   0.0000186   0.0000031
    2  -0.0000520   0.0000142   0.0000228   0.0000383  -0.0000103   0.0000168
    3  -0.0000853   0.0000049  -0.0000032   0.0000030  -0.0000179  -0.0000019
           13
    1  -0.0000719
    2   0.0000189
    3   0.0000084
 Max gradient component =       2.443E-04
 RMS gradient           =       7.388E-05
 Gradient time:  CPU 9.75 s  wall 0.86 s
 Geometry Optimization Parameters
   NAtoms,    NIC,     NZ,  NCons,   NDum,   NFix, NCnnct, MaxDiis
       13     160       0       1       0       0       0       0

 Cartesian Hessian Update
 Hessian Updated using BFGS Update


** CONSTRAINED OPTIMIZATION IN DELOCALIZED INTERNAL COORDINATES **
   Searching for a Minimum

   Optimization Cycle:  12

                       Coordinates (Angstroms)
     ATOM                X               Y               Z
      1  S         3.0546522679    0.4860960029   -0.0489593765
      2  S        -4.5432132569    1.5196887653   -0.0601408464
      3  C         0.3297889550   -0.0367464928    0.1060338840
      4  C         1.6835753054   -0.7585788331   -0.0794686354
      5  C        -0.8141388688   -0.9944728412    0.0915141826
      6  H         0.3573852210    0.5138126594    1.0544881808
      7  H         0.2195946424    0.7034832728   -0.6961407959
      8  H         1.8368097178   -1.4829360369    0.7242808501
      9  H         1.6993936847   -1.2870625678   -1.0358367380
     10  H        -1.1337781612   -1.4951608560    0.9995994685
     11  H        -1.2507341648   -1.3248333109   -0.8453314695
     12  H         4.0652547383   -0.3848897648   -0.2387713684
     13  H        -4.3963910807    1.9652020032    1.2076256640
   Point Group: c1    Number of degrees of freedom:    33


   Energy is   -915.408956956

              Constraints and their Current Values
                                        Value     Constraint
   Distance(Angs):        2   5             4.500000     4.500000
 Hessian Updated using BFGS Update

 32 Hessian modes will be used to form the next step
  Hessian Eigenvalues:
     0.001881    0.010917    0.037501    0.038375    0.045001    0.045288
     0.045344    0.048001    0.054461    0.063813    0.067649    0.072054
     0.079498    0.085277    0.090171    0.108503    0.123889    0.143342
     0.154582    0.174917    0.223054    0.235672    0.237740    0.258307
     0.281506    0.282743    0.299246    0.320563    0.333399    0.340359
     0.344972    0.345212

 Minimum Search - Taking Simple RFO Step
 Searching for Lamda that Minimizes Along All modes
 Value Taken    Lamda =   0.00000000
 Step Taken.  Stepsize is  0.007412

                             Maximum     Tolerance    Cnvgd?
         Gradient           0.000083      0.000300     YES
         Displacement       0.004471      0.001200      NO
         Energy change     -0.000001      0.000001     YES


                       Distance Matrix (Angstroms)
             S (  1)   S (  2)   C (  3)   C (  4)   C (  5)   H (  6)
   S (  2)  7.667855
   C (  3)  2.778897  5.118228
   C (  4)  1.852025  6.630518  1.545377
   C (  5)  4.144799  4.500000  1.491986  2.514649
   H (  6)  2.914381  5.125432  1.097015  2.159541  2.138858
   H (  7)  2.916102  4.873913  1.097072  2.158970  2.138238  1.766257
   H (  8)  2.440928  7.094770  2.178257  1.092789  2.768848  2.506938
   H (  9)  2.440234  6.913753  2.177837  1.092788  2.770266  3.068158
   H ( 10)  4.750558  4.672966  2.251102  3.105547  1.085116  2.502510
   H ( 11)  4.738146  4.421340  2.249959  3.085022  1.085096  3.094508
   H ( 12)  1.347576  8.818449  3.767466  2.416075  4.928404  4.028459
   H ( 13)  7.699663  1.351766  5.249579  6.785395  4.778903  4.972763
             H (  7)   H (  8)   H (  9)   H ( 10)   H ( 11)   H ( 12)
   H (  8)  3.068128
   H (  9)  2.503492  1.776306
   H ( 10)  3.088882  2.983344  3.494734
   H ( 11)  2.509620  3.467219  2.956514  1.856464
   H ( 12)  4.022791  2.664422  2.654530  5.458590  5.432416
   H ( 13)  5.150105  7.139753  7.264223  4.760465  4.993408  8.900250

 
 Final energy is   -915.408956956265     


 ******************************
 **  OPTIMIZATION CONVERGED  **
 ******************************

                       Coordinates (Angstroms)
     ATOM                X               Y               Z
      1  S         3.0546522679    0.4860960029   -0.0489593765
      2  S        -4.5432132569    1.5196887653   -0.0601408464
      3  C         0.3297889550   -0.0367464928    0.1060338840
      4  C         1.6835753054   -0.7585788331   -0.0794686354
      5  C        -0.8141388688   -0.9944728412    0.0915141826
      6  H         0.3573852210    0.5138126594    1.0544881808
      7  H         0.2195946424    0.7034832728   -0.6961407959
      8  H         1.8368097178   -1.4829360369    0.7242808501
      9  H         1.6993936847   -1.2870625678   -1.0358367380
     10  H        -1.1337781612   -1.4951608560    0.9995994685
     11  H        -1.2507341648   -1.3248333109   -0.8453314695
     12  H         4.0652547383   -0.3848897648   -0.2387713684
     13  H        -4.3963910807    1.9652020032    1.2076256640

Z-matrix Print:
$molecule
0 3
S 
H  1 1.347576
C  1 1.852025 2 96.805143
H  3 1.092788 1 109.190906 2 -58.810105 0
H  3 1.092789 1 109.241583 2 59.979430 0
C  3 1.545377 1 109.429040 2 -179.379522 0
H  6 1.097015 3 108.431064 1 -57.908323 0
H  6 1.097072 3 108.383890 1 58.171470 0
C  6 1.491986 3 111.756299 1 -179.917618 0
H  9 1.085096 6 120.818976 3 -84.007507 0
H  9 1.085116 6 120.923492 3 86.582093 0
S  10 4.421340 9 87.158406 6 -102.226197 0
H  12 1.351766 10 107.320145 9 -9.995607 0
$end

PES scan, value:    4.5000 energy: -915.4089569563
------- Summary of potential scan: ------ 
    4.5000      -915.4089569563
----------------------------------------- 
Archival summary:
1\1\hpc0250\JobtypUnspecified\ProcedureUnspecified\6-31G**\238(3)\knomura\ThuMar1408:20:432019ThuMar1408:20:432019\0\\#,JobtypUnspecified,ProcedureUnspecified,6-31G**,\\0,3\S\H,1,1.34758\C,1,1.85203,2,96.8051\H,3,1.09279,1,109.191,2,-58.8101,0\H,3,1.09279,1,109.242,2,59.9794,0\C,3,1.54538,1,109.429,2,-179.38,0\H,6,1.09702,3,108.431,1,-57.9083,0\H,6,1.09707,3,108.384,1,58.1715,0\C,6,1.49199,3,111.756,1,-179.918,0\H,9,1.0851,6,120.819,3,-84.0075,0\H,9,1.08512,6,120.923,3,86.5821,0\S,10,4.42134,9,87.1584,6,-102.226,0\H,12,1.35177,10,107.32,9,-9.99561,0\\\@

 Total job time:  54.70s(wall), 574.91s(cpu) 
 Thu Mar 14 08:20:43 2019

        *************************************************************
        *                                                           *
        *  Thank you very much for using Q-Chem.  Have a nice day.  *
        *                                                           *
        *************************************************************


