
Running Job 1 of 1 thiol/04/C-S.xyz.data/inputs/bond_triplet_3.4.in
qchem thiol/04/C-S.xyz.data/inputs/bond_triplet_3.4.in_8498.0 /staging/scratch/2868767/qchem8498/ 1
/usr/usc/qchem/5.1.1/exe/qcprog.exe_s thiol/04/C-S.xyz.data/inputs/bond_triplet_3.4.in_8498.0 /staging/scratch/2868767/qchem8498/
Check license passed

                  Welcome to Q-Chem
     A Quantum Leap Into The Future Of Chemistry


 Q-Chem 5.1, Q-Chem, Inc., Pleasanton, CA (2018)

 Yihan Shao,  Zhengting Gan,  E. Epifanovsky,  A. T. B. Gilbert,  M. Wormit,  
 J. Kussmann,  A. W. Lange,  A. Behn,  Jia Deng,  Xintian Feng,  D. Ghosh,  
 M. Goldey,  P. R. Horn,  L. D. Jacobson,  I. Kaliman,  T. Kus,  A. Landau,  
 Jie Liu,  E. I. Proynov,  R. M. Richard,  R. P. Steele,  E. J. Sundstrom,  
 H. L. Woodcock III,  P. M. Zimmerman,  D. Zuev,  B. Albrecht,  E. Alguire,  
 S. A. Baeppler,  D. Barton,  Z. Benda,  Y. A. Bernard,  E. J. Berquist,  
 K. B. Bravaya,  H. Burton,  D. Casanova,  Chun-Min Chang,  Yunqing Chen,  
 A. Chien,  K. D. Closser,  M. P. Coons,  S. Coriani,  S. Dasgupta,  
 A. L. Dempwolff,  M. Diedenhofen,  Hainam Do,  R. G. Edgar,  Po-Tung Fang,  
 S. Faraji,  S. Fatehi,  Qingguo Feng,  K. D. Fenk,  J. Fosso-Tande,  
 Qinghui Ge,  A. Ghysels,  G. Gidofalvi,  J. Gomes,  J. Gonthier,  A. Gunina,  
 D. Hait,  M. W. D. Hanson-Heine,  P. H. P. Harbach,  A. W. Hauser,  
 J. E. Herr,  E. G. Hohenstein,  Z. C. Holden,  Kerwin Hui,  B. C. Huynh,  
 T.-C. Jagau,  Hyunjun Ji,  B. Kaduk,  K. Khistyaev,  Jaehoon Kim,  
 P. Klunzinger,  K. Koh,  D. Kosenkov,  L. Koulias,  T. Kowalczyk,  
 C. M. Krauter,  A. Kunitsa,  Ka Un Lao,  A. Laurent,  K. V. Lawler,  
 Joonho Lee,  D. Lefrancois,  S. Lehtola,  D. S. Levine,  Yi-Pei Li,  
 You-Sheng Lin,  Fenglai Liu,  E. Livshits,  A. Luenser,  P. Manohar,  
 E. Mansoor,  S. F. Manzer,  Shan-Ping Mao,  Yuezhi Mao,  N. Mardirossian,  
 A. V. Marenich,  T. Markovich,  L. A. Martinez-Martinez,  S. A. Maurer,  
 N. J. Mayhall,  S. C. McKenzie,  J.-M. Mewes,  A. F. Morrison,  
 J. W. Mullinax,  K. Nanda,  T. S. Nguyen-Beck,  R. Olivares-Amaya,  
 J. A. Parkhill,  T. M. Perrine,  F. Plasser,  P. Pokhilko,  S. Prager,  
 A. Prociuk,  E. Ramos,  D. R. Rehn,  F. Rob,  M. Schneider,  N. Sergueev,  
 S. M. Sharada,  S. Sharma,  D. W. Small,  T. Stauch,  T. Stein,  
 Yu-Chuan Su,  A. J. W. Thom,  A. Tkatchenko,  T. Tsuchimochi,  N. M. Tubman,  
 L. Vogt,  M. L. Vidal,  O. Vydrov,  M. A. Watson,  J. Wenzel,  
 M. de Wergifosse,  T. A. Wesolowski,  A. White,  J. Witte,  A. Yamada,  
 Jun Yang,  K. Yao,  S. Yeganeh,  S. R. Yost,  Zhi-Qiang You,  A. Zech,  
 Igor Ying Zhang,  Xing Zhang,  Yan Zhao,  Ying Zhu,  B. R. Brooks,  
 G. K. L. Chan,  C. J. Cramer,  M. S. Gordon,  W. J. Hehre,  A. Klamt,  
 M. W. Schmidt,  C. D. Sherrill,  D. G. Truhlar,  A. Aspuru-Guzik,  R. Baer,  
 A. T. Bell,  N. A. Besley,  Jeng-Da Chai,  A. E. DePrince, III,  
 R. A. DiStasio Jr.,  A. Dreuw,  B. D. Dunietz,  T. R. Furlani,  
 Chao-Ping Hsu,  Yousung Jung,  Jing Kong,  D. S. Lambrecht,  WanZhen Liang,  
 C. Ochsenfeld,  V. A. Rassolov,  L. V. Slipchenko,  J. E. Subotnik,  
 T. Van Voorhis,  J. M. Herbert,  A. I. Krylov,  P. M. W. Gill,  M. Head-Gordon

 Contributors to earlier versions of Q-Chem not listed above: 
 R. D. Adamson,  B. Austin,  J. Baker,  G. J. O. Beran,  K. Brandhorst,  
 S. T. Brown,  E. F. C. Byrd,  A. K. Chakraborty,  C.-L. Cheng,  
 Siu Hung Chien,  D. M. Chipman,  D. L. Crittenden,  H. Dachsel,  
 R. J. Doerksen,  A. D. Dutoi,  L. Fusti-Molnar,  W. A. Goddard III,  
 A. Golubeva-Zadorozhnaya,  S. R. Gwaltney,  G. Hawkins,  A. Heyden,  
 S. Hirata,  G. Kedziora,  F. J. Keil,  C. Kelley,  Jihan Kim,  R. A. King,  
 R. Z. Khaliullin,  P. P. Korambath,  W. Kurlancheek,  A. M. Lee,  M. S. Lee,  
 S. V. Levchenko,  Ching Yeh Lin,  D. Liotard,  R. C. Lochan,  I. Lotan,  
 P. E. Maslen,  N. Nair,  D. P. O'Neill,  D. Neuhauser,  E. Neuscamman,  
 C. M. Oana,  R. Olson,  B. Peters,  R. Peverati,  P. A. Pieniazek,  
 Y. M. Rhee,  J. Ritchie,  M. A. Rohrdanz,  E. Rosta,  N. J. Russ,  
 H. F. Schaefer III,  N. E. Schultz,  N. Shenvi,  A. C. Simmonett,  A. Sodt,  
 D. Stuck,  K. S. Thanthiriwatte,  V. Vanovschi,  Tao Wang,  A. Warshel,  
 C. F. Williams,  Q. Wu,  X. Xu,  W. Zhang

 Please cite Q-Chem as follows:
 Y. Shao et al., Mol. Phys. 113, 184-215 (2015)
 DOI: 10.1080/00268976.2014.952696

 Q-Chem 5.1.1 for Intel X86 EM64T Linux

 Parts of Q-Chem use Armadillo 8.300.2 (Tropical Shenanigans).
 http://arma.sourceforge.net/

 Q-Chem begins on Thu Mar 14 08:30:49 2019  

Host: 
0

     Scratch files written to /staging/scratch/2868767/qchem8498//
 Aug318 |scratch|qcdevops|jenkins|workspace|build_RNUM 6013   
Processing $rem in /usr/usc/qchem/5.1.1/config/preferences.
 MEM_TOTAL  2000 
Input Ideriv = 2
Curr. Ideriv = -1
Max.  Ideriv = 2

Checking the input file for inconsistencies... 	...done.

--------------------------------------------------------------
User input:
--------------------------------------------------------------

$comment
potential surface scanner
$end

$rem
JOBTYPE  PES_SCAN
UNRESTRICTED TRUE
SYM_IGNORE  TRUE
GEOM_OPT_MAX_CYCLES 400
SCF_MAX_CYCLES 400
METHOD   B3LYP
BASIS   6-31G**
PDB_PRINT 2
SCF_CONVERGENCE 6
THRESH 14
SCF_PRINT 1
$end
$molecule
0 3
S 2.877102 0.484611 -0.022056
S -3.763921 1.481577 0.377653
C 0.130968 0.142862 0.150537
C 1.431549 -0.670749 -0.035167
C -1.071985 -0.742478 0.138783
H 0.192673 0.692533 1.096983
H 0.067730 0.886190 -0.653373
H 1.541434 -1.396452 0.774492
H 1.407770 -1.206991 -0.987160
H -1.368305 -1.274337 1.038778
H -1.455848 -1.126276 -0.802701
H 3.827680 -0.451815 -0.209845
H -2.708647 0.604931 0.311972
$end
$scan
stre 2 5 3.400000 3.401000 0.100000
$end
--------------------------------------------------------------
 ----------------------------------------------------------------
             Standard Nuclear Orientation (Angstroms)
    I     Atom           X                Y                Z
 ----------------------------------------------------------------
    1      S       2.8771020000     0.4846110000    -0.0220560000
    2      S      -3.7639210000     1.4815770000     0.3776530000
    3      C       0.1309680000     0.1428620000     0.1505370000
    4      C       1.4315490000    -0.6707490000    -0.0351670000
    5      C      -1.0719850000    -0.7424780000     0.1387830000
    6      H       0.1926730000     0.6925330000     1.0969830000
    7      H       0.0677300000     0.8861900000    -0.6533730000
    8      H       1.5414340000    -1.3964520000     0.7744920000
    9      H       1.4077700000    -1.2069910000    -0.9871600000
   10      H      -1.3683050000    -1.2743370000     1.0387780000
   11      H      -1.4558480000    -1.1262760000    -0.8027010000
   12      H       3.8276800000    -0.4518150000    -0.2098450000
   13      H      -2.7086470000     0.6049310000     0.3119720000
 ----------------------------------------------------------------
 Nuclear Repulsion Energy =   234.3183765617 hartrees
 There are       30 alpha and       28 beta electrons
 Requested basis set is 6-31G(d,p)
 There are 46 shells and 123 basis functions

 Total QAlloc Memory Limit   2000 MB
 Mega-Array Size       188 MB
 MEM_STATIC part       192 MB
A total of 1 constraints
  
            1
    1   1.0100000
    2   2.0100000
    3   5.0100000
    4   3.4000000
    5   3.4010000
    6   0.1000000
    7   0.0000000
    8   0.0000000
    9   0.0000000
   10   0.0000000

                       Distance Matrix (Angstroms)
             S (  1)   S (  2)   C (  3)   C (  4)   C (  5)   H (  6)
   S (  2)  6.727325
   C (  3)  2.772694  4.124791
   C (  4)  1.850582  5.638780  1.545302
   C (  5)  4.138466  3.500000  1.493674  2.510595
   H (  6)  2.915757  4.098129  1.096223  2.162201  2.139337
   H (  7)  2.907301  4.012362  1.096726  2.160148  2.139865  1.765463
   H (  8)  2.440675  6.048746  2.179041  1.092825  2.767990  2.507392
   H (  9)  2.439647  5.986443  2.178688  1.092891  2.762735  3.070554
   H ( 10)  4.716222  3.710947  2.246162  3.058898  1.086587  2.511696
   H ( 11)  4.688157  3.677137  2.244406  3.022197  1.086758  3.103947
   H ( 12)  1.347500  7.855925  3.761542  2.412444  4.920645  4.028723
   H ( 13)  5.597021  1.373472  2.881490  4.346158  2.127009  3.006921
             H (  7)   H (  8)   H (  9)   H ( 10)   H ( 11)   H ( 12)
   H (  8)  3.069374
   H (  9)  2.507694  1.776845
   H ( 10)  3.097329  2.924267  3.437376
   H ( 11)  2.528559  3.397680  2.870688  1.849495
   H ( 12)  4.015495  2.662363  2.651504  5.406835  5.359295
   H ( 13)  2.952840  4.720450  4.681420  2.420002  2.410203  6.641730

 
 A cutoff of  1.0D-14 yielded    969 shell pairs
 There are      6939 function pairs
 
 -------------------------------------------------------
 OpenMP Integral Computing Module                       
 Release: version 1.0, May 2013, Q-Chem Inc. Pittsburgh 
 -------------------------------------------------------
 Integral Job Info:
 Integral job number is                      11
 Integral operator is                         1
 short-range coefficients                     0
 long-range coefficients              100000000
 Omega coefficients                           0
 if combine SR and LR in K                    0
 Integral screening is                        0
 Integral computing path is                   2
 max size of driver memory is            800000
 size of driver memory is                593474
 size of scratch memory is             15267112
 max col of scratch BK array               1296
 max len of scratch array in speh3          155
 max len of scratch index in speh4           18
 max int batch size is                      520
 min int batch size is                       52
 fixed nKL is                                52
 max L of basis functions is                  2
 order of int derivative is                   0
 number of shells is                         46
 number of basis is                         123
 number of cartesian basis is               123
 number of contracted shell pairs           969
 number of primitive shell pairs           3576
 maxK2 (contraction) of shell pair           36
 max number of K2 of shell pair               1
 max number of CS2 of shell pair             80
 max number of PS2 of shell pair            324
 mem total for path MDJ                  515516
 -------------------------------------------------------
 Smallest overlap matrix eigenvalue = 5.51E-03

 Scale SEOQF with 1.000000e-01/1.000000e-01/1.000000e+00

 Standard Electronic Orientation quadrupole field applied
 Nucleus-field energy     =     0.0000000102 hartrees
 Guess from superposition of atomic densities
 Warning:  Energy on first SCF cycle will be non-variational
 SAD guess density has 58.000000 electrons

 -----------------------------------------------------------------------
  General SCF calculation program by
  Eric Jon Sundstrom, Paul Horn, Yuezhi Mao, Dmitri Zuev, Alec White,
  David Stuck, Shaama M.S., Shane Yost, Joonho Lee, David Small,
  Daniel Levine, Susi Lehtola, Hugh Burton, Evgeny Epifanovsky
 -----------------------------------------------------------------------
 Exchange:     0.2000 Hartree-Fock + 0.0800 Slater + 0.7200 B88
 Correlation:  0.1900 VWN1RPA + 0.8100 LYP
 Using SG-1 standard quadrature grid
 using 12 threads for integral computing
 -------------------------------------------------------
 OpenMP Integral computing Module                
 Release: version 1.0, May 2013, Q-Chem Inc. Pittsburgh 
 -------------------------------------------------------
 -------------------------------------------------------
 OpenMP BLAS3 based DFT computing Module                
 Release: version 1.0, May 2013, Q-Chem Inc. Pittsburgh 
 -------------------------------------------------------
 A unrestricted SCF calculation will be
 performed using DIIS
 SCF converges when DIIS error is below 1.0e-06
 Alpha HF Exchange    Energy =  -6.82419196908810
 Beta HF Exchange     Energy =  -6.82419196908810
 DFT Correlation      Energy =  -2.69660398003389
 DFT Exchange         Energy = -53.81077017909885
 One-Electron (alpha) Energy = -860.29169537610494
 One-Electron (beta)  Energy = -860.29169537610494
 Total Coulomb        Energy = 640.62538140864046
 ---------------------------------------
  Cycle       Energy         DIIS error
 ---------------------------------------
    1    -915.7953908690      2.60e-02  
 Alpha HF Exchange    Energy =  -6.95115360405035
 Beta HF Exchange     Energy =  -6.76465739699620
 DFT Correlation      Energy =  -2.71341450651856
 DFT Exchange         Energy = -54.41292888340815
 One-Electron (alpha) Energy = -877.13197158599883
 One-Electron (beta)  Energy = -849.10937012931220
 Total Coulomb        Energy = 647.70178543699433
    2    -915.0633340974      3.85e-03  
 Alpha HF Exchange    Energy =  -6.93222235297947
 Beta HF Exchange     Energy =  -6.75548146508566
 DFT Correlation      Energy =  -2.70569011082006
 DFT Exchange         Energy = -54.29699601914751
 One-Electron (alpha) Energy = -875.28030806731817
 One-Electron (beta)  Energy = -848.79650692270536
 Total Coulomb        Energy = 651.40785743598951
    3    -909.0409709301      1.43e-02  
 Alpha HF Exchange    Energy =  -6.90701972983431
 Beta HF Exchange     Energy =  -6.72766806081705
 DFT Correlation      Energy =  -2.69233643544836
 DFT Exchange         Energy = -54.06007849723187
 One-Electron (alpha) Energy = -874.38367235877490
 One-Electron (beta)  Energy = -847.78462657658713
 Total Coulomb        Energy = 642.90597601117099
    4    -915.3310490756      2.92e-03  
 Alpha HF Exchange    Energy =  -6.92523003503093
 Beta HF Exchange     Energy =  -6.74223114737853
 DFT Correlation      Energy =  -2.70034816726306
 DFT Exchange         Energy = -54.19882170870657
 One-Electron (alpha) Energy = -875.51476010580109
 One-Electron (beta)  Energy = -848.75534140057357
 Total Coulomb        Energy = 645.12786662224357
    5    -915.3904893706      1.32e-03  
 Alpha HF Exchange    Energy =  -6.92536172080309
 Beta HF Exchange     Energy =  -6.74171626914726
 DFT Correlation      Energy =  -2.69933417865103
 DFT Exchange         Energy = -54.19413985168899
 One-Electron (alpha) Energy = -875.44478308508883
 One-Electron (beta)  Energy = -848.63034964882763
 Total Coulomb        Energy = 644.91386123896245
    6    -915.4034469433      7.55e-04  
 Alpha HF Exchange    Energy =  -6.92588368957978
 Beta HF Exchange     Energy =  -6.74204717320455
 DFT Correlation      Energy =  -2.69928746644694
 DFT Exchange         Energy = -54.19658481757214
 One-Electron (alpha) Energy = -875.48096529765348
 One-Electron (beta)  Energy = -848.63343198132122
 Total Coulomb        Energy = 644.95025364501907
    7    -915.4095702088      4.22e-04  
 Alpha HF Exchange    Energy =  -6.92750697826844
 Beta HF Exchange     Energy =  -6.74304443848622
 DFT Correlation      Energy =  -2.69963799856318
 DFT Exchange         Energy = -54.20682248113321
 One-Electron (alpha) Energy = -875.53645030110204
 One-Electron (beta)  Energy = -848.66448141846968
 Total Coulomb        Energy = 645.04805522662662
    8    -915.4115118175      1.56e-04  
 Alpha HF Exchange    Energy =  -6.92777203696649
 Beta HF Exchange     Energy =  -6.74334009487202
 DFT Correlation      Energy =  -2.69967468882798
 DFT Exchange         Energy = -54.20903479897950
 One-Electron (alpha) Energy = -875.55037409702470
 One-Electron (beta)  Energy = -848.67353421334326
 Total Coulomb        Energy = 645.07352887510035
    9    -915.4118244830      3.56e-05  
 Alpha HF Exchange    Energy =  -6.92775411786192
 Beta HF Exchange     Energy =  -6.74331677903282
 DFT Correlation      Energy =  -2.69969151909812
 DFT Exchange         Energy = -54.20894655445409
 One-Electron (alpha) Energy = -875.54877706341961
 One-Electron (beta)  Energy = -848.67408363670017
 Total Coulomb        Energy = 645.07235479322662
   10    -915.4118383054      1.24e-05  
 Alpha HF Exchange    Energy =  -6.92775476775353
 Beta HF Exchange     Energy =  -6.74333397238738
 DFT Correlation      Energy =  -2.69970282592762
 DFT Exchange         Energy = -54.20905527674388
 One-Electron (alpha) Energy = -875.54822960359911
 One-Electron (beta)  Energy = -848.67498970952249
 Total Coulomb        Energy = 645.07284899632623
   11    -915.4118405877      1.71e-06  
 Alpha HF Exchange    Energy =  -6.92776439564711
 Beta HF Exchange     Energy =  -6.74334719608390
 DFT Correlation      Energy =  -2.69971056954362
 DFT Exchange         Energy = -54.20915712650870
 One-Electron (alpha) Energy = -875.54917251327947
 One-Electron (beta)  Energy = -848.67638762252022
 Total Coulomb        Energy = 645.07532222263637
   12    -915.4118406290      8.74e-07  Convergence criterion met
 ---------------------------------------
 SCF time:   CPU 36.07s  wall 3.00s 
<S^2> =          2.006258876
 Alpha HF Exchange    Energy =  -6.92776439564711
 Beta HF Exchange     Energy =  -6.74334719608390
 DFT Correlation      Energy =  -2.69971056954362
 DFT Exchange         Energy = -54.20915712650870
 One-Electron (alpha) Energy = -875.54917251327947
 One-Electron (beta)  Energy = -848.67638762252022
 Total Coulomb        Energy = 645.07532222263637
 Nuclear repulsion Energy = 234.31837657192628
 SCF   energy in the final basis set =     -915.4118406290
 Total energy in the final basis set =     -915.4118406290
 
 --------------------------------------------------------------
 
                    Orbital Energies (a.u.)
 --------------------------------------------------------------
 
 Alpha MOs
 -- Occupied --
-88.898 -88.879 -10.233 -10.220 -10.211  -7.959  -7.942  -5.931
 -5.921  -5.911  -5.907  -5.903  -5.896  -0.824  -0.752  -0.725
 -0.658  -0.601  -0.494  -0.457  -0.430  -0.422  -0.396  -0.384
 -0.362  -0.334  -0.310  -0.263  -0.242  -0.231
 -- Virtual --
  0.021   0.060   0.076   0.094   0.120   0.129   0.140   0.154
  0.189   0.199   0.247   0.278   0.337   0.338   0.350   0.359
  0.374   0.383   0.385   0.486   0.510   0.514   0.568   0.575
  0.620   0.640   0.695   0.704   0.733   0.735   0.743   0.748
  0.750   0.753   0.823   0.835   0.855   0.864   0.873   0.891
  0.903   0.918   0.976   1.087   1.136   1.142   1.181   1.280
  1.317   1.398   1.526   1.536   1.661   1.670   1.797   1.847
  1.925   1.949   1.984   2.053   2.060   2.063   2.092   2.100
  2.133   2.203   2.209   2.229   2.324   2.339   2.447   2.466
  2.473   2.593   2.598   2.686   2.735   2.747   2.763   2.782
  2.829   2.863   3.195   3.260   3.351   3.360   3.456   3.523
  3.931   3.978   4.233   4.409   4.601
 
 Beta MOs
 -- Occupied --
-88.892 -88.879 -10.231 -10.212 -10.207  -7.953  -7.941  -5.916
 -5.912  -5.908  -5.906  -5.903  -5.896  -0.817  -0.740  -0.683
 -0.642  -0.593  -0.490  -0.454  -0.425  -0.407  -0.382  -0.377
 -0.360  -0.333  -0.248  -0.242
 -- Virtual --
 -0.167  -0.090   0.023   0.065   0.098   0.100   0.122   0.133
  0.146   0.156   0.193   0.203   0.256   0.295   0.348   0.353
  0.362   0.376   0.377   0.386   0.387   0.492   0.515   0.526
  0.571   0.589   0.627   0.646   0.729   0.734   0.740   0.749
  0.754   0.769   0.803   0.808   0.827   0.837   0.856   0.866
  0.880   0.896   0.906   0.930   0.981   1.097   1.141   1.144
  1.182   1.293   1.327   1.422   1.539   1.546   1.662   1.692
  1.805   1.851   1.928   1.984   2.003   2.054   2.061   2.064
  2.093   2.098   2.134   2.204   2.215   2.230   2.325   2.348
  2.461   2.472   2.486   2.595   2.612   2.694   2.739   2.749
  2.764   2.784   2.832   2.867   3.197   3.263   3.353   3.364
  3.462   3.526   3.950   3.978   4.244   4.427   4.607
 --------------------------------------------------------------
 
          Ground-State Mulliken Net Atomic Charges

     Atom                 Charge (a.u.)    Spin (a.u.)
  --------------------------------------------------------
      1 S                    -0.045074       0.020490
      2 S                    -0.085467       1.097425
      3 C                    -0.195671      -0.067327
      4 C                    -0.319379       0.045723
      5 C                    -0.251525       0.995469
      6 H                     0.131724       0.010005
      7 H                     0.132676       0.013249
      8 H                     0.139399      -0.000703
      9 H                     0.139097      -0.000910
     10 H                     0.128178      -0.040631
     11 H                     0.128036      -0.040588
     12 H                     0.058669       0.000415
     13 H                     0.039338      -0.032618
  --------------------------------------------------------
  Sum of atomic charges =    -0.000000
  Sum of spin   charges =     2.000000

 -----------------------------------------------------------------
                    Cartesian Multipole Moments
 -----------------------------------------------------------------
    Charge (ESU x 10^10)
                 0.0000
    Dipole Moment (Debye)
         X       1.0389      Y      -2.7093      Z      -0.2483
       Tot       2.9123
    Quadrupole Moments (Debye-Ang)
        XX     -56.2085     XY      -0.9743     YY     -49.6507
        XZ      -0.0199     YZ      -0.4240     ZZ     -46.7284
    Octopole Moments (Debye-Ang^2)
       XXX      80.3667    XXY     -39.6929    XYY      14.7401
       YYY     -58.8325    XXZ     -12.4473    XYZ       2.5686
       YYZ      -7.5198    XZZ       0.1339    YZZ     -18.5072
       ZZZ     -17.9037
    Hexadecapole Moments (Debye-Ang^3)
      XXXX   -2168.1624   XXXY     162.7918   XXYY    -410.5196
      XYYY     190.2730   YYYY    -336.0515   XXXZ      63.2962
      XXYZ     -10.1082   XYYZ      26.9770   YYYZ     -25.8712
      XXZZ    -358.6730   XYZZ      50.7134   YYZZ     -64.9051
      XZZZ      61.1509   YZZZ     -19.6206   ZZZZ     -88.3880
 -----------------------------------------------------------------
 Calculating analytic gradient of the SCF energy
 Gradient of SCF Energy
            1           2           3           4           5           6
    1  -0.0000006   0.0001813   0.0000193   0.0000006  -0.0003525  -0.0000003
    2  -0.0000029  -0.0001247   0.0000069  -0.0000072   0.0003207  -0.0000052
    3   0.0000028  -0.0001314   0.0000009  -0.0000012  -0.0000453   0.0000001
            7           8           9          10          11          12
    1  -0.0000014  -0.0000043  -0.0000013  -0.0000079   0.0000092  -0.0000016
    2  -0.0000034  -0.0000015  -0.0000028   0.0000104  -0.0000082  -0.0000083
    3  -0.0000012   0.0000039   0.0000037   0.0000016  -0.0000001   0.0000082
           13
    1   0.0001594
    2  -0.0001738
    3   0.0001578
 Max gradient component =       3.525E-04
 RMS gradient           =       9.824E-05
 Gradient time:  CPU 10.52 s  wall 0.91 s
 Geometry Optimization Parameters
   NAtoms,    NIC,     NZ,  NCons,   NDum,   NFix, NCnnct, MaxDiis
       13      82       0       1       0       0       0       0


** CONSTRAINED OPTIMIZATION IN DELOCALIZED INTERNAL COORDINATES **
   Searching for a Minimum

   Optimization Cycle:   1

                       Coordinates (Angstroms)
     ATOM                X               Y               Z
      1  S         2.8771020000    0.4846110000   -0.0220560000
      2  S        -3.7639210000    1.4815770000    0.3776530000
      3  C         0.1309680000    0.1428620000    0.1505370000
      4  C         1.4315490000   -0.6707490000   -0.0351670000
      5  C        -1.0719850000   -0.7424780000    0.1387830000
      6  H         0.1926730000    0.6925330000    1.0969830000
      7  H         0.0677300000    0.8861900000   -0.6533730000
      8  H         1.5414340000   -1.3964520000    0.7744920000
      9  H         1.4077700000   -1.2069910000   -0.9871600000
     10  H        -1.3683050000   -1.2743370000    1.0387780000
     11  H        -1.4558480000   -1.1262760000   -0.8027010000
     12  H         3.8276800000   -0.4518150000   -0.2098450000
     13  H        -2.7086470000    0.6049310000    0.3119720000
   Point Group: c1    Number of degrees of freedom:    33


   Energy is   -915.411840629

              Constraints and their Current Values
                                        Value     Constraint
   Distance(Angs):        2   5             3.500000     3.400000

 Attempting to Generate Delocalized Internal Coordinates

   Using Lagrange Multiplier Algorithm


 34 Hessian modes will be used to form the next step
  Hessian Eigenvalues:
    -0.993455    0.045000    0.045000    0.045000    0.063027    0.069310
     0.078551    0.079584    0.085113    0.089289    0.102020    0.123334
     0.130827    0.137087    0.142241    0.160000    0.160000    0.160013
     0.160015    0.200000    0.200049    0.219346    0.220719    0.225054
     0.258311    0.280543    0.330502    0.340468    0.341032    0.344806
     0.344882    0.351900    0.352101    1.006588

 Minimum Search - Taking P-RFO Step
 Searching for Lamda that Maximizes Along the Constraint modes Only
 Value Taken    Lamda =   0.01783585
 Searching for Lamda that Minimizes Along All other modes
 Value Taken    Lamda =  -0.01726202
 Step Taken.  Stepsize is  0.185717

                             Maximum     Tolerance    Cnvgd?
         Gradient            0.188972       0.000300      NO
         Displacement        0.185712       0.001200      NO
         Energy change     *********       0.000001      NO


 New Cartesian Coordinates Obtained by Inverse Iteration

 Displacement from previous Coordinates is:  0.188649
 ----------------------------------------------------------------
             Standard Nuclear Orientation (Angstroms)
    I     Atom           X                Y                Z
 ----------------------------------------------------------------
    1      S       2.8699738633     0.4848940801    -0.0215722801
    2      S      -3.6924113781     1.4364481701     0.3711503819
    3      C       0.1230593223     0.1497635823     0.1514621089
    4      C       1.4216401713    -0.6669934037    -0.0344438520
    5      C      -1.0821083908    -0.7325551805     0.1398998566
    6      H       0.1862756211     0.6992955423     1.0978928078
    7      H       0.0615440731     0.8932518314    -0.6524367345
    8      H       1.5299155601    -1.3929619665     0.7751938501
    9      H       1.3964238634    -1.2031739373    -0.9864352269
   10      H      -1.3796583201    -1.2636689204     1.0399294707
   11      H      -1.4671621389    -1.1153073908    -0.8015250616
   12      H       3.8183055637    -0.4537680427    -0.2095504104
   13      H      -2.6775978104     0.5883816357     0.3093310897
 ----------------------------------------------------------------
 Nuclear Repulsion Energy =   236.0085106914 hartrees
 There are       30 alpha and       28 beta electrons

                       Distance Matrix (Angstroms)
             S (  1)   S (  2)   C (  3)   C (  4)   C (  5)   H (  6)
   S (  2)  6.642634
   C (  3)  2.772687  4.032572
   C (  4)  1.850589  5.544592  1.545304
   C (  5)  4.138503  3.401725  1.493670  2.510667
   H (  6)  2.915717  4.014444  1.096227  2.162188  2.139333
   H (  7)  2.907236  3.928737  1.096728  2.160125  2.139857  1.765455
   H (  8)  2.440683  5.953277  2.179057  1.092825  2.768105  2.507398
   H (  9)  2.439648  5.891255  2.178694  1.092892  2.762831  3.070549
   H ( 10)  4.716316  3.617558  2.246180  3.059015  1.086587  2.511720
   H ( 11)  4.688253  3.583065  2.244414  3.022346  1.086760  3.103938
   H ( 12)  1.347500  7.766659  3.761572  2.412495  4.920762  4.028722
   H ( 13)  5.558395  1.323966  2.839188  4.300918  2.078261  2.972525
             H (  7)   H (  8)   H (  9)   H ( 10)   H ( 11)   H ( 12)
   H (  8)  3.069368
   H (  9)  2.507680  1.776845
   H ( 10)  3.097334  2.924452  3.437506
   H ( 11)  2.528533  3.397883  2.870895  1.849493
   H ( 12)  4.015454  2.662430  2.651541  5.407029  5.359500
   H ( 13)  2.919048  4.673962  4.635335  2.376660  2.366794  6.599400

 
 Applying Cartesian multipole field
    Component          Value
    ---------          -----
     (2,0,0)        1.00000E-11
     (0,2,0)        2.00000E-11
     (0,0,2)       -3.00000E-10
 Nucleus-field energy     =     0.0000000098 hartrees
 Requested basis set is 6-31G(d,p)
 There are 46 shells and 123 basis functions
 A cutoff of  1.0D-14 yielded    974 shell pairs
 There are      6963 function pairs
 Smallest overlap matrix eigenvalue = 5.46E-03
 Guess from superposition of atomic densities
 Warning:  Energy on first SCF cycle will be non-variational
 SAD guess density has 58.000000 electrons

 -----------------------------------------------------------------------
  General SCF calculation program by
  Eric Jon Sundstrom, Paul Horn, Yuezhi Mao, Dmitri Zuev, Alec White,
  David Stuck, Shaama M.S., Shane Yost, Joonho Lee, David Small,
  Daniel Levine, Susi Lehtola, Hugh Burton, Evgeny Epifanovsky
 -----------------------------------------------------------------------
 Exchange:     0.2000 Hartree-Fock + 0.0800 Slater + 0.7200 B88
 Correlation:  0.1900 VWN1RPA + 0.8100 LYP
 Using SG-1 standard quadrature grid
 using 12 threads for integral computing
 -------------------------------------------------------
 OpenMP Integral computing Module                
 Release: version 1.0, May 2013, Q-Chem Inc. Pittsburgh 
 -------------------------------------------------------
 -------------------------------------------------------
 OpenMP BLAS3 based DFT computing Module                
 Release: version 1.0, May 2013, Q-Chem Inc. Pittsburgh 
 -------------------------------------------------------
 A unrestricted SCF calculation will be
 performed using DIIS
 SCF converges when DIIS error is below 1.0e-06
 Alpha HF Exchange    Energy =  -6.82720031207175
 Beta HF Exchange     Energy =  -6.82720031207175
 DFT Correlation      Energy =  -2.69767707217049
 DFT Exchange         Energy = -53.81777654305435
 One-Electron (alpha) Energy = -861.95989416166276
 One-Electron (beta)  Energy = -861.95989416166276
 Total Coulomb        Energy = 642.25872991572646
 ---------------------------------------
  Cycle       Energy         DIIS error
 ---------------------------------------
    1    -915.8224019458      2.62e-02  
 Alpha HF Exchange    Energy =  -6.95348747960287
 Beta HF Exchange     Energy =  -6.76697983375081
 DFT Correlation      Energy =  -2.71453771882614
 DFT Exchange         Energy = -54.42823637759719
 One-Electron (alpha) Energy = -878.92686441606872
 One-Electron (beta)  Energy = -850.78629755058307
 Total Coulomb        Energy = 649.50784344431463
    2    -915.0600492309      3.86e-03  
 Alpha HF Exchange    Energy =  -6.93407424396628
 Beta HF Exchange     Energy =  -6.75737160320172
 DFT Correlation      Energy =  -2.70616544310370
 DFT Exchange         Energy = -54.30888125348419
 One-Electron (alpha) Energy = -876.90611267052452
 One-Electron (beta)  Energy = -850.20217636899508
 Total Coulomb        Energy = 652.80637759129343
    3    -908.9998932908      1.43e-02  
 Alpha HF Exchange    Energy =  -6.90925867811701
 Beta HF Exchange     Energy =  -6.72929405546280
 DFT Correlation      Energy =  -2.69349964879710
 DFT Exchange         Energy = -54.07350886162734
 One-Electron (alpha) Energy = -876.16491906967940
 One-Electron (beta)  Energy = -849.37376127220352
 Total Coulomb        Energy = 644.60513145423272
    4    -915.3305994305      2.91e-03  
 Alpha HF Exchange    Energy =  -6.92717615317777
 Beta HF Exchange     Energy =  -6.74373789668986
 DFT Correlation      Energy =  -2.70144443581369
 DFT Exchange         Energy = -54.21085560620267
 One-Electron (alpha) Energy = -877.28305271893134
 One-Electron (beta)  Energy = -850.33989601385690
 Total Coulomb        Energy = 646.80830358893570
    5    -915.3893485346      1.32e-03  
 Alpha HF Exchange    Energy =  -6.92735697171485
 Beta HF Exchange     Energy =  -6.74329137191659
 DFT Correlation      Energy =  -2.70043524867003
 DFT Exchange         Energy = -54.20659566947769
 One-Electron (alpha) Energy = -877.21541652949293
 One-Electron (beta)  Energy = -850.21849063245122
 Total Coulomb        Energy = 646.60101628310463
    6    -915.4020594394      7.60e-04  
 Alpha HF Exchange    Energy =  -6.92791886370288
 Beta HF Exchange     Energy =  -6.74366486674704
 DFT Correlation      Energy =  -2.70039012747985
 DFT Exchange         Energy = -54.20926311091281
 One-Electron (alpha) Energy = -877.25453552544650
 One-Electron (beta)  Energy = -850.22513520330983
 Total Coulomb        Energy = 646.64429596106152
    7    -915.4081010354      4.34e-04  
 Alpha HF Exchange    Energy =  -6.92954474416172
 Beta HF Exchange     Energy =  -6.74465202039538
 DFT Correlation      Energy =  -2.70072485224644
 DFT Exchange         Energy = -54.21940321581845
 One-Electron (alpha) Energy = -877.30907436749590
 One-Electron (beta)  Energy = -850.25492885477036
 Total Coulomb        Energy = 646.73968202459537
    8    -915.4101353291      1.64e-04  
 Alpha HF Exchange    Energy =  -6.92986550842537
 Beta HF Exchange     Energy =  -6.74498017862805
 DFT Correlation      Energy =  -2.70076470824324
 DFT Exchange         Energy = -54.22192046614138
 One-Electron (alpha) Energy = -877.32551970765212
 One-Electron (beta)  Energy = -850.26511853716647
 Total Coulomb        Energy = 646.76917770998318
    9    -915.4104806951      3.75e-05  
 Alpha HF Exchange    Energy =  -6.92986398826141
 Beta HF Exchange     Energy =  -6.74496555984153
 DFT Correlation      Energy =  -2.70078476574168
 DFT Exchange         Energy = -54.22192249264721
 One-Electron (alpha) Energy = -877.32514387071956
 One-Electron (beta)  Energy = -850.26645366164610
 Total Coulomb        Energy = 646.77012730347576
   10    -915.4104963342      1.33e-05  
 Alpha HF Exchange    Energy =  -6.92986408545859
 Beta HF Exchange     Energy =  -6.74497648756870
 DFT Correlation      Energy =  -2.70079308292230
 DFT Exchange         Energy = -54.22199908695212
 One-Electron (alpha) Energy = -877.32418539822322
 One-Electron (beta)  Energy = -850.26663907007196
 Total Coulomb        Energy = 646.76944762607036
   11    -915.4104988840      1.82e-06  
 Alpha HF Exchange    Energy =  -6.92987818573304
 Beta HF Exchange     Energy =  -6.74499321999567
 DFT Correlation      Energy =  -2.70080222458189
 DFT Exchange         Energy = -54.22213184536505
 One-Electron (alpha) Energy = -877.32558009485899
 One-Electron (beta)  Energy = -850.26836731914602
 Total Coulomb        Energy = 646.77274326867018
   12    -915.4104989198      1.08e-06  
 Alpha HF Exchange    Energy =  -6.92987021778448
 Beta HF Exchange     Energy =  -6.74498639744180
 DFT Correlation      Energy =  -2.70079993434324
 DFT Exchange         Energy = -54.22207425828449
 One-Electron (alpha) Energy = -877.32480603032639
 One-Electron (beta)  Energy = -850.26778968792928
 Total Coulomb        Energy = 646.77131688986776
   13    -915.4104989351      2.86e-07  Convergence criterion met
 ---------------------------------------
 SCF time:   CPU 37.16s  wall 3.00s 
<S^2> =          2.006095783
 Alpha HF Exchange    Energy =  -6.92987021778448
 Beta HF Exchange     Energy =  -6.74498639744180
 DFT Correlation      Energy =  -2.70079993434324
 DFT Exchange         Energy = -54.22207425828449
 One-Electron (alpha) Energy = -877.32480603032639
 One-Electron (beta)  Energy = -850.26778968792928
 Total Coulomb        Energy = 646.77131688986776
 Nuclear repulsion Energy = 236.00851070117503
 SCF   energy in the final basis set =     -915.4104989351
 Total energy in the final basis set =     -915.4104989351
 
 --------------------------------------------------------------
 
                    Orbital Energies (a.u.)
 --------------------------------------------------------------
 
 Alpha MOs
 -- Occupied --
-88.895 -88.879 -10.232 -10.219 -10.211  -7.958  -7.941  -5.929
 -5.919  -5.910  -5.906  -5.903  -5.896  -0.823  -0.753  -0.731
 -0.657  -0.601  -0.494  -0.457  -0.430  -0.424  -0.398  -0.384
 -0.362  -0.334  -0.311  -0.264  -0.242  -0.230
 -- Virtual --
  0.021   0.064   0.086   0.094   0.120   0.129   0.140   0.154
  0.189   0.199   0.247   0.273   0.338   0.341   0.351   0.358
  0.374   0.383   0.385   0.487   0.510   0.514   0.568   0.575
  0.620   0.646   0.690   0.718   0.732   0.736   0.741   0.747
  0.752   0.755   0.822   0.835   0.855   0.864   0.874   0.890
  0.903   0.919   0.979   1.100   1.137   1.150   1.205   1.288
  1.319   1.398   1.526   1.539   1.661   1.671   1.797   1.847
  1.925   1.948   1.985   2.056   2.063   2.067   2.093   2.113
  2.145   2.203   2.211   2.229   2.325   2.341   2.454   2.469
  2.473   2.596   2.598   2.687   2.748   2.763   2.781   2.810
  2.833   2.864   3.196   3.261   3.351   3.360   3.457   3.524
  3.934   3.978   4.235   4.411   4.604
 
 Beta MOs
 -- Occupied --
-88.889 -88.879 -10.231 -10.212 -10.206  -7.952  -7.941  -5.915
 -5.911  -5.907  -5.906  -5.903  -5.896  -0.817  -0.740  -0.691
 -0.641  -0.593  -0.490  -0.454  -0.424  -0.407  -0.385  -0.377
 -0.359  -0.333  -0.248  -0.242
 -- Virtual --
 -0.168  -0.088   0.024   0.067   0.099   0.112   0.122   0.133
  0.147   0.156   0.193   0.203   0.256   0.291   0.350   0.356
  0.362   0.375   0.378   0.386   0.387   0.493   0.516   0.527
  0.571   0.589   0.628   0.650   0.726   0.734   0.748   0.750
  0.758   0.770   0.802   0.808   0.826   0.838   0.856   0.866
  0.882   0.895   0.906   0.931   0.984   1.108   1.141   1.153
  1.208   1.302   1.329   1.422   1.540   1.549   1.662   1.693
  1.806   1.851   1.929   1.984   2.003   2.057   2.064   2.068
  2.093   2.111   2.147   2.205   2.216   2.230   2.327   2.350
  2.468   2.475   2.486   2.598   2.612   2.694   2.749   2.764
  2.783   2.814   2.836   2.868   3.198   3.264   3.353   3.364
  3.463   3.526   3.953   3.979   4.245   4.430   4.609
 --------------------------------------------------------------
 
          Ground-State Mulliken Net Atomic Charges

     Atom                 Charge (a.u.)    Spin (a.u.)
  --------------------------------------------------------
      1 S                    -0.045404       0.020636
      2 S                    -0.082271       1.094361
      3 C                    -0.194218      -0.067330
      4 C                    -0.319136       0.045542
      5 C                    -0.257283       0.996617
      6 H                     0.131236       0.010046
      7 H                     0.132683       0.013307
      8 H                     0.139292      -0.000708
      9 H                     0.139004      -0.000913
     10 H                     0.128585      -0.040549
     11 H                     0.128149      -0.040523
     12 H                     0.058592       0.000421
     13 H                     0.040772      -0.030907
  --------------------------------------------------------
  Sum of atomic charges =     0.000000
  Sum of spin   charges =     2.000000

 -----------------------------------------------------------------
                    Cartesian Multipole Moments
 -----------------------------------------------------------------
    Charge (ESU x 10^10)
                 0.0000
    Dipole Moment (Debye)
         X       0.9922      Y      -2.6893      Z      -0.2438
       Tot       2.8769
    Quadrupole Moments (Debye-Ang)
        XX     -55.9974     XY      -1.0385     YY     -49.6145
        XZ       0.0686     YZ      -0.2821     ZZ     -46.6568
    Octopole Moments (Debye-Ang^2)
       XXX      76.6078    XXY     -38.8483    XYY      13.8003
       YYY     -57.1303    XXZ     -13.0934    XYZ       2.1851
       YYZ      -7.0147    XZZ      -0.6307    YZZ     -17.9028
       ZZZ     -17.6588
    Hexadecapole Moments (Debye-Ang^3)
      XXXX   -2113.2509   XXXY     150.5680   XXYY    -400.1398
      XYYY     178.3464   YYYY    -323.9944   XXXZ      65.4967
      XXYZ      -8.8745   XYYZ      24.8966   YYYZ     -23.6232
      XXZZ    -351.2002   XYZZ      46.8725   YYZZ     -62.7339
      XZZZ      59.1702   YZZZ     -18.3925   ZZZZ     -87.8821
 -----------------------------------------------------------------
 Calculating analytic gradient of the SCF energy
 Gradient of SCF Energy
            1           2           3           4           5           6
    1  -0.0000282   0.0207484  -0.0001256   0.0000242  -0.0015937  -0.0000187
    2  -0.0000030  -0.0172696   0.0001621  -0.0000648   0.0013568  -0.0000351
    3   0.0000066  -0.0014174   0.0000633  -0.0000221   0.0000387  -0.0000121
            7           8           9          10          11          12
    1   0.0000074  -0.0000036   0.0000057  -0.0000634  -0.0000592  -0.0000083
    2  -0.0000452  -0.0000033  -0.0000081   0.0001295   0.0001141  -0.0000134
    3  -0.0000106   0.0000045   0.0000021   0.0000099   0.0000327   0.0000069
           13
    1  -0.0188849
    2   0.0156802
    3   0.0012976
 Max gradient component =       2.075E-02
 RMS gradient           =       5.860E-03
 Gradient time:  CPU 10.40 s  wall 0.91 s
 Geometry Optimization Parameters
   NAtoms,    NIC,     NZ,  NCons,   NDum,   NFix, NCnnct, MaxDiis
       13      82       0       1       0       0       0       0

 Cartesian Hessian Update
 Hessian Updated using BFGS Update


** CONSTRAINED OPTIMIZATION IN DELOCALIZED INTERNAL COORDINATES **
   Searching for a Minimum

   Optimization Cycle:   2

                       Coordinates (Angstroms)
     ATOM                X               Y               Z
      1  S         2.8699738633    0.4848940801   -0.0215722801
      2  S        -3.6924113781    1.4364481701    0.3711503819
      3  C         0.1230593223    0.1497635823    0.1514621089
      4  C         1.4216401713   -0.6669934037   -0.0344438520
      5  C        -1.0821083908   -0.7325551805    0.1398998566
      6  H         0.1862756211    0.6992955423    1.0978928078
      7  H         0.0615440731    0.8932518314   -0.6524367345
      8  H         1.5299155601   -1.3929619665    0.7751938501
      9  H         1.3964238634   -1.2031739373   -0.9864352269
     10  H        -1.3796583201   -1.2636689204    1.0399294707
     11  H        -1.4671621389   -1.1153073908   -0.8015250616
     12  H         3.8183055637   -0.4537680427   -0.2095504104
     13  H        -2.6775978104    0.5883816357    0.3093310897
   Point Group: c1    Number of degrees of freedom:    33


   Energy is   -915.410498935

              Constraints and their Current Values
                                        Value     Constraint
   Distance(Angs):        2   5             3.401725     3.400000
 Hessian Updated using BFGS Update

   Using Lagrange Multiplier Algorithm


 33 Hessian modes will be used to form the next step
  Hessian Eigenvalues:
    -0.965656    0.045000    0.045000    0.063031    0.069310    0.078551
     0.079584    0.085113    0.089289    0.102020    0.123334    0.130827
     0.142241    0.159996    0.160000    0.160013    0.160015    0.199528
     0.200000    0.219342    0.220716    0.225053    0.249596    0.258311
     0.280545    0.330513    0.340469    0.341033    0.344806    0.344882
     0.351901    0.352102    1.044938

 Minimum Search - Taking P-RFO Step
 Searching for Lamda that Maximizes Along the Constraint modes Only
 Value Taken    Lamda =   0.00009888
 Searching for Lamda that Minimizes Along All other modes
 Value Taken    Lamda =  -0.00125775
 Step Taken.  Stepsize is  0.070092

                             Maximum     Tolerance    Cnvgd?
         Gradient            0.014121       0.000300      NO
         Displacement        0.057163       0.001200      NO
         Energy change      0.001342       0.000001      NO


 New Cartesian Coordinates Obtained by Inverse Iteration

 Displacement from previous Coordinates is:  0.048023
 ----------------------------------------------------------------
             Standard Nuclear Orientation (Angstroms)
    I     Atom           X                Y                Z
 ----------------------------------------------------------------
    1      S       2.8686493595     0.4849847505    -0.0215142437
    2      S      -3.6918911289     1.4390436138     0.3708744943
    3      C       0.1214943358     0.1510137339     0.1516799133
    4      C       1.4197219495    -0.6662282756    -0.0342769230
    5      C      -1.0843134608    -0.7305984096     0.1402198706
    6      H       0.1851343138     0.7005646209     1.0981017417
    7      H       0.0602981098     0.8946196109    -0.6521641170
    8      H       1.5277336771    -1.3922429873     0.7753536332
    9      H       1.3942006801    -1.2023946802    -0.9862651423
   10      H      -1.3818696415    -1.2619248043     1.0401585939
   11      H      -1.4694036087    -1.1133670048    -0.8012306994
   12      H       3.8166120391    -0.4540385962    -0.2095664953
   13      H      -2.6581666248     0.5741744282     0.3075253735
 ----------------------------------------------------------------
 Nuclear Repulsion Energy =   235.9551634632 hartrees
 There are       30 alpha and       28 beta electrons

                       Distance Matrix (Angstroms)
             S (  1)   S (  2)   C (  3)   C (  4)   C (  5)   H (  6)
   S (  2)  6.641151
   C (  3)  2.772795  4.031002
   C (  4)  1.850634  5.543005  1.545270
   C (  5)  4.138806  3.400001  1.493768  2.510933
   H (  6)  2.915693  4.013170  1.096253  2.162085  2.139454
   H (  7)  2.907294  3.927076  1.096750  2.160107  2.139940  1.765410
   H (  8)  2.440704  5.951829  2.179018  1.092825  2.768386  2.507306
   H (  9)  2.439671  5.889597  2.178627  1.092889  2.763077  3.070453
   H ( 10)  4.716540  3.616541  2.246307  3.059114  1.086617  2.512016
   H ( 11)  4.688431  3.581631  2.244472  3.022449  1.086801  3.104079
   H ( 12)  1.347502  7.765197  3.761713  2.412640  4.921169  4.028739
   H ( 13)  5.537320  1.349295  2.816002  4.276050  2.051204  2.953870
             H (  7)   H (  8)   H (  9)   H ( 10)   H ( 11)   H ( 12)
   H (  8)  3.069351
   H (  9)  2.507666  1.776844
   H ( 10)  3.097497  2.924533  3.437514
   H ( 11)  2.528679  3.397973  2.870957  1.849445
   H ( 12)  4.015553  2.662566  2.651674  5.407283  5.359733
   H ( 13)  2.900645  4.648378  4.609964  2.353072  2.343138  6.576273

 
 Applying Cartesian multipole field
    Component          Value
    ---------          -----
     (2,0,0)        1.00000E-11
     (0,2,0)        2.00000E-11
     (0,0,2)       -3.00000E-10
 Nucleus-field energy     =     0.0000000098 hartrees
 Requested basis set is 6-31G(d,p)
 There are 46 shells and 123 basis functions
 A cutoff of  1.0D-14 yielded    974 shell pairs
 There are      6963 function pairs
 Smallest overlap matrix eigenvalue = 5.45E-03
 Guess from superposition of atomic densities
 Warning:  Energy on first SCF cycle will be non-variational
 SAD guess density has 58.000000 electrons

 -----------------------------------------------------------------------
  General SCF calculation program by
  Eric Jon Sundstrom, Paul Horn, Yuezhi Mao, Dmitri Zuev, Alec White,
  David Stuck, Shaama M.S., Shane Yost, Joonho Lee, David Small,
  Daniel Levine, Susi Lehtola, Hugh Burton, Evgeny Epifanovsky
 -----------------------------------------------------------------------
 Exchange:     0.2000 Hartree-Fock + 0.0800 Slater + 0.7200 B88
 Correlation:  0.1900 VWN1RPA + 0.8100 LYP
 Using SG-1 standard quadrature grid
 using 12 threads for integral computing
 -------------------------------------------------------
 OpenMP Integral computing Module                
 Release: version 1.0, May 2013, Q-Chem Inc. Pittsburgh 
 -------------------------------------------------------
 -------------------------------------------------------
 OpenMP BLAS3 based DFT computing Module                
 Release: version 1.0, May 2013, Q-Chem Inc. Pittsburgh 
 -------------------------------------------------------
 A unrestricted SCF calculation will be
 performed using DIIS
 SCF converges when DIIS error is below 1.0e-06
 Alpha HF Exchange    Energy =  -6.82622660748145
 Beta HF Exchange     Energy =  -6.82622660748145
 DFT Correlation      Energy =  -2.69754883446132
 DFT Exchange         Energy = -53.81523207244604
 One-Electron (alpha) Energy = -861.91812488582889
 One-Electron (beta)  Energy = -861.91812488582889
 Total Coulomb        Energy = 642.23347893978428
 ---------------------------------------
  Cycle       Energy         DIIS error
 ---------------------------------------
    1    -915.8128414807      2.61e-02  
 Alpha HF Exchange    Energy =  -6.95245241896055
 Beta HF Exchange     Energy =  -6.76557673562440
 DFT Correlation      Energy =  -2.71439422063436
 DFT Exchange         Energy = -54.42066231915723
 One-Electron (alpha) Energy = -878.86706683961108
 One-Electron (beta)  Energy = -850.72262123400469
 Total Coulomb        Energy = 649.42569440959073
    2    -915.0619158853      3.85e-03  
 Alpha HF Exchange    Energy =  -6.93339436073764
 Beta HF Exchange     Energy =  -6.75536957523232
 DFT Correlation      Energy =  -2.70642306034379
 DFT Exchange         Energy = -54.30183143171630
 One-Electron (alpha) Energy = -876.86594963265395
 One-Electron (beta)  Energy = -850.16029720114921
 Total Coulomb        Energy = 652.70232174026205
    3    -909.0657800485      1.44e-02  
 Alpha HF Exchange    Energy =  -6.90825098499940
 Beta HF Exchange     Energy =  -6.72834766345371
 DFT Correlation      Energy =  -2.69335649329108
 DFT Exchange         Energy = -54.06730540092482
 One-Electron (alpha) Energy = -876.11189575019660
 One-Electron (beta)  Energy = -849.32727826103053
 Total Coulomb        Energy = 644.55216255077028
    4    -915.3291085301      2.94e-03  
 Alpha HF Exchange    Energy =  -6.92628261765943
 Beta HF Exchange     Energy =  -6.74264811670554
 DFT Correlation      Energy =  -2.70130636370808
 DFT Exchange         Energy = -54.20449490926158
 One-Electron (alpha) Energy = -877.23068421887206
 One-Electron (beta)  Energy = -850.28372493914878
 Total Coulomb        Energy = 646.74484184199457
    5    -915.3891358503      1.34e-03  
 Alpha HF Exchange    Energy =  -6.92646613887858
 Beta HF Exchange     Energy =  -6.74222397134756
 DFT Correlation      Energy =  -2.70028881887378
 DFT Exchange         Energy = -54.20021509797895
 One-Electron (alpha) Energy = -877.16554302994120
 One-Electron (beta)  Energy = -850.16214221287544
 Total Coulomb        Energy = 646.53921282371948
    6    -915.4025029731      7.75e-04  
 Alpha HF Exchange    Energy =  -6.92713405817521
 Beta HF Exchange     Energy =  -6.74265859000241
 DFT Correlation      Energy =  -2.70026062542483
 DFT Exchange         Energy = -54.20347587715628
 One-Electron (alpha) Energy = -877.20866974164790
 One-Electron (beta)  Energy = -850.16922030607873
 Total Coulomb        Energy = 646.58718527751023
    7    -915.4090704479      4.23e-04  
 Alpha HF Exchange    Energy =  -6.92876368719142
 Beta HF Exchange     Energy =  -6.74368328434281
 DFT Correlation      Energy =  -2.70059891340127
 DFT Exchange         Energy = -54.21378677184779
 One-Electron (alpha) Energy = -877.26398510828551
 One-Electron (beta)  Energy = -850.20026220954389
 Total Coulomb        Energy = 646.68489005900949
    8    -915.4110264425      1.56e-04  
 Alpha HF Exchange    Energy =  -6.92904785271471
 Beta HF Exchange     Energy =  -6.74399864339428
 DFT Correlation      Energy =  -2.70063377341950
 DFT Exchange         Energy = -54.21611507256351
 One-Electron (alpha) Energy = -877.27912815634465
 One-Electron (beta)  Energy = -850.21025452643335
 Total Coulomb        Energy = 646.71267374526951
    9    -915.4113408065      3.54e-05  
 Alpha HF Exchange    Energy =  -6.92903692008291
 Beta HF Exchange     Energy =  -6.74398016799876
 DFT Correlation      Energy =  -2.70065174176205
 DFT Exchange         Energy = -54.21606839067901
 One-Electron (alpha) Energy = -877.27797396163908
 One-Electron (beta)  Energy = -850.21126909454381
 Total Coulomb        Energy = 646.71246238311790
   10    -915.4113544205      1.24e-05  
 Alpha HF Exchange    Energy =  -6.92903482117131
 Beta HF Exchange     Energy =  -6.74399549011995
 DFT Correlation      Energy =  -2.70066056474226
 DFT Exchange         Energy = -54.21615456939715
 One-Electron (alpha) Energy = -877.27713468352943
 One-Electron (beta)  Energy = -850.21189369623016
 Total Coulomb        Energy = 646.71235367143834
   11    -915.4113566807      1.75e-06  
 Alpha HF Exchange    Energy =  -6.92904730467827
 Beta HF Exchange     Energy =  -6.74401023727626
 DFT Correlation      Energy =  -2.70066905688813
 DFT Exchange         Energy = -54.21627368562982
 One-Electron (alpha) Energy = -877.27827370544173
 One-Electron (beta)  Energy = -850.21344527059489
 Total Coulomb        Energy = 646.71519906730111
   12    -915.4113567202      9.37e-07  Convergence criterion met
 ---------------------------------------
 SCF time:   CPU 34.94s  wall 3.00s 
<S^2> =          2.006218302
 Alpha HF Exchange    Energy =  -6.92904730467827
 Beta HF Exchange     Energy =  -6.74401023727626
 DFT Correlation      Energy =  -2.70066905688813
 DFT Exchange         Energy = -54.21627368562982
 One-Electron (alpha) Energy = -877.27827370544173
 One-Electron (beta)  Energy = -850.21344527059489
 Total Coulomb        Energy = 646.71519906730111
 Nuclear repulsion Energy = 235.95516347305400
 SCF   energy in the final basis set =     -915.4113567202
 Total energy in the final basis set =     -915.4113567202
 
 --------------------------------------------------------------
 
                    Orbital Energies (a.u.)
 --------------------------------------------------------------
 
 Alpha MOs
 -- Occupied --
-88.896 -88.879 -10.233 -10.220 -10.211  -7.958  -7.942  -5.929
 -5.919  -5.910  -5.907  -5.903  -5.896  -0.824  -0.753  -0.728
 -0.658  -0.601  -0.494  -0.458  -0.430  -0.424  -0.396  -0.384
 -0.362  -0.334  -0.310  -0.263  -0.242  -0.231
 -- Virtual --
  0.021   0.063   0.083   0.094   0.120   0.129   0.140   0.154
  0.188   0.199   0.246   0.276   0.338   0.341   0.350   0.359
  0.374   0.382   0.385   0.486   0.509   0.513   0.568   0.574
  0.619   0.645   0.692   0.720   0.732   0.736   0.743   0.748
  0.753   0.754   0.822   0.835   0.855   0.863   0.874   0.890
  0.903   0.919   0.979   1.098   1.136   1.147   1.193   1.289
  1.319   1.397   1.526   1.539   1.661   1.670   1.796   1.846
  1.923   1.947   1.984   2.054   2.061   2.065   2.093   2.109
  2.145   2.203   2.210   2.229   2.325   2.342   2.449   2.470
  2.473   2.595   2.598   2.687   2.747   2.762   2.775   2.787
  2.830   2.863   3.195   3.260   3.351   3.360   3.456   3.523
  3.934   3.978   4.235   4.412   4.604
 
 Beta MOs
 -- Occupied --
-88.890 -88.879 -10.231 -10.212 -10.207  -7.952  -7.942  -5.914
 -5.911  -5.907  -5.906  -5.903  -5.896  -0.817  -0.741  -0.686
 -0.642  -0.593  -0.490  -0.454  -0.425  -0.408  -0.383  -0.377
 -0.360  -0.333  -0.247  -0.242
 -- Virtual --
 -0.167  -0.090   0.023   0.067   0.098   0.109   0.122   0.132
  0.146   0.155   0.192   0.203   0.255   0.294   0.350   0.356
  0.362   0.376   0.378   0.386   0.387   0.493   0.515   0.527
  0.571   0.588   0.627   0.650   0.726   0.734   0.748   0.753
  0.760   0.772   0.803   0.808   0.826   0.837   0.856   0.866
  0.882   0.895   0.906   0.931   0.984   1.106   1.140   1.150
  1.195   1.303   1.329   1.421   1.540   1.549   1.662   1.692
  1.804   1.850   1.926   1.983   2.002   2.055   2.062   2.066
  2.093   2.107   2.145   2.205   2.216   2.229   2.327   2.350
  2.463   2.476   2.486   2.597   2.611   2.694   2.748   2.763
  2.778   2.790   2.833   2.867   3.197   3.263   3.353   3.363
  3.462   3.526   3.954   3.978   4.245   4.431   4.610
 --------------------------------------------------------------
 
          Ground-State Mulliken Net Atomic Charges

     Atom                 Charge (a.u.)    Spin (a.u.)
  --------------------------------------------------------
      1 S                    -0.044979       0.020493
      2 S                    -0.083612       1.104811
      3 C                    -0.193656      -0.066742
      4 C                    -0.319403       0.045225
      5 C                    -0.257557       0.988568
      6 H                     0.131824       0.009989
      7 H                     0.133016       0.013230
      8 H                     0.139406      -0.000705
      9 H                     0.139112      -0.000908
     10 H                     0.129777      -0.040103
     11 H                     0.129550      -0.040066
     12 H                     0.058685       0.000421
     13 H                     0.037837      -0.034212
  --------------------------------------------------------
  Sum of atomic charges =    -0.000000
  Sum of spin   charges =     2.000000

 -----------------------------------------------------------------
                    Cartesian Multipole Moments
 -----------------------------------------------------------------
    Charge (ESU x 10^10)
                 0.0000
    Dipole Moment (Debye)
         X       1.0359      Y      -2.7145      Z      -0.2473
       Tot       2.9159
    Quadrupole Moments (Debye-Ang)
        XX     -56.1222     XY      -0.9803     YY     -49.6224
        XZ       0.0236     YZ      -0.3598     ZZ     -46.6852
    Octopole Moments (Debye-Ang^2)
       XXX      77.3848    XXY     -39.0052    XYY      13.8898
       YYY     -57.3442    XXZ     -12.6955    XYZ       2.3759
       YYZ      -7.2275    XZZ      -0.5191    YZZ     -18.0470
       ZZZ     -17.6960
    Hexadecapole Moments (Debye-Ang^3)
      XXXX   -2113.9020   XXXY     151.2520   XXYY    -400.0390
      XYYY     178.6559   YYYY    -324.3733   XXXZ      63.0559
      XXYZ      -9.2723   XYYZ      25.5006   YYYZ     -24.1832
      XXZZ    -350.9815   XYZZ      47.2013   YYZZ     -62.9717
      XZZZ      59.1277   YZZZ     -18.5578   ZZZZ     -87.9268
 -----------------------------------------------------------------
 Calculating analytic gradient of the SCF energy
 Gradient of SCF Energy
            1           2           3           4           5           6
    1   0.0000258   0.0106711  -0.0002390   0.0000254  -0.0010177   0.0000252
    2  -0.0000173  -0.0089403   0.0000599   0.0000088   0.0008274  -0.0000042
    3   0.0000001  -0.0007897   0.0000198   0.0000011   0.0000065   0.0000154
            7           8           9          10          11          12
    1   0.0000267  -0.0000105  -0.0000069  -0.0001719  -0.0001666   0.0000135
    2  -0.0000049   0.0000018   0.0000013   0.0002220   0.0002167   0.0000018
    3  -0.0000249   0.0000042   0.0000050   0.0000378   0.0000109   0.0000075
           13
    1  -0.0091752
    2   0.0076270
    3   0.0007063
 Max gradient component =       1.067E-02
 RMS gradient           =       2.949E-03
 Gradient time:  CPU 10.58 s  wall 0.94 s
 Geometry Optimization Parameters
   NAtoms,    NIC,     NZ,  NCons,   NDum,   NFix, NCnnct, MaxDiis
       13      82       0       1       0       0       0       0

 Cartesian Hessian Update
 Hessian Updated using BFGS Update


** CONSTRAINED OPTIMIZATION IN DELOCALIZED INTERNAL COORDINATES **
   Searching for a Minimum

   Optimization Cycle:   3

                       Coordinates (Angstroms)
     ATOM                X               Y               Z
      1  S         2.8686493595    0.4849847505   -0.0215142437
      2  S        -3.6918911289    1.4390436138    0.3708744943
      3  C         0.1214943358    0.1510137339    0.1516799133
      4  C         1.4197219495   -0.6662282756   -0.0342769230
      5  C        -1.0843134608   -0.7305984096    0.1402198706
      6  H         0.1851343138    0.7005646209    1.0981017417
      7  H         0.0602981098    0.8946196109   -0.6521641170
      8  H         1.5277336771   -1.3922429873    0.7753536332
      9  H         1.3942006801   -1.2023946802   -0.9862651423
     10  H        -1.3818696415   -1.2619248043    1.0401585939
     11  H        -1.4694036087   -1.1133670048   -0.8012306994
     12  H         3.8166120391   -0.4540385962   -0.2095664953
     13  H        -2.6581666248    0.5741744282    0.3075253735
   Point Group: c1    Number of degrees of freedom:    33


   Energy is   -915.411356720

              Constraints and their Current Values
                                        Value     Constraint
   Distance(Angs):        2   5             3.400001     3.400000
 Hessian Updated using BFGS Update

   Using Lagrange Multiplier Algorithm


 34 Hessian modes will be used to form the next step
  Hessian Eigenvalues:
    -0.946283    0.045000    0.045000    0.045000    0.062888    0.069310
     0.078551    0.079584    0.085113    0.089288    0.102010    0.123329
     0.130553    0.130933    0.142241    0.159999    0.160013    0.160014
     0.160361    0.199997    0.200224    0.219347    0.220762    0.225062
     0.258311    0.280544    0.330499    0.340471    0.341035    0.344806
     0.344882    0.351899    0.352101    1.067885

 Minimum Search - Taking P-RFO Step
 Searching for Lamda that Maximizes Along the Constraint modes Only
 Value Taken    Lamda =   0.00000085
 Searching for Lamda that Minimizes Along All other modes
 Value Taken    Lamda =  -0.00054420
 Step Taken.  Stepsize is  0.064515

                             Maximum     Tolerance    Cnvgd?
         Gradient            0.007013       0.000300      NO
         Displacement        0.056271       0.001200      NO
         Energy change     -0.000858       0.000001      NO


 New Cartesian Coordinates Obtained by Inverse Iteration

 Displacement from previous Coordinates is:  0.042711
 ----------------------------------------------------------------
             Standard Nuclear Orientation (Angstroms)
    I     Atom           X                Y                Z
 ----------------------------------------------------------------
    1      S       2.8665239073     0.4854258743    -0.0213968577
    2      S      -3.6918221024     1.4436074706     0.3706951905
    3      C       0.1201189249     0.1521730957     0.1520390062
    4      C       1.4177555610    -0.6657655907    -0.0340969400
    5      C      -1.0864268554    -0.7287145641     0.1405973882
    6      H       0.1837598052     0.7017079757     1.0984043781
    7      H       0.0590141653     0.8958278887    -0.6516919605
    8      H       1.5257793349    -1.3918827906     0.7754477614
    9      H       1.3920980736    -1.2018590333    -0.9861369196
   10      H      -1.3822203879    -1.2619295135     1.0400734918
   11      H      -1.4696446885    -1.1133074821    -0.8009308426
   12      H       3.8140516947    -0.4539410115    -0.2097574234
   13      H      -2.6407874326     0.5622636808     0.3056497277
 ----------------------------------------------------------------
 Nuclear Repulsion Energy =   235.9049090768 hartrees
 There are       30 alpha and       28 beta electrons

                       Distance Matrix (Angstroms)
             S (  1)   S (  2)   C (  3)   C (  4)   C (  5)   H (  6)
   S (  2)  6.639560
   C (  3)  2.771981  4.030696
   C (  4)  1.850495  5.542661  1.545164
   C (  5)  4.138381  3.400002  1.493937  2.511058
   H (  6)  2.915125  4.012494  1.096196  2.162242  2.139364
   H (  7)  2.906512  3.926081  1.096695  2.160133  2.139835  1.765243
   H (  8)  2.440665  5.952075  2.179135  1.092830  2.768835  2.507676
   H (  9)  2.439587  5.889459  2.178710  1.092902  2.763418  3.070661
   H ( 10)  4.715061  3.619704  2.246178  3.057633  1.086678  2.512284
   H ( 11)  4.686788  3.584494  2.244313  3.020829  1.086850  3.104110
   H ( 12)  1.347479  7.763746  3.760773  2.412045  4.920664  4.028130
   H ( 13)  5.517549  1.373198  2.795420  4.253852  2.027290  2.937000
             H (  7)   H (  8)   H (  9)   H ( 10)   H ( 11)   H ( 12)
   H (  8)  3.069487
   H (  9)  2.507839  1.776840
   H ( 10)  3.097603  2.922906  3.435983
   H ( 11)  2.528971  3.396342  2.869096  1.849062
   H ( 12)  4.014659  2.662058  2.651039  5.405198  5.357397
   H ( 13)  2.883868  4.625979  4.587484  2.334748  2.324572  6.554637

 
 Applying Cartesian multipole field
    Component          Value
    ---------          -----
     (2,0,0)        1.00000E-11
     (0,2,0)        2.00000E-11
     (0,0,2)       -3.00000E-10
 Nucleus-field energy     =     0.0000000098 hartrees
 Requested basis set is 6-31G(d,p)
 There are 46 shells and 123 basis functions
 A cutoff of  1.0D-14 yielded    975 shell pairs
 There are      6981 function pairs
 Smallest overlap matrix eigenvalue = 5.44E-03
 Guess from superposition of atomic densities
 Warning:  Energy on first SCF cycle will be non-variational
 SAD guess density has 58.000000 electrons

 -----------------------------------------------------------------------
  General SCF calculation program by
  Eric Jon Sundstrom, Paul Horn, Yuezhi Mao, Dmitri Zuev, Alec White,
  David Stuck, Shaama M.S., Shane Yost, Joonho Lee, David Small,
  Daniel Levine, Susi Lehtola, Hugh Burton, Evgeny Epifanovsky
 -----------------------------------------------------------------------
 Exchange:     0.2000 Hartree-Fock + 0.0800 Slater + 0.7200 B88
 Correlation:  0.1900 VWN1RPA + 0.8100 LYP
 Using SG-1 standard quadrature grid
 using 12 threads for integral computing
 -------------------------------------------------------
 OpenMP Integral computing Module                
 Release: version 1.0, May 2013, Q-Chem Inc. Pittsburgh 
 -------------------------------------------------------
 -------------------------------------------------------
 OpenMP BLAS3 based DFT computing Module                
 Release: version 1.0, May 2013, Q-Chem Inc. Pittsburgh 
 -------------------------------------------------------
 A unrestricted SCF calculation will be
 performed using DIIS
 SCF converges when DIIS error is below 1.0e-06
 Alpha HF Exchange    Energy =  -6.82537187813178
 Beta HF Exchange     Energy =  -6.82537187813178
 DFT Correlation      Energy =  -2.69742905584340
 DFT Exchange         Energy = -53.81297249766780
 One-Electron (alpha) Energy = -861.87760733480832
 One-Electron (beta)  Energy = -861.87760733480832
 Total Coulomb        Energy = 642.20716788461425
 ---------------------------------------
  Cycle       Energy         DIIS error
 ---------------------------------------
    1    -915.8042830082      2.60e-02  
 Alpha HF Exchange    Energy =  -6.95153033520032
 Beta HF Exchange     Energy =  -6.76395532180402
 DFT Correlation      Energy =  -2.71432756706166
 DFT Exchange         Energy = -54.41363095011702
 One-Electron (alpha) Energy = -878.81002270133524
 One-Electron (beta)  Energy = -850.66837802180964
 Total Coulomb        Energy = 649.35137722998968
    2    -915.0655585807      3.85e-03  
 Alpha HF Exchange    Energy =  -6.93262365429896
 Beta HF Exchange     Energy =  -6.75204568734072
 DFT Correlation      Energy =  -2.70682131090572
 DFT Exchange         Energy = -54.29132241610135
 One-Electron (alpha) Energy = -876.81828498728657
 One-Electron (beta)  Energy = -850.10158599773877
 Total Coulomb        Energy = 652.51167809348976
    3    -909.1860968736      1.47e-02  
 Alpha HF Exchange    Energy =  -6.90721262844903
 Beta HF Exchange     Energy =  -6.72748186834071
 DFT Correlation      Energy =  -2.69321628756283
 DFT Exchange         Energy = -54.06136928828255
 One-Electron (alpha) Energy = -876.05661726709491
 One-Electron (beta)  Energy = -849.28608793567389
 Total Coulomb        Energy = 644.50114111113078
    4    -915.3259350777      2.99e-03  
 Alpha HF Exchange    Energy =  -6.92544734474913
 Beta HF Exchange     Energy =  -6.74161392704614
 DFT Correlation      Energy =  -2.70117656841503
 DFT Exchange         Energy = -54.19857543737981
 One-Electron (alpha) Energy = -877.17705354992347
 One-Electron (beta)  Energy = -850.22918554364333
 Total Coulomb        Energy = 646.67999053208064
    5    -915.3881527525      1.37e-03  
 Alpha HF Exchange    Energy =  -6.92564217449635
 Beta HF Exchange     Energy =  -6.74121606593568
 DFT Correlation      Energy =  -2.70014759487390
 DFT Exchange         Energy = -54.19427676666118
 One-Electron (alpha) Energy = -877.11536173530317
 One-Electron (beta)  Energy = -850.10718788913107
 Total Coulomb        Energy = 646.47649721515006
    6    -915.4024259246      7.87e-04  
 Alpha HF Exchange    Energy =  -6.92649033077777
 Beta HF Exchange     Energy =  -6.74175824109613
 DFT Correlation      Energy =  -2.70015474557712
 DFT Exchange         Energy = -54.19859630372386
 One-Electron (alpha) Energy = -877.16631828531774
 One-Electron (beta)  Energy = -850.11671155950648
 Total Coulomb        Energy = 646.53546916842902
    7    -915.4096512110      3.99e-04  
 Alpha HF Exchange    Energy =  -6.92809223749924
 Beta HF Exchange     Energy =  -6.74280724843693
 DFT Correlation      Energy =  -2.70049146174989
 DFT Exchange         Energy = -54.20891325412597
 One-Electron (alpha) Energy = -877.22119292099535
 One-Electron (beta)  Energy = -850.14881227175078
 Total Coulomb        Energy = 646.63400068663168
    8    -915.4113996213      1.41e-04  
 Alpha HF Exchange    Energy =  -6.92832525836519
 Beta HF Exchange     Energy =  -6.74309895995250
 DFT Correlation      Energy =  -2.70051917174288
 DFT Exchange         Energy = -54.21095536226112
 One-Electron (alpha) Energy = -877.23433053735494
 One-Electron (beta)  Energy = -850.15841346259015
 Total Coulomb        Energy = 646.65907612421995
    9    -915.4116575414      3.19e-05  
 Alpha HF Exchange    Energy =  -6.92830280008315
 Beta HF Exchange     Energy =  -6.74307626112656
 DFT Correlation      Energy =  -2.70053391166486
 DFT Exchange         Energy = -54.21084673556157
 One-Electron (alpha) Energy = -877.23234990447418
 One-Electron (beta)  Energy = -850.15913247331866
 Total Coulomb        Energy = 646.65766488069778
   10    -915.4116681189      1.07e-05  
 Alpha HF Exchange    Energy =  -6.92829726470528
 Beta HF Exchange     Energy =  -6.74309485303447
 DFT Correlation      Energy =  -2.70054228196501
 DFT Exchange         Energy = -54.21093068243418
 One-Electron (alpha) Energy = -877.23155639540346
 One-Electron (beta)  Energy = -850.16014365027274
 Total Coulomb        Energy = 646.65798620141402
   11    -915.4116698398      1.70e-06  
 Alpha HF Exchange    Energy =  -6.92830748588547
 Beta HF Exchange     Energy =  -6.74310713880741
 DFT Correlation      Energy =  -2.70054963336594
 DFT Exchange         Energy = -54.21103095615058
 One-Electron (alpha) Energy = -877.23237346719282
 One-Electron (beta)  Energy = -850.16145586632797
 Total Coulomb        Energy = 646.66024557980927
   12    -915.4116698813      8.41e-07  Convergence criterion met
 ---------------------------------------
 SCF time:   CPU 35.11s  wall 3.00s 
<S^2> =          2.006363496
 Alpha HF Exchange    Energy =  -6.92830748588547
 Beta HF Exchange     Energy =  -6.74310713880741
 DFT Correlation      Energy =  -2.70054963336594
 DFT Exchange         Energy = -54.21103095615058
 One-Electron (alpha) Energy = -877.23237346719282
 One-Electron (beta)  Energy = -850.16145586632797
 Total Coulomb        Energy = 646.66024557980927
 Nuclear repulsion Energy = 235.90490908660280
 SCF   energy in the final basis set =     -915.4116698813
 Total energy in the final basis set =     -915.4116698813
 
 --------------------------------------------------------------
 
                    Orbital Energies (a.u.)
 --------------------------------------------------------------
 
 Alpha MOs
 -- Occupied --
-88.896 -88.880 -10.233 -10.221 -10.212  -7.958  -7.942  -5.929
 -5.919  -5.910  -5.907  -5.903  -5.896  -0.824  -0.753  -0.724
 -0.658  -0.602  -0.494  -0.458  -0.431  -0.424  -0.395  -0.384
 -0.363  -0.335  -0.310  -0.262  -0.243  -0.231
 -- Virtual --
  0.020   0.062   0.080   0.093   0.119   0.129   0.140   0.154
  0.188   0.198   0.246   0.279   0.339   0.341   0.350   0.359
  0.374   0.382   0.385   0.486   0.509   0.513   0.567   0.574
  0.619   0.645   0.693   0.721   0.732   0.736   0.745   0.749
  0.753   0.755   0.822   0.834   0.854   0.863   0.874   0.890
  0.903   0.918   0.978   1.095   1.135   1.144   1.186   1.290
  1.318   1.396   1.526   1.539   1.660   1.669   1.795   1.845
  1.921   1.945   1.984   2.052   2.060   2.063   2.092   2.106
  2.144   2.202   2.210   2.228   2.325   2.341   2.444   2.470
  2.472   2.593   2.597   2.687   2.746   2.752   2.762   2.783
  2.829   2.862   3.195   3.259   3.350   3.359   3.456   3.523
  3.933   3.978   4.235   4.412   4.605
 
 Beta MOs
 -- Occupied --
-88.890 -88.879 -10.232 -10.212 -10.208  -7.952  -7.942  -5.914
 -5.911  -5.907  -5.906  -5.903  -5.896  -0.817  -0.741  -0.682
 -0.642  -0.594  -0.491  -0.454  -0.425  -0.408  -0.381  -0.376
 -0.360  -0.333  -0.246  -0.242
 -- Virtual --
 -0.166  -0.092   0.023   0.066   0.098   0.106   0.121   0.132
  0.146   0.155   0.192   0.202   0.255   0.297   0.350   0.356
  0.362   0.376   0.378   0.385   0.387   0.492   0.515   0.526
  0.570   0.587   0.627   0.649   0.726   0.734   0.748   0.755
  0.762   0.773   0.804   0.809   0.826   0.837   0.856   0.865
  0.882   0.895   0.906   0.930   0.983   1.103   1.139   1.147
  1.187   1.304   1.328   1.419   1.540   1.549   1.661   1.691
  1.803   1.849   1.925   1.982   2.001   2.053   2.060   2.064
  2.093   2.104   2.145   2.204   2.215   2.229   2.326   2.350
  2.458   2.476   2.484   2.595   2.611   2.694   2.748   2.756
  2.763   2.786   2.832   2.866   3.197   3.262   3.352   3.362
  3.462   3.525   3.953   3.978   4.245   4.431   4.610
 --------------------------------------------------------------
 
          Ground-State Mulliken Net Atomic Charges

     Atom                 Charge (a.u.)    Spin (a.u.)
  --------------------------------------------------------
      1 S                    -0.044446       0.020347
      2 S                    -0.085283       1.115644
      3 C                    -0.193271      -0.066012
      4 C                    -0.319707       0.044898
      5 C                    -0.257544       0.980079
      6 H                     0.132427       0.009878
      7 H                     0.133400       0.013104
      8 H                     0.139525      -0.000711
      9 H                     0.139227      -0.000912
     10 H                     0.130839      -0.039559
     11 H                     0.130796      -0.039512
     12 H                     0.058767       0.000428
     13 H                     0.035272      -0.037673
  --------------------------------------------------------
  Sum of atomic charges =     0.000000
  Sum of spin   charges =     2.000000

 -----------------------------------------------------------------
                    Cartesian Multipole Moments
 -----------------------------------------------------------------
    Charge (ESU x 10^10)
                -0.0000
    Dipole Moment (Debye)
         X       1.0831      Y      -2.7419      Z      -0.2515
       Tot       2.9588
    Quadrupole Moments (Debye-Ang)
        XX     -56.2487     XY      -0.9144     YY     -49.6234
        XZ      -0.0141     YZ      -0.4278     ZZ     -46.7169
    Octopole Moments (Debye-Ang^2)
       XXX      78.2101    XXY     -39.2127    XYY      14.0018
       YYY     -57.6490    XXZ     -12.3603    XYZ       2.5443
       YYZ      -7.4177    XZZ      -0.3689    YZZ     -18.2146
       ZZZ     -17.7461
    Hexadecapole Moments (Debye-Ang^3)
      XXXX   -2114.4546   XXXY     152.4966   XXYY    -400.0460
      XYYY     179.2962   YYYY    -325.2740   XXXZ      60.9405
      XXYZ      -9.6428   XYYZ      26.0372   YYYZ     -24.7187
      XXZZ    -350.8191   XYZZ      47.6236   YYZZ     -63.2802
      XZZZ      59.1220   YZZZ     -18.7457   ZZZZ     -87.9875
 -----------------------------------------------------------------
 Calculating analytic gradient of the SCF energy
 Gradient of SCF Energy
            1           2           3           4           5           6
    1  -0.0000070   0.0026986  -0.0001735   0.0000496  -0.0004556   0.0000119
    2   0.0000134  -0.0022501   0.0000487   0.0000095   0.0003571   0.0000093
    3   0.0000034  -0.0003237   0.0000052   0.0000052  -0.0000386   0.0000006
            7           8           9          10          11          12
    1   0.0000156  -0.0000041   0.0000014  -0.0002354  -0.0002263  -0.0000183
    2   0.0000021  -0.0000051  -0.0000051   0.0002656   0.0002689  -0.0000123
    3  -0.0000035  -0.0000038   0.0000041   0.0000495   0.0000090   0.0000084
           13
    1  -0.0016569
    2   0.0012979
    3   0.0002841
 Max gradient component =       2.699E-03
 RMS gradient           =       6.715E-04
 Gradient time:  CPU 10.47 s  wall 0.90 s
 Geometry Optimization Parameters
   NAtoms,    NIC,     NZ,  NCons,   NDum,   NFix, NCnnct, MaxDiis
       13      82       0       1       0       0       0       0

 Cartesian Hessian Update
 Hessian Updated using BFGS Update


** CONSTRAINED OPTIMIZATION IN DELOCALIZED INTERNAL COORDINATES **
   Searching for a Minimum

   Optimization Cycle:   4

                       Coordinates (Angstroms)
     ATOM                X               Y               Z
      1  S         2.8665239073    0.4854258743   -0.0213968577
      2  S        -3.6918221024    1.4436074706    0.3706951905
      3  C         0.1201189249    0.1521730957    0.1520390062
      4  C         1.4177555610   -0.6657655907   -0.0340969400
      5  C        -1.0864268554   -0.7287145641    0.1405973882
      6  H         0.1837598052    0.7017079757    1.0984043781
      7  H         0.0590141653    0.8958278887   -0.6516919605
      8  H         1.5257793349   -1.3918827906    0.7754477614
      9  H         1.3920980736   -1.2018590333   -0.9861369196
     10  H        -1.3822203879   -1.2619295135    1.0400734918
     11  H        -1.4696446885   -1.1133074821   -0.8009308426
     12  H         3.8140516947   -0.4539410115   -0.2097574234
     13  H        -2.6407874326    0.5622636808    0.3056497277
   Point Group: c1    Number of degrees of freedom:    33


   Energy is   -915.411669881

              Constraints and their Current Values
                                        Value     Constraint
   Distance(Angs):        2   5             3.400002     3.400000
 Hessian Updated using BFGS Update

   Using Lagrange Multiplier Algorithm


 34 Hessian modes will be used to form the next step
  Hessian Eigenvalues:
    -0.950052    0.045000    0.045000    0.045000    0.060926    0.069311
     0.078552    0.079584    0.085112    0.089290    0.101915    0.110487
     0.123336    0.130828    0.142241    0.160010    0.160013    0.160022
     0.160779    0.200004    0.200506    0.219386    0.220764    0.225062
     0.258312    0.280543    0.330495    0.340471    0.341035    0.344806
     0.344882    0.351899    0.352100    1.060669

 Minimum Search - Taking P-RFO Step
 Searching for Lamda that Maximizes Along the Constraint modes Only
 Value Taken    Lamda =   0.00000041
 Searching for Lamda that Minimizes Along All other modes
 Value Taken    Lamda =  -0.00002652
 Step Taken.  Stepsize is  0.017177

                             Maximum     Tolerance    Cnvgd?
         Gradient            0.001444       0.000300      NO
         Displacement        0.016599       0.001200      NO
         Energy change     -0.000313       0.000001      NO


 New Cartesian Coordinates Obtained by Inverse Iteration

 Displacement from previous Coordinates is:  0.011638
 ----------------------------------------------------------------
             Standard Nuclear Orientation (Angstroms)
    I     Atom           X                Y                Z
 ----------------------------------------------------------------
    1      S       2.8664340868     0.4847563126    -0.0214061743
    2      S      -3.6928044859     1.4443603949     0.3713559351
    3      C       0.1197451925     0.1532387730     0.1520141402
    4      C       1.4168711404    -0.6654722957    -0.0339912041
    5      C      -1.0870736628    -0.7274811571     0.1405503611
    6      H       0.1834229773     0.7027893577     1.0983441456
    7      H       0.0588028838     0.8968420338    -0.6517596583
[...]
   C (  4)  1.850561  5.543052  1.545022
   C (  5)  4.138123  3.400000  1.494370  2.509974
   H (  6)  2.916045  4.010737  1.096150  2.162416  2.139749
   H (  7)  2.907391  3.930414  1.096639  2.160504  2.140282  1.765324
   H (  8)  2.440558  5.949672  2.179021  1.092852  2.767465  2.507580
   H (  9)  2.439564  5.891339  2.178675  1.092907  2.761942  3.070827
   H ( 10)  4.706977  3.631969  2.244488  3.046289  1.086960  2.513901
   H ( 11)  4.679476  3.602084  2.242849  3.010649  1.087116  3.104866
   H ( 12)  1.347502  7.765710  3.760917  2.412249  4.919861  4.028961
   H ( 13)  5.513823  1.379817  2.790310  4.247427  2.020514  2.932362
             H (  7)   H (  8)   H (  9)   H ( 10)   H ( 11)   H ( 12)
   H (  8)  3.069735
   H (  9)  2.508351  1.776889
   H ( 10)  3.098823  2.907902  3.422938
   H ( 11)  2.530888  3.384592  2.855819  1.847326
   H ( 12)  4.015558  2.662118  2.651060  5.393107  5.346487
   H ( 13)  2.881369  4.618070  4.581032  2.342093  2.332926  6.549649

 
 Applying Cartesian multipole field
    Component          Value
    ---------          -----
     (2,0,0)        1.00000E-11
     (0,2,0)        2.00000E-11
     (0,0,2)       -3.00000E-10
 Nucleus-field energy     =     0.0000000097 hartrees
 Requested basis set is 6-31G(d,p)
 There are 46 shells and 123 basis functions
 A cutoff of  1.0D-14 yielded    974 shell pairs
 There are      6969 function pairs
 Smallest overlap matrix eigenvalue = 5.44E-03
 Guess from superposition of atomic densities
 Warning:  Energy on first SCF cycle will be non-variational
 SAD guess density has 58.000000 electrons

 -----------------------------------------------------------------------
  General SCF calculation program by
  Eric Jon Sundstrom, Paul Horn, Yuezhi Mao, Dmitri Zuev, Alec White,
  David Stuck, Shaama M.S., Shane Yost, Joonho Lee, David Small,
  Daniel Levine, Susi Lehtola, Hugh Burton, Evgeny Epifanovsky
 -----------------------------------------------------------------------
 Exchange:     0.2000 Hartree-Fock + 0.0800 Slater + 0.7200 B88
 Correlation:  0.1900 VWN1RPA + 0.8100 LYP
 Using SG-1 standard quadrature grid
 using 12 threads for integral computing
 -------------------------------------------------------
 OpenMP Integral computing Module                
 Release: version 1.0, May 2013, Q-Chem Inc. Pittsburgh 
 -------------------------------------------------------
 -------------------------------------------------------
 OpenMP BLAS3 based DFT computing Module                
 Release: version 1.0, May 2013, Q-Chem Inc. Pittsburgh 
 -------------------------------------------------------
 A unrestricted SCF calculation will be
 performed using DIIS
 SCF converges when DIIS error is below 1.0e-06
 Alpha HF Exchange    Energy =  -6.82508391788396
 Beta HF Exchange     Energy =  -6.82508391788396
 DFT Correlation      Energy =  -2.69737608804516
 DFT Exchange         Energy = -53.81222689594880
 One-Electron (alpha) Energy = -861.84264949115095
 One-Electron (beta)  Energy = -861.84264949115095
 Total Coulomb        Energy = 642.17659734457982
 ---------------------------------------
  Cycle       Energy         DIIS error
 ---------------------------------------
    1    -915.8014571743      2.60e-02  
 Alpha HF Exchange    Energy =  -6.95127113068492
 Beta HF Exchange     Energy =  -6.76326727430624
 DFT Correlation      Energy =  -2.71430509222106
 DFT Exchange         Energy = -54.41126078623942
 One-Electron (alpha) Energy = -878.76985631466641
 One-Electron (beta)  Energy = -850.62935798484989
 Total Coulomb        Energy = 649.30491836111503
    2    -915.0673849386      3.85e-03  
 Alpha HF Exchange    Energy =  -6.93237110581225
 Beta HF Exchange     Energy =  -6.75033903655850
 DFT Correlation      Energy =  -2.70698170949305
 DFT Exchange         Energy = -54.28634602804262
 One-Electron (alpha) Energy = -876.78040394959532
 One-Electron (beta)  Energy = -850.05401267472712
 Total Coulomb        Energy = 652.39174878724566
    3    -909.2516904338      1.48e-02  
 Alpha HF Exchange    Energy =  -6.90691106125513
 Beta HF Exchange     Energy =  -6.72716873881351
 DFT Correlation      Energy =  -2.69314706099377
 DFT Exchange         Energy = -54.05949827934069
 One-Electron (alpha) Energy = -876.01674626614010
 One-Electron (beta)  Energy = -849.25071203614709
 Total Coulomb        Energy = 644.46276282091571
    4    -915.3244053386      3.01e-03  
 Alpha HF Exchange    Energy =  -6.92522717667391
 Beta HF Exchange     Energy =  -6.74122325391100
 DFT Correlation      Energy =  -2.70110744821593
 DFT Exchange         Energy = -54.19666751944072
 One-Electron (alpha) Energy = -877.13750289587426
 One-Electron (beta)  Energy = -850.18781523861617
 Total Coulomb        Energy = 646.63485446748587
    5    -915.3876737820      1.38e-03  
 Alpha HF Exchange    Energy =  -6.92543151859910
 Beta HF Exchange     Energy =  -6.74084097168067
 DFT Correlation      Energy =  -2.70007317240521
 DFT Exchange         Energy = -54.19238080451258
 One-Electron (alpha) Energy = -877.07728514876612
 One-Electron (beta)  Energy = -850.06560695241183
 Total Coulomb        Energy = 646.43226708884276
    6    -915.4023361963      7.90e-04  
 Alpha HF Exchange    Energy =  -6.92636830516705
 Beta HF Exchange     Energy =  -6.74144458920481
 DFT Correlation      Energy =  -2.70009991919864
 DFT Exchange         Energy = -54.19724997809747
 One-Electron (alpha) Energy = -877.13241566033980
 One-Electron (beta)  Energy = -850.07711272016661
 Total Coulomb        Energy = 646.49785980733373
    7    -915.4098160816      3.85e-04  
 Alpha HF Exchange    Energy =  -6.92794183410686
 Beta HF Exchange     Energy =  -6.74249670025291
 DFT Correlation      Energy =  -2.70043283593367
 DFT Exchange         Energy = -54.20747361600328
 One-Electron (alpha) Energy = -877.18632351639042
 One-Electron (beta)  Energy = -850.10941314993329
 Total Coulomb        Energy = 646.59561649613863
    8    -915.4114498733      1.35e-04  
 Alpha HF Exchange    Energy =  -6.92815287087169
 Beta HF Exchange     Energy =  -6.74277901265270
 DFT Correlation      Energy =  -2.70045741161165
 DFT Exchange         Energy = -54.20939183269586
 One-Electron (alpha) Energy = -877.19855982310844
 One-Electron (beta)  Energy = -850.11888435798107
 Total Coulomb        Energy = 646.61952698870823
    9    -915.4116830370      3.05e-05  
 Alpha HF Exchange    Energy =  -6.92812594525343
 Beta HF Exchange     Energy =  -6.74275498878940
 DFT Correlation      Energy =  -2.70047088144501
 DFT Exchange         Energy = -54.20925921615648
 One-Electron (alpha) Energy = -877.19630408866999
 One-Electron (beta)  Energy = -850.11953210644560
 Total Coulomb        Energy = 646.61773940587943
   10    -915.4116925377      1.00e-05  
 Alpha HF Exchange    Energy =  -6.92811875928691
 Beta HF Exchange     Energy =  -6.74277439125081
 DFT Correlation      Energy =  -2.70047882286199
 DFT Exchange         Energy = -54.20933844149970
 One-Electron (alpha) Energy = -877.19549225879723
 One-Electron (beta)  Energy = -850.12064713476684
 Total Coulomb        Energy = 646.61814048654401
   11    -915.4116940387      1.68e-06  
 Alpha HF Exchange    Energy =  -6.92812824222194
 Beta HF Exchange     Energy =  -6.74278585382089
 DFT Correlation      Energy =  -2.70048574037966
 DFT Exchange         Energy = -54.20943222536727
 One-Electron (alpha) Energy = -877.19620327253165
 One-Electron (beta)  Energy = -850.12187613452670
 Total Coulomb        Energy = 646.62020210607625
   12    -915.4116940796      8.32e-07  Convergence criterion met
 ---------------------------------------
 SCF time:   CPU 34.96s  wall 3.00s 
<S^2> =          2.006387715
 Alpha HF Exchange    Energy =  -6.92812824222194
 Beta HF Exchange     Energy =  -6.74278585382089
 DFT Correlation      Energy =  -2.70048574037966
 DFT Exchange         Energy = -54.20943222536727
 One-Electron (alpha) Energy = -877.19620327253165
 One-Electron (beta)  Energy = -850.12187613452670
 Total Coulomb        Energy = 646.62020210607625
 Nuclear repulsion Energy = 235.86701528321768
 SCF   energy in the final basis set =     -915.4116940796
 Total energy in the final basis set =     -915.4116940796
 
 --------------------------------------------------------------
 
                    Orbital Energies (a.u.)
 --------------------------------------------------------------
 
 Alpha MOs
 -- Occupied --
-88.896 -88.880 -10.233 -10.221 -10.212  -7.957  -7.942  -5.929
 -5.919  -5.910  -5.907  -5.904  -5.897  -0.824  -0.753  -0.723
 -0.658  -0.602  -0.495  -0.458  -0.431  -0.424  -0.394  -0.384
 -0.363  -0.335  -0.309  -0.262  -0.243  -0.232
 -- Virtual --
  0.020   0.062   0.080   0.093   0.119   0.129   0.139   0.154
  0.188   0.197   0.245   0.280   0.339   0.341   0.350   0.359
  0.374   0.382   0.385   0.486   0.508   0.513   0.567   0.574
  0.619   0.645   0.693   0.721   0.732   0.735   0.746   0.749
  0.752   0.754   0.823   0.834   0.854   0.863   0.874   0.890
  0.902   0.918   0.977   1.093   1.131   1.143   1.185   1.291
  1.317   1.393   1.532   1.540   1.660   1.668   1.794   1.844
  1.923   1.941   1.987   2.052   2.060   2.063   2.092   2.105
  2.144   2.202   2.211   2.228   2.323   2.338   2.448   2.465
  2.470   2.593   2.600   2.688   2.741   2.748   2.763   2.785
  2.827   2.862   3.195   3.257   3.349   3.357   3.458   3.521
  3.933   3.978   4.235   4.412   4.604
 
 Beta MOs
 -- Occupied --
-88.890 -88.880 -10.232 -10.212 -10.208  -7.951  -7.942  -5.914
 -5.910  -5.907  -5.906  -5.903  -5.897  -0.818  -0.741  -0.680
 -0.642  -0.594  -0.491  -0.454  -0.425  -0.408  -0.381  -0.376
 -0.360  -0.333  -0.246  -0.242
 -- Virtual --
 -0.166  -0.093   0.023   0.066   0.098   0.106   0.121   0.132
  0.146   0.156   0.192   0.201   0.254   0.298   0.350   0.356
  0.362   0.376   0.378   0.385   0.387   0.492   0.515   0.525
  0.570   0.587   0.627   0.649   0.724   0.734   0.748   0.756
  0.763   0.773   0.804   0.809   0.827   0.836   0.856   0.866
  0.883   0.895   0.906   0.930   0.983   1.102   1.135   1.145
  1.186   1.306   1.327   1.415   1.544   1.551   1.661   1.690
  1.802   1.849   1.927   1.979   2.002   2.052   2.060   2.064
  2.092   2.103   2.144   2.204   2.216   2.229   2.325   2.346
  2.461   2.475   2.479   2.595   2.613   2.695   2.745   2.749
  2.764   2.787   2.829   2.865   3.197   3.261   3.351   3.360
  3.464   3.523   3.953   3.978   4.245   4.431   4.610
 --------------------------------------------------------------
 
          Ground-State Mulliken Net Atomic Charges

     Atom                 Charge (a.u.)    Spin (a.u.)
  --------------------------------------------------------
      1 S                    -0.044124       0.020456
      2 S                    -0.085915       1.119652
      3 C                    -0.193307      -0.065167
      4 C                    -0.320006       0.044680
      5 C                    -0.256639       0.975798
      6 H                     0.132655       0.009681
      7 H                     0.133521       0.012766
      8 H                     0.139543      -0.000736
      9 H                     0.139249      -0.000930
     10 H                     0.130738      -0.038859
     11 H                     0.130693      -0.038823
     12 H                     0.058802       0.000477
     13 H                     0.034790      -0.038994
  --------------------------------------------------------
  Sum of atomic charges =     0.000000
  Sum of spin   charges =     2.000000

 -----------------------------------------------------------------
                    Cartesian Multipole Moments
 -----------------------------------------------------------------
    Charge (ESU x 10^10)
                 0.0000
    Dipole Moment (Debye)
         X       1.1104      Y      -2.7572      Z      -0.2602
       Tot       2.9838
    Quadrupole Moments (Debye-Ang)
        XX     -56.3441     XY      -0.8983     YY     -49.5886
        XZ       0.0248     YZ      -0.4527     ZZ     -46.7409
    Octopole Moments (Debye-Ang^2)
       XXX      78.7005    XXY     -39.2993    XYY      14.1003
       YYY     -57.8884    XXZ     -12.4865    XYZ       2.6061
       YYZ      -7.5707    XZZ      -0.2346    YZZ     -18.2903
       ZZZ     -18.0026
    Hexadecapole Moments (Debye-Ang^3)
      XXXX   -2116.1049   XXXY     153.3670   XXYY    -400.2568
      XYYY     180.2339   YYYY    -325.7341   XXXZ      62.3098
      XXYZ     -10.0013   XYYZ      26.5573   YYYZ     -25.3788
      XXZZ    -351.1456   XYZZ      47.9592   YYZZ     -63.4554
      XZZZ      60.1398   YZZZ     -19.2470   ZZZZ     -88.3941
 -----------------------------------------------------------------
 Calculating analytic gradient of the SCF energy
 Gradient of SCF Energy
            1           2           3           4           5           6
    1   0.0000034   0.0008067   0.0000406  -0.0000069  -0.0008958   0.0000046
    2  -0.0000061  -0.0006571  -0.0000226  -0.0000053   0.0008139  -0.0000090
    3   0.0000018  -0.0002010  -0.0000097  -0.0000030   0.0000160   0.0000016
            7           8           9          10          11          12
    1  -0.0000029  -0.0000034   0.0000005   0.0000152   0.0000298   0.0000005
    2  -0.0000009   0.0000001  -0.0000062  -0.0000191  -0.0000424  -0.0000074
    3  -0.0000004   0.0000076   0.0000064  -0.0000016   0.0000010   0.0000094
           13
    1   0.0000078
    2  -0.0000378
    3   0.0001718
 Max gradient component =       8.958E-04
 RMS gradient           =       2.594E-04
 Gradient time:  CPU 10.55 s  wall 0.94 s
 Geometry Optimization Parameters
   NAtoms,    NIC,     NZ,  NCons,   NDum,   NFix, NCnnct, MaxDiis
       13      82       0       1       0       0       0       0

 Cartesian Hessian Update
 Hessian Updated using BFGS Update


** CONSTRAINED OPTIMIZATION IN DELOCALIZED INTERNAL COORDINATES **
   Searching for a Minimum

   Optimization Cycle:   9

                       Coordinates (Angstroms)
     ATOM                X               Y               Z
      1  S         2.8659361729    0.4834426780   -0.0213298805
      2  S        -3.6939278563    1.4465692052    0.3780845211
      3  C         0.1186347090    0.1558222329    0.1506388178
      4  C         1.4147270082   -0.6647839706   -0.0333256361
      5  C        -1.0885911948   -0.7248688404    0.1391750067
      6  H         0.1818717075    0.7062258762    1.0964725145
      7  H         0.0587385535    0.8984834292   -0.6540256061
      8  H         1.5208708169   -1.3897915266    0.7774908377
      9  H         1.3888289945   -1.2023363574   -0.9845421507
     10  H        -1.3729175454   -1.2682968426    1.0365743069
     11  H        -1.4600262901   -1.1205812402   -0.8027745520
     12  H         3.8117704354   -0.4580653046   -0.2076689016
     13  H        -2.6377155114    0.5617866608    0.3041267224
   Point Group: c1    Number of degrees of freedom:    33


   Energy is   -915.411694080

              Constraints and their Current Values
                                        Value     Constraint
   Distance(Angs):        2   5             3.400000     3.400000
 Hessian Updated using BFGS Update

 32 Hessian modes will be used to form the next step
  Hessian Eigenvalues:
     0.012655    0.040865    0.045000    0.045002    0.063369    0.069352
     0.078747    0.079599    0.085122    0.089509    0.102061    0.123328
     0.130828    0.142242    0.155869    0.160016    0.160475    0.161602
     0.196290    0.200887    0.218860    0.220938    0.225202    0.258313
     0.280567    0.330345    0.340469    0.341032    0.344807    0.344881
     0.351863    0.352059

 Minimum Search - Taking Simple RFO Step
 Searching for Lamda that Minimizes Along All modes
 Value Taken    Lamda =   0.00000000
 Step Taken.  Stepsize is  0.003800

                             Maximum     Tolerance    Cnvgd?
         Gradient           0.000118      0.000300     YES
         Displacement       0.001559      0.001200      NO
         Energy change     -0.000001      0.000001     YES


                       Distance Matrix (Angstroms)
             S (  1)   S (  2)   C (  3)   C (  4)   C (  5)   H (  6)
   S (  2)  6.642211
   C (  3)  2.772106  4.031550
   C (  4)  1.850561  5.543052  1.545022
   C (  5)  4.138123  3.400000  1.494370  2.509974
   H (  6)  2.916045  4.010737  1.096150  2.162416  2.139749
   H (  7)  2.907391  3.930414  1.096639  2.160504  2.140282  1.765324
   H (  8)  2.440558  5.949672  2.179021  1.092852  2.767465  2.507580
   H (  9)  2.439564  5.891339  2.178675  1.092907  2.761942  3.070827
   H ( 10)  4.706977  3.631969  2.244488  3.046289  1.086960  2.513901
   H ( 11)  4.679476  3.602084  2.242849  3.010649  1.087116  3.104866
   H ( 12)  1.347502  7.765710  3.760917  2.412249  4.919861  4.028961
   H ( 13)  5.513823  1.379817  2.790310  4.247427  2.020514  2.932362
             H (  7)   H (  8)   H (  9)   H ( 10)   H ( 11)   H ( 12)
   H (  8)  3.069735
   H (  9)  2.508351  1.776889
   H ( 10)  3.098823  2.907902  3.422938
   H ( 11)  2.530888  3.384592  2.855819  1.847326
   H ( 12)  4.015558  2.662118  2.651060  5.393107  5.346487
   H ( 13)  2.881369  4.618070  4.581032  2.342093  2.332926  6.549649

 
 Final energy is   -915.411694079554     


 ******************************
 **  OPTIMIZATION CONVERGED  **
 ******************************

                       Coordinates (Angstroms)
     ATOM                X               Y               Z
      1  S         2.8659361729    0.4834426780   -0.0213298805
      2  S        -3.6939278563    1.4465692052    0.3780845211
      3  C         0.1186347090    0.1558222329    0.1506388178
      4  C         1.4147270082   -0.6647839706   -0.0333256361
      5  C        -1.0885911948   -0.7248688404    0.1391750067
      6  H         0.1818717075    0.7062258762    1.0964725145
      7  H         0.0587385535    0.8984834292   -0.6540256061
      8  H         1.5208708169   -1.3897915266    0.7774908377
      9  H         1.3888289945   -1.2023363574   -0.9845421507
     10  H        -1.3729175454   -1.2682968426    1.0365743069
     11  H        -1.4600262901   -1.1205812402   -0.8027745520
     12  H         3.8117704354   -0.4580653046   -0.2076689016
     13  H        -2.6377155114    0.5617866608    0.3041267224

Z-matrix Print:
$molecule
0 3
S 
H  1 1.347502
C  1 1.850561 2 96.662275
H  3 1.092852 1 109.308432 2 60.086342 0
H  3 1.092907 1 109.232880 2 -58.814897 0
C  3 1.545022 1 109.118765 2 -179.322652 0
H  6 1.096150 3 108.725758 1 -58.500572 0
H  6 1.096639 3 108.550438 1 57.839138 0
C  6 1.494370 3 111.331423 1 179.618731 0
H  9 1.086960 6 119.975186 3 80.761329 0
H  9 1.087116 6 119.813973 3 -76.349311 0
H  9 2.020514 6 104.090917 3 -177.421919 0
S  12 1.379817 9 178.371949 6 83.141712 0
$end

PES scan, value:    3.4000 energy: -915.4116940796
------- Summary of potential scan: ------ 
    3.4000      -915.4116940796
----------------------------------------- 
Archival summary:
1\1\hpc0250\JobtypUnspecified\ProcedureUnspecified\6-31G**\238(3)\knomura\ThuMar1408:31:292019ThuMar1408:31:292019\0\\#,JobtypUnspecified,ProcedureUnspecified,6-31G**,\\0,3\S\H,1,1.3475\C,1,1.85056,2,96.6623\H,3,1.09285,1,109.308,2,60.0863,0\H,3,1.09291,1,109.233,2,-58.8149,0\C,3,1.54502,1,109.119,2,-179.323,0\H,6,1.09615,3,108.726,1,-58.5006,0\H,6,1.09664,3,108.55,1,57.8391,0\C,6,1.49437,3,111.331,1,179.619,0\H,9,1.08696,6,119.975,3,80.7613,0\H,9,1.08712,6,119.814,3,-76.3493,0\H,9,2.02051,6,104.091,3,-177.422,0\S,12,1.37982,9,178.372,6,83.1417,0\\\@

 Total job time:  40.41s(wall), 463.04s(cpu) 
 Thu Mar 14 08:31:29 2019

        *************************************************************
        *                                                           *
        *  Thank you very much for using Q-Chem.  Have a nice day.  *
        *                                                           *
        *************************************************************


