
Running Job 1 of 1 thiol/04/C-S.xyz.data/inputs/bond_singlet_3.2.in
qchem thiol/04/C-S.xyz.data/inputs/bond_singlet_3.2.in_4611.0 /staging/scratch/2868767/qchem4611/ 1
/usr/usc/qchem/5.1.1/exe/qcprog.exe_s thiol/04/C-S.xyz.data/inputs/bond_singlet_3.2.in_4611.0 /staging/scratch/2868767/qchem4611/
Check license passed

                  Welcome to Q-Chem
     A Quantum Leap Into The Future Of Chemistry


 Q-Chem 5.1, Q-Chem, Inc., Pleasanton, CA (2018)

 Yihan Shao,  Zhengting Gan,  E. Epifanovsky,  A. T. B. Gilbert,  M. Wormit,  
 J. Kussmann,  A. W. Lange,  A. Behn,  Jia Deng,  Xintian Feng,  D. Ghosh,  
 M. Goldey,  P. R. Horn,  L. D. Jacobson,  I. Kaliman,  T. Kus,  A. Landau,  
 Jie Liu,  E. I. Proynov,  R. M. Richard,  R. P. Steele,  E. J. Sundstrom,  
 H. L. Woodcock III,  P. M. Zimmerman,  D. Zuev,  B. Albrecht,  E. Alguire,  
 S. A. Baeppler,  D. Barton,  Z. Benda,  Y. A. Bernard,  E. J. Berquist,  
 K. B. Bravaya,  H. Burton,  D. Casanova,  Chun-Min Chang,  Yunqing Chen,  
 A. Chien,  K. D. Closser,  M. P. Coons,  S. Coriani,  S. Dasgupta,  
 A. L. Dempwolff,  M. Diedenhofen,  Hainam Do,  R. G. Edgar,  Po-Tung Fang,  
 S. Faraji,  S. Fatehi,  Qingguo Feng,  K. D. Fenk,  J. Fosso-Tande,  
 Qinghui Ge,  A. Ghysels,  G. Gidofalvi,  J. Gomes,  J. Gonthier,  A. Gunina,  
 D. Hait,  M. W. D. Hanson-Heine,  P. H. P. Harbach,  A. W. Hauser,  
 J. E. Herr,  E. G. Hohenstein,  Z. C. Holden,  Kerwin Hui,  B. C. Huynh,  
 T.-C. Jagau,  Hyunjun Ji,  B. Kaduk,  K. Khistyaev,  Jaehoon Kim,  
 P. Klunzinger,  K. Koh,  D. Kosenkov,  L. Koulias,  T. Kowalczyk,  
 C. M. Krauter,  A. Kunitsa,  Ka Un Lao,  A. Laurent,  K. V. Lawler,  
 Joonho Lee,  D. Lefrancois,  S. Lehtola,  D. S. Levine,  Yi-Pei Li,  
 You-Sheng Lin,  Fenglai Liu,  E. Livshits,  A. Luenser,  P. Manohar,  
 E. Mansoor,  S. F. Manzer,  Shan-Ping Mao,  Yuezhi Mao,  N. Mardirossian,  
 A. V. Marenich,  T. Markovich,  L. A. Martinez-Martinez,  S. A. Maurer,  
 N. J. Mayhall,  S. C. McKenzie,  J.-M. Mewes,  A. F. Morrison,  
 J. W. Mullinax,  K. Nanda,  T. S. Nguyen-Beck,  R. Olivares-Amaya,  
 J. A. Parkhill,  T. M. Perrine,  F. Plasser,  P. Pokhilko,  S. Prager,  
 A. Prociuk,  E. Ramos,  D. R. Rehn,  F. Rob,  M. Schneider,  N. Sergueev,  
 S. M. Sharada,  S. Sharma,  D. W. Small,  T. Stauch,  T. Stein,  
 Yu-Chuan Su,  A. J. W. Thom,  A. Tkatchenko,  T. Tsuchimochi,  N. M. Tubman,  
 L. Vogt,  M. L. Vidal,  O. Vydrov,  M. A. Watson,  J. Wenzel,  
 M. de Wergifosse,  T. A. Wesolowski,  A. White,  J. Witte,  A. Yamada,  
 Jun Yang,  K. Yao,  S. Yeganeh,  S. R. Yost,  Zhi-Qiang You,  A. Zech,  
 Igor Ying Zhang,  Xing Zhang,  Yan Zhao,  Ying Zhu,  B. R. Brooks,  
 G. K. L. Chan,  C. J. Cramer,  M. S. Gordon,  W. J. Hehre,  A. Klamt,  
 M. W. Schmidt,  C. D. Sherrill,  D. G. Truhlar,  A. Aspuru-Guzik,  R. Baer,  
 A. T. Bell,  N. A. Besley,  Jeng-Da Chai,  A. E. DePrince, III,  
 R. A. DiStasio Jr.,  A. Dreuw,  B. D. Dunietz,  T. R. Furlani,  
 Chao-Ping Hsu,  Yousung Jung,  Jing Kong,  D. S. Lambrecht,  WanZhen Liang,  
 C. Ochsenfeld,  V. A. Rassolov,  L. V. Slipchenko,  J. E. Subotnik,  
 T. Van Voorhis,  J. M. Herbert,  A. I. Krylov,  P. M. W. Gill,  M. Head-Gordon

 Contributors to earlier versions of Q-Chem not listed above: 
 R. D. Adamson,  B. Austin,  J. Baker,  G. J. O. Beran,  K. Brandhorst,  
 S. T. Brown,  E. F. C. Byrd,  A. K. Chakraborty,  C.-L. Cheng,  
 Siu Hung Chien,  D. M. Chipman,  D. L. Crittenden,  H. Dachsel,  
 R. J. Doerksen,  A. D. Dutoi,  L. Fusti-Molnar,  W. A. Goddard III,  
 A. Golubeva-Zadorozhnaya,  S. R. Gwaltney,  G. Hawkins,  A. Heyden,  
 S. Hirata,  G. Kedziora,  F. J. Keil,  C. Kelley,  Jihan Kim,  R. A. King,  
 R. Z. Khaliullin,  P. P. Korambath,  W. Kurlancheek,  A. M. Lee,  M. S. Lee,  
 S. V. Levchenko,  Ching Yeh Lin,  D. Liotard,  R. C. Lochan,  I. Lotan,  
 P. E. Maslen,  N. Nair,  D. P. O'Neill,  D. Neuhauser,  E. Neuscamman,  
 C. M. Oana,  R. Olson,  B. Peters,  R. Peverati,  P. A. Pieniazek,  
 Y. M. Rhee,  J. Ritchie,  M. A. Rohrdanz,  E. Rosta,  N. J. Russ,  
 H. F. Schaefer III,  N. E. Schultz,  N. Shenvi,  A. C. Simmonett,  A. Sodt,  
 D. Stuck,  K. S. Thanthiriwatte,  V. Vanovschi,  Tao Wang,  A. Warshel,  
 C. F. Williams,  Q. Wu,  X. Xu,  W. Zhang

 Please cite Q-Chem as follows:
 Y. Shao et al., Mol. Phys. 113, 184-215 (2015)
 DOI: 10.1080/00268976.2014.952696

 Q-Chem 5.1.1 for Intel X86 EM64T Linux

 Parts of Q-Chem use Armadillo 8.300.2 (Tropical Shenanigans).
 http://arma.sourceforge.net/

 Q-Chem begins on Thu Mar 14 05:42:41 2019  

Host: 
0

     Scratch files written to /staging/scratch/2868767/qchem4611//
 Aug318 |scratch|qcdevops|jenkins|workspace|build_RNUM 6013   
Processing $rem in /usr/usc/qchem/5.1.1/config/preferences.
 MEM_TOTAL  2000 
Input Ideriv = 2
Curr. Ideriv = -1
Max.  Ideriv = 2

Checking the input file for inconsistencies... 	...done.

--------------------------------------------------------------
User input:
--------------------------------------------------------------

$comment
potential surface scanner
$end

$rem
JOBTYPE  PES_SCAN
UNRESTRICTED TRUE
SYM_IGNORE  TRUE
GEOM_OPT_MAX_CYCLES 400
SCF_MAX_CYCLES 400
METHOD   B3LYP
BASIS   6-31G**
PDB_PRINT 2
SCF_CONVERGENCE 6
THRESH 14
SCF_PRINT 1
$end
$molecule
0 1
S 2.875801 0.502933 -0.017641
S -3.547117 0.964850 -0.025788
C 0.138185 0.130841 0.038840
C 1.458283 -0.684418 -0.037182
C -1.005677 -0.809201 0.036041
H 0.145010 0.735502 0.949988
H 0.085337 0.802725 -0.822498
H 1.540009 -1.361091 0.817105
H 1.488431 -1.271869 -0.958058
H -1.338257 -1.280098 0.954384
H -1.322324 -1.279407 -0.888230
H 3.848020 -0.427869 -0.087261
H -3.257508 1.400698 1.219195
$end
$scan
stre 2 5 3.200000 3.201000 0.100000
$end
--------------------------------------------------------------
 ----------------------------------------------------------------
             Standard Nuclear Orientation (Angstroms)
    I     Atom           X                Y                Z
 ----------------------------------------------------------------
    1      S       2.8758010000     0.5029330000    -0.0176410000
    2      S      -3.5471170000     0.9648500000    -0.0257880000
    3      C       0.1381850000     0.1308410000     0.0388400000
    4      C       1.4582830000    -0.6844180000    -0.0371820000
    5      C      -1.0056770000    -0.8092010000     0.0360410000
    6      H       0.1450100000     0.7355020000     0.9499880000
    7      H       0.0853370000     0.8027250000    -0.8224980000
    8      H       1.5400090000    -1.3610910000     0.8171050000
    9      H       1.4884310000    -1.2718690000    -0.9580580000
   10      H      -1.3382570000    -1.2800980000     0.9543840000
   11      H      -1.3223240000    -1.2794070000    -0.8882300000
   12      H       3.8480200000    -0.4278690000    -0.0872610000
   13      H      -3.2575080000     1.4006980000     1.2191950000
 ----------------------------------------------------------------
 Nuclear Repulsion Energy =   239.2228969669 hartrees
 There are       29 alpha and       29 beta electrons
 Requested basis set is 6-31G(d,p)
 There are 46 shells and 123 basis functions

 Total QAlloc Memory Limit   2000 MB
 Mega-Array Size       188 MB
 MEM_STATIC part       192 MB
A total of 1 constraints
  
            1
    1   1.0100000
    2   2.0100000
    3   5.0100000
    4   3.2000000
    5   3.2010000
    6   0.1000000
    7   0.0000000
    8   0.0000000
    9   0.0000000
   10   0.0000000

                       Distance Matrix (Angstroms)
             S (  1)   S (  2)   C (  3)   C (  4)   C (  5)   H (  6)
   S (  2)  6.439512
   C (  3)  2.763365  3.779047
   C (  4)  1.849200  5.270128  1.553411
   C (  5)  4.097615  3.100000  1.480577  2.468204
   H (  6)  2.906478  3.825773  1.093550  2.171489  2.132015
   H (  7)  2.919651  3.722332  1.093675  2.171013  2.127371  1.774764
   H (  8)  2.440436  5.656794  2.190130  1.092873  2.719404  2.521782
   H (  9)  2.441127  5.588272  2.187365  1.092712  2.724494  3.078142
   H ( 10)  4.677854  3.298423  2.238046  3.026330  1.084300  2.502547
   H ( 11)  4.643158  3.275698  2.231893  2.968176  1.084267  3.097091
   H ( 12)  1.347757  7.525390  3.753789  2.403990  4.870215  4.017661
   H ( 13)  6.320856  1.350489  3.812677  5.307059  3.369607  3.477368
             H (  7)   H (  8)   H (  9)   H ( 10)   H ( 11)   H ( 12)
   H (  8)  3.080011
   H (  9)  2.508185  1.778152
   H ( 10)  3.085787  2.882676  3.412868
   H ( 11)  2.514181  3.332835  2.811632  1.842683
   H ( 12)  4.026502  2.648716  2.652976  5.358058  5.300861
   H ( 13)  3.962410  5.550254  5.865746  3.307615  3.920349  7.452450

 
 A cutoff of  1.0D-14 yielded    970 shell pairs
 There are      6988 function pairs
 
 -------------------------------------------------------
 OpenMP Integral Computing Module                       
 Release: version 1.0, May 2013, Q-Chem Inc. Pittsburgh 
 -------------------------------------------------------
 Integral Job Info:
 Integral job number is                      11
 Integral operator is                         1
 short-range coefficients                     0
 long-range coefficients              100000000
 Omega coefficients                           0
 if combine SR and LR in K                    0
 Integral screening is                        0
 Integral computing path is                   2
 max size of driver memory is            800000
 size of driver memory is                593474
 size of scratch memory is             15267112
 max col of scratch BK array               1296
 max len of scratch array in speh3          155
 max len of scratch index in speh4           18
 max int batch size is                      520
 min int batch size is                       52
 fixed nKL is                                52
 max L of basis functions is                  2
 order of int derivative is                   0
 number of shells is                         46
 number of basis is                         123
 number of cartesian basis is               123
 number of contracted shell pairs           970
 number of primitive shell pairs           3591
 maxK2 (contraction) of shell pair           36
 max number of K2 of shell pair               1
 max number of CS2 of shell pair             79
 max number of PS2 of shell pair            342
 mem total for path MDJ                  515964
 -------------------------------------------------------
 Smallest overlap matrix eigenvalue = 5.54E-03

 Scale SEOQF with 1.000000e-01/1.000000e+00/1.000000e+00

 Standard Electronic Orientation quadrupole field applied
 Nucleus-field energy     =     0.0000000325 hartrees
 Guess from superposition of atomic densities
 Warning:  Energy on first SCF cycle will be non-variational
 SAD guess density has 58.000000 electrons

 -----------------------------------------------------------------------
  General SCF calculation program by
  Eric Jon Sundstrom, Paul Horn, Yuezhi Mao, Dmitri Zuev, Alec White,
  David Stuck, Shaama M.S., Shane Yost, Joonho Lee, David Small,
  Daniel Levine, Susi Lehtola, Hugh Burton, Evgeny Epifanovsky
 -----------------------------------------------------------------------
 Exchange:     0.2000 Hartree-Fock + 0.0800 Slater + 0.7200 B88
 Correlation:  0.1900 VWN1RPA + 0.8100 LYP
 Using SG-1 standard quadrature grid
 using 12 threads for integral computing
 -------------------------------------------------------
 OpenMP Integral computing Module                
 Release: version 1.0, May 2013, Q-Chem Inc. Pittsburgh 
 -------------------------------------------------------
 -------------------------------------------------------
 OpenMP BLAS3 based DFT computing Module                
 Release: version 1.0, May 2013, Q-Chem Inc. Pittsburgh 
 -------------------------------------------------------
 A unrestricted SCF calculation will be
 performed using DIIS
 SCF converges when DIIS error is below 1.0e-06
 Alpha HF Exchange    Energy =  -6.82509883483632
 Beta HF Exchange     Energy =  -6.82509883483632
 DFT Correlation      Energy =  -2.69609402088528
 DFT Exchange         Energy = -53.81269025049309
 One-Electron (alpha) Energy = -865.17836586801195
 One-Electron (beta)  Energy = -865.17836586801195
 Total Coulomb        Energy = 645.48778792642042
 ---------------------------------------
  Cycle       Energy         DIIS error
 ---------------------------------------
    1    -915.8050287512      2.62e-02  
 Alpha HF Exchange    Energy =  -6.85180454579774
 Beta HF Exchange     Energy =  -6.85180454579773
 DFT Correlation      Energy =  -2.72143153365288
 DFT Exchange         Energy = -54.38603739171458
 One-Electron (alpha) Energy = -868.88854030360824
 One-Electron (beta)  Energy = -868.88854030360756
 Total Coulomb        Energy = 654.02137782038858
    2    -915.3438838043      2.58e-03  
 Alpha HF Exchange    Energy =  -6.80958557647079
 Beta HF Exchange     Energy =  -6.80958557647078
 DFT Correlation      Energy =  -2.70560134095563
 DFT Exchange         Energy = -54.02449059442755
 One-Electron (alpha) Energy = -865.17380192609915
 One-Electron (beta)  Energy = -865.17380192609880
 Total Coulomb        Energy = 646.52760540364545
    3    -914.9463645374      5.86e-03  
 Alpha HF Exchange    Energy =  -6.81238599911472
 Beta HF Exchange     Energy =  -6.81238599911471
 DFT Correlation      Energy =  -2.70410728924709
 DFT Exchange         Energy = -54.05397540034299
 One-Electron (alpha) Energy = -866.06569020676352
 One-Electron (beta)  Energy = -866.06569020676272
 Total Coulomb        Energy = 647.92311419575094
    4    -915.3682239061      2.24e-03  
 Alpha HF Exchange    Energy =  -6.81975554045528
 Beta HF Exchange     Energy =  -6.81975554045527
 DFT Correlation      Energy =  -2.71121235393439
 DFT Exchange         Energy = -54.14585005482060
 One-Electron (alpha) Energy = -866.95875646729689
 One-Electron (beta)  Energy = -866.95875646729633
 Total Coulomb        Energy = 649.77117956068935
    5    -915.4200098641      6.25e-04  
 Alpha HF Exchange    Energy =  -6.82128564383681
 Beta HF Exchange     Energy =  -6.82128564383680
 DFT Correlation      Energy =  -2.71098971398390
 DFT Exchange         Energy = -54.15387129582857
 One-Electron (alpha) Energy = -866.99611691077007
 One-Electron (beta)  Energy = -866.99611691077007
 Total Coulomb        Energy = 649.85236798810956
    6    -915.4244011315      1.83e-04  
 Alpha HF Exchange    Energy =  -6.82062537999427
 Beta HF Exchange     Energy =  -6.82062537999427
 DFT Correlation      Energy =  -2.71085964940838
 DFT Exchange         Energy = -54.14887688233195
 One-Electron (alpha) Energy = -866.95983843847716
 One-Electron (beta)  Energy = -866.95983843847705
 Total Coulomb        Energy = 649.77318519491405
    7    -915.4245819743      8.65e-05  
 Alpha HF Exchange    Energy =  -6.82067469305194
 Beta HF Exchange     Energy =  -6.82067469305193
 DFT Correlation      Energy =  -2.71083478851287
 DFT Exchange         Energy = -54.14887603895029
 One-Electron (alpha) Energy = -866.96249908111065
 One-Electron (beta)  Energy = -866.96249908111008
 Total Coulomb        Energy = 649.77851353214271
    8    -915.4246478442      4.37e-05  
 Alpha HF Exchange    Energy =  -6.82078454300424
 Beta HF Exchange     Energy =  -6.82078454300424
 DFT Correlation      Energy =  -2.71083741374000
 DFT Exchange         Energy = -54.14945199881029
 One-Electron (alpha) Energy = -866.96757292584982
 One-Electron (beta)  Energy = -866.96757292584994
 Total Coulomb        Energy = 649.78943724285648
    9    -915.4246701079      1.05e-05  
 Alpha HF Exchange    Energy =  -6.82078778200230
 Beta HF Exchange     Energy =  -6.82078778200230
 DFT Correlation      Energy =  -2.71082628846297
 DFT Exchange         Energy = -54.14939132456999
 One-Electron (alpha) Energy = -866.96649455723605
 One-Electron (beta)  Energy = -866.96649455723616
 Total Coulomb        Energy = 649.78721396265462
   10    -915.4246713294      1.92e-06  
 Alpha HF Exchange    Energy =  -6.82078978609437
 Beta HF Exchange     Energy =  -6.82078978609436
 DFT Correlation      Energy =  -2.71082538499164
 DFT Exchange         Energy = -54.14939234986364
 One-Electron (alpha) Energy = -866.96651392912213
 One-Electron (beta)  Energy = -866.96651392912179
 Total Coulomb        Energy = 649.78725679099784
   11    -915.4246713748      2.31e-07  Convergence criterion met
 ---------------------------------------
 SCF time:   CPU 33.29s  wall 2.00s 
<S^2> =         -0.000000000
 Alpha HF Exchange    Energy =  -6.82078978609437
 Beta HF Exchange     Energy =  -6.82078978609436
 DFT Correlation      Energy =  -2.71082538499164
 DFT Exchange         Energy = -54.14939234986364
 One-Electron (alpha) Energy = -866.96651392912213
 One-Electron (beta)  Energy = -866.96651392912179
 Total Coulomb        Energy = 649.78725679099784
 Nuclear repulsion Energy = 239.22289699946336
 SCF   energy in the final basis set =     -915.4246713748
 Total energy in the final basis set =     -915.4246713748
 
 --------------------------------------------------------------
 
                    Orbital Energies (a.u.)
 --------------------------------------------------------------
 
 Alpha MOs
 -- Occupied --
-88.894 -88.854 -10.278 -10.253 -10.232  -7.957  -7.912  -5.922
 -5.918  -5.911  -5.876  -5.875  -5.867  -0.845  -0.769  -0.674
 -0.663  -0.620  -0.518  -0.478  -0.452  -0.430  -0.402  -0.383
 -0.357  -0.350  -0.256  -0.238  -0.216
 -- Virtual --
 -0.136   0.009   0.055   0.071   0.087   0.104   0.119   0.130
  0.139   0.171   0.189   0.234   0.321   0.339   0.354   0.365
  0.369   0.374   0.395   0.408   0.488   0.496   0.500   0.556
  0.565   0.610   0.650   0.709   0.713   0.722   0.736   0.753
  0.782   0.786   0.814   0.818   0.828   0.838   0.849   0.852
  0.880   0.896   0.899   0.939   1.031   1.127   1.129   1.154
  1.224   1.288   1.387   1.502   1.509   1.635   1.664   1.780
  1.832   1.915   1.951   1.977   2.041   2.057   2.074   2.083
  2.112   2.116   2.183   2.186   2.211   2.307   2.315   2.426
  2.447   2.462   2.575   2.586   2.668   2.734   2.742   2.752
  2.762   2.819   2.845   3.177   3.233   3.338   3.345   3.433
  3.506   3.963   3.987   4.203   4.368   4.570
 
 Beta MOs
 -- Occupied --
-88.894 -88.854 -10.278 -10.253 -10.232  -7.957  -7.912  -5.922
 -5.918  -5.911  -5.876  -5.875  -5.867  -0.845  -0.769  -0.674
 -0.663  -0.620  -0.518  -0.478  -0.452  -0.430  -0.402  -0.383
 -0.357  -0.350  -0.256  -0.238  -0.216
 -- Virtual --
 -0.136   0.009   0.055   0.071   0.087   0.104   0.119   0.130
  0.139   0.171   0.189   0.234   0.321   0.339   0.354   0.365
  0.369   0.374   0.395   0.408   0.488   0.496   0.500   0.556
  0.565   0.610   0.650   0.709   0.713   0.722   0.736   0.753
  0.782   0.786   0.814   0.818   0.828   0.838   0.849   0.852
  0.880   0.896   0.899   0.939   1.031   1.127   1.129   1.154
  1.224   1.288   1.387   1.502   1.509   1.635   1.664   1.780
  1.832   1.915   1.951   1.977   2.041   2.057   2.074   2.083
  2.112   2.116   2.183   2.186   2.211   2.307   2.315   2.426
  2.447   2.462   2.575   2.586   2.668   2.734   2.742   2.752
  2.762   2.819   2.845   3.177   3.233   3.338   3.345   3.433
  3.506   3.963   3.987   4.203   4.368   4.570
 --------------------------------------------------------------
 
          Ground-State Mulliken Net Atomic Charges

     Atom                 Charge (a.u.)    Spin (a.u.)
  --------------------------------------------------------
      1 S                    -0.020095       0.000000
      2 S                    -0.347674      -0.000000
      3 C                    -0.213098       0.000000
      4 C                    -0.341473      -0.000000
      5 C                    -0.141036      -0.000000
      6 H                     0.152103       0.000000
      7 H                     0.167534       0.000000
      8 H                     0.147155       0.000000
      9 H                     0.149089      -0.000000
     10 H                     0.166519      -0.000000
     11 H                     0.168897      -0.000000
     12 H                     0.064411      -0.000000
     13 H                     0.047667       0.000000
  --------------------------------------------------------
  Sum of atomic charges =    -0.000000
  Sum of spin   charges =     0.000000

 -----------------------------------------------------------------
                    Cartesian Multipole Moments
 -----------------------------------------------------------------
    Charge (ESU x 10^10)
                 0.0000
    Dipole Moment (Debye)
         X       3.9343      Y      -3.3805      Z       0.7899
       Tot       5.2469
    Quadrupole Moments (Debye-Ang)
        XX     -63.1895     XY      -0.3664     YY     -47.0616
        XZ      -2.7663     YZ       2.0661     ZZ     -46.2454
    Octopole Moments (Debye-Ang^2)
       XXX     107.5546    XXY     -32.5089    XYY       9.3509
       YYY     -37.8834    XXZ       4.7838    XYZ      -5.9389
       YYZ       2.8896    XZZ      -1.8128    YZZ     -12.7669
       ZZZ      -0.4972
    Hexadecapole Moments (Debye-Ang^3)
      XXXX   -2136.3268   XXXY      87.5268   XXYY    -374.5044
      XYYY     106.9254   YYYY    -235.2020   XXXZ     -11.4147
      XXYZ      20.5001   XYYZ      -7.1568   YYYZ       2.9864
      XXZZ    -343.8143   XYZZ      26.2130   YYZZ     -48.0731
      XZZZ       6.7272   YZZZ       0.1634   ZZZZ     -81.7492
 -----------------------------------------------------------------
 Calculating analytic gradient of the SCF energy
 Gradient of SCF Energy
            1           2           3           4           5           6
    1   0.0000221  -0.0276883   0.0002675  -0.0001123   0.0273593  -0.0000583
    2  -0.0000108   0.0193341  -0.0002001   0.0000727  -0.0193246   0.0000675
    3   0.0000064  -0.0006468  -0.0000095   0.0000336   0.0006638  -0.0000333
            7           8           9          10          11          12
    1  -0.0000313   0.0000018   0.0000109   0.0000672   0.0001419   0.0000001
    2   0.0000440  -0.0000108  -0.0000212   0.0000742  -0.0000343  -0.0000138
    3   0.0000252   0.0000085   0.0000126  -0.0001193   0.0000640   0.0000163
           13
    1   0.0000194
    2   0.0000232
    3  -0.0000214
 Max gradient component =       2.769E-02
 RMS gradient           =       7.618E-03
 Gradient time:  CPU 10.60 s  wall 0.95 s
 Geometry Optimization Parameters
   NAtoms,    NIC,     NZ,  NCons,   NDum,   NFix, NCnnct, MaxDiis
       13     138       0       1       0       0       0       0


** CONSTRAINED OPTIMIZATION IN DELOCALIZED INTERNAL COORDINATES **
   Searching for a Minimum

   Optimization Cycle:   1

                       Coordinates (Angstroms)
     ATOM                X               Y               Z
      1  S         2.8758010000    0.5029330000   -0.0176410000
      2  S        -3.5471170000    0.9648500000   -0.0257880000
      3  C         0.1381850000    0.1308410000    0.0388400000
      4  C         1.4582830000   -0.6844180000   -0.0371820000
      5  C        -1.0056770000   -0.8092010000    0.0360410000
      6  H         0.1450100000    0.7355020000    0.9499880000
      7  H         0.0853370000    0.8027250000   -0.8224980000
      8  H         1.5400090000   -1.3610910000    0.8171050000
      9  H         1.4884310000   -1.2718690000   -0.9580580000
     10  H        -1.3382570000   -1.2800980000    0.9543840000
     11  H        -1.3223240000   -1.2794070000   -0.8882300000
     12  H         3.8480200000   -0.4278690000   -0.0872610000
     13  H        -3.2575080000    1.4006980000    1.2191950000
   Point Group: c1    Number of degrees of freedom:    33


   Energy is   -915.424671375

              Constraints and their Current Values
                                        Value     Constraint
   Distance(Angs):        2   5             3.100000     3.200000

 Attempting to Generate Delocalized Internal Coordinates

   Using Lagrange Multiplier Algorithm


 34 Hessian modes will be used to form the next step
  Hessian Eigenvalues:
    -0.989422    0.041671    0.045000    0.045000    0.045000    0.046989
     0.058657    0.065191    0.068307    0.068688    0.074805    0.078998
     0.080262    0.085015    0.095161    0.095966    0.122752    0.125223
     0.141749    0.160000    0.218991    0.220598    0.224252    0.225949
     0.258112    0.273632    0.289299    0.314028    0.343914    0.344056
     0.344827    0.345011    0.345036    1.010691

 Minimum Search - Taking P-RFO Step
 Searching for Lamda that Maximizes Along the Constraint modes Only
 Value Taken    Lamda =   0.02464453
 Searching for Lamda that Minimizes Along All other modes
 Value Taken    Lamda =  -0.01160206
 Step Taken.  Stepsize is  0.185382

                             Maximum     Tolerance    Cnvgd?
         Gradient            0.188974       0.000300      NO
         Displacement        0.185373       0.001200      NO
         Energy change     *********       0.000001      NO


 New Cartesian Coordinates Obtained by Inverse Iteration

 Displacement from previous Coordinates is:  0.235555
 ----------------------------------------------------------------
             Standard Nuclear Orientation (Angstroms)
    I     Atom           X                Y                Z
 ----------------------------------------------------------------
    1      S       2.8934786119     0.4928086190    -0.0215390451
    2      S      -3.6402124091     0.9840716184    -0.0202278839
    3      C       0.1547969325     0.1291562857     0.0380260473
    4      C       1.4724689436    -0.6903589696    -0.0378460447
    5      C      -0.9917053401    -0.8075364467     0.0377466070
    6      H       0.1644941101     0.7351813706     0.9482221561
    7      H       0.1034475325     0.7996059975    -0.8245045111
    8      H       1.5528650956    -1.3658320343     0.8175086666
    9      H       1.4999329848    -1.2793789921    -0.9577945608
   10      H      -1.3332250033    -1.2590785839     0.9442061749
   11      H      -1.3213953592    -1.2637770612    -0.8755093401
   12      H       3.8628766590    -0.4409801553    -0.0905003049
   13      H      -3.3096297583     1.3897143520     1.2211070387
 ----------------------------------------------------------------
 Nuclear Repulsion Energy =   237.5337704093 hartrees
 There are       29 alpha and       29 beta electrons

                       Distance Matrix (Angstroms)
             S (  1)   S (  2)   C (  3)   C (  4)   C (  5)   H (  6)
   S (  2)  6.552134
   C (  3)  2.763362  3.890549
   C (  4)  1.849167  5.379920  1.553583
   C (  5)  4.097446  3.198095  1.480493  2.468117
   H (  6)  2.906293  3.933908  1.093534  2.171473  2.132074
   H (  7)  2.919444  3.833520  1.093663  2.170955  2.127380  1.774947
   H (  8)  2.440449  5.761242  2.190246  1.092867  2.719294  2.521689
   H (  9)  2.441146  5.694149  2.187469  1.092705  2.724335  3.078108
   H ( 10)  4.676195  3.359174  2.227682  3.026514  1.068735  2.494043
   H ( 11)  4.645430  3.340845  2.225748  2.972569  1.072794  3.087021
   H ( 12)  1.347757  7.637543  3.753855  2.403957  4.870090  4.017503
   H ( 13)  6.389614  1.347124  3.871813  5.364712  3.406028  3.545760
             H (  7)   H (  8)   H (  9)   H ( 10)   H ( 11)   H ( 12)
   H (  8)  3.079958
   H (  9)  2.508010  1.778195
   H ( 10)  3.070920  2.890842  3.412448
   H ( 11)  2.508053  3.337379  2.822571  1.819760
   H ( 12)  4.026304  2.648770  2.653039  5.360912  5.307533
   H ( 13)  4.022667  5.603551  5.916381  3.316467  3.922995  7.517753

 
 Applying Cartesian multipole field
    Component          Value
    ---------          -----
     (2,0,0)        1.00000E-11
     (0,2,0)        2.00000E-10
     (0,0,2)       -3.00000E-10
 Nucleus-field energy     =     0.0000000333 hartrees
 Requested basis set is 6-31G(d,p)
 There are 46 shells and 123 basis functions
 A cutoff of  1.0D-14 yielded    967 shell pairs
 There are      6982 function pairs
 Smallest overlap matrix eigenvalue = 5.58E-03
 Guess from superposition of atomic densities
 Warning:  Energy on first SCF cycle will be non-variational
 SAD guess density has 58.000000 electrons

 -----------------------------------------------------------------------
  General SCF calculation program by
  Eric Jon Sundstrom, Paul Horn, Yuezhi Mao, Dmitri Zuev, Alec White,
  David Stuck, Shaama M.S., Shane Yost, Joonho Lee, David Small,
  Daniel Levine, Susi Lehtola, Hugh Burton, Evgeny Epifanovsky
 -----------------------------------------------------------------------
 Exchange:     0.2000 Hartree-Fock + 0.0800 Slater + 0.7200 B88
 Correlation:  0.1900 VWN1RPA + 0.8100 LYP
 Using SG-1 standard quadrature grid
 using 12 threads for integral computing
 -------------------------------------------------------
 OpenMP Integral computing Module                
 Release: version 1.0, May 2013, Q-Chem Inc. Pittsburgh 
 -------------------------------------------------------
 -------------------------------------------------------
 OpenMP BLAS3 based DFT computing Module                
 Release: version 1.0, May 2013, Q-Chem Inc. Pittsburgh 
 -------------------------------------------------------
 A unrestricted SCF calculation will be
 performed using DIIS
 SCF converges when DIIS error is below 1.0e-06
 Alpha HF Exchange    Energy =  -6.82639218911839
 Beta HF Exchange     Energy =  -6.82639218911839
 DFT Correlation      Energy =  -2.69586036035378
 DFT Exchange         Energy = -53.81593757652168
 One-Electron (alpha) Energy = -863.47307116328807
 One-Electron (beta)  Energy = -863.47307116328807
 Total Coulomb        Energy = 643.76358148830059
 ---------------------------------------
  Cycle       Energy         DIIS error
 ---------------------------------------
    1    -915.8133727108      2.63e-02  
 Alpha HF Exchange    Energy =  -6.85361623647605
 Beta HF Exchange     Energy =  -6.85361623647605
 DFT Correlation      Energy =  -2.72129281123023
 DFT Exchange         Energy = -54.39721878492803
 One-Electron (alpha) Energy = -867.17351732044040
 One-Electron (beta)  Energy = -867.17351732044017
 Total Coulomb        Energy = 652.31009724747571
    2    -915.3289110199      2.64e-03  
 Alpha HF Exchange    Energy =  -6.81348735647311
 Beta HF Exchange     Energy =  -6.81348735647310
 DFT Correlation      Energy =  -2.70622527704608
 DFT Exchange         Energy = -54.04683941817545
 One-Electron (alpha) Energy = -863.50515981899662
 One-Electron (beta)  Energy = -863.50515981899639
 Total Coulomb        Energy = 645.00845761805897
    3    -914.8481309855      6.24e-03  
 Alpha HF Exchange    Energy =  -6.81196395051540
 Beta HF Exchange     Energy =  -6.81196395051541
 DFT Correlation      Energy =  -2.70367070438879
 DFT Exchange         Energy = -54.05263751371287
 One-Electron (alpha) Energy = -864.28105927523836
 One-Electron (beta)  Energy = -864.28105927523859
 Total Coulomb        Energy = 646.04351202461839
    4    -915.3650722024      2.18e-03  
 Alpha HF Exchange    Energy =  -6.82029641016317
 Beta HF Exchange     Energy =  -6.82029641016316
 DFT Correlation      Energy =  -2.71132832417801
 DFT Exchange         Energy = -54.15433448144054
 One-Electron (alpha) Energy = -865.25749100672351
 One-Electron (beta)  Energy = -865.25749100672328
 Total Coulomb        Energy = 648.07776358121282
    5    -915.4097036156      8.34e-04  
 Alpha HF Exchange    Energy =  -6.82175547373494
 Beta HF Exchange     Energy =  -6.82175547373494
 DFT Correlation      Energy =  -2.71089342723421
 DFT Exchange         Energy = -54.16045064477939
 One-Electron (alpha) Energy = -865.27692701282638
 One-Electron (beta)  Energy = -865.27692701282604
 Total Coulomb        Energy = 648.11690568867823
    6    -915.4180329139      1.94e-04  
 Alpha HF Exchange    Energy =  -6.82108847613366
 Beta HF Exchange     Energy =  -6.82108847613366
 DFT Correlation      Energy =  -2.71077379138176
 DFT Exchange         Energy = -54.15548280966549
 One-Electron (alpha) Energy = -865.24353341684684
 One-Electron (beta)  Energy = -865.24353341684673
 Total Coulomb        Energy = 648.04361879838177
    7    -915.4181111461      1.35e-04  
 Alpha HF Exchange    Energy =  -6.82119349063983
 Beta HF Exchange     Energy =  -6.82119349063984
 DFT Correlation      Energy =  -2.71073115053557
 DFT Exchange         Energy = -54.15562701361097
 One-Electron (alpha) Energy = -865.24686085985479
 One-Electron (beta)  Energy = -865.24686085985513
 Total Coulomb        Energy = 648.05041067781121
    8    -915.4182857447      6.39e-05  
 Alpha HF Exchange    Energy =  -6.82134418954520
 Beta HF Exchange     Energy =  -6.82134418954519
 DFT Correlation      Energy =  -2.71072723386511
 DFT Exchange         Energy = -54.15636103183429
 One-Electron (alpha) Energy = -865.25253459454757
 One-Electron (beta)  Energy = -865.25253459454734
 Total Coulomb        Energy = 648.06274085985001
    9    -915.4183345315      1.43e-05  
 Alpha HF Exchange    Energy =  -6.82135070504067
 Beta HF Exchange     Energy =  -6.82135070504066
 DFT Correlation      Energy =  -2.71071236280334
 DFT Exchange         Energy = -54.15628728224330
 One-Electron (alpha) Energy = -865.25120136008832
 One-Electron (beta)  Energy = -865.25120136008820
 Total Coulomb        Energy = 648.05999643033488
   10    -915.4183369024      2.41e-06  
 Alpha HF Exchange    Energy =  -6.82135287777299
 Beta HF Exchange     Energy =  -6.82135287777299
 DFT Correlation      Energy =  -2.71071075217721
 DFT Exchange         Energy = -54.15628177540370
 One-Electron (alpha) Energy = -865.25114211130983
 One-Electron (beta)  Energy = -865.25114211130983
 Total Coulomb        Energy = 648.05987508853241
   11    -915.4183369746      4.12e-07  Convergence criterion met
 ---------------------------------------
 SCF time:   CPU 32.40s  wall 3.00s 
<S^2> =         -0.000000000
 Alpha HF Exchange    Energy =  -6.82135287777299
 Beta HF Exchange     Energy =  -6.82135287777299
 DFT Correlation      Energy =  -2.71071075217721
 DFT Exchange         Energy = -54.15628177540370
 One-Electron (alpha) Energy = -865.25114211130983
 One-Electron (beta)  Energy = -865.25114211130983
 Total Coulomb        Energy = 648.05987508853241
 Nuclear repulsion Energy = 237.53377044257576
 SCF   energy in the final basis set =     -915.4183369746
 Total energy in the final basis set =     -915.4183369746
 
 --------------------------------------------------------------
 
                    Orbital Energies (a.u.)
 --------------------------------------------------------------
 
 Alpha MOs
 -- Occupied --
-88.895 -88.852 -10.277 -10.255 -10.234  -7.958  -7.911  -5.923
 -5.919  -5.912  -5.875  -5.874  -5.865  -0.847  -0.771  -0.676
 -0.663  -0.623  -0.520  -0.480  -0.455  -0.431  -0.403  -0.385
 -0.355  -0.352  -0.257  -0.235  -0.214
 -- Virtual --
 -0.142   0.008   0.054   0.073   0.087   0.104   0.118   0.130
  0.139   0.169   0.190   0.233   0.319   0.338   0.353   0.365
  0.368   0.374   0.395   0.403   0.483   0.493   0.498   0.553
  0.564   0.608   0.646   0.712   0.715   0.721   0.736   0.755
  0.780   0.786   0.816   0.817   0.827   0.837   0.849   0.852
  0.882   0.891   0.896   0.934   1.025   1.125   1.131   1.157
  1.220   1.286   1.388   1.498   1.502   1.634   1.663   1.776
  1.832   1.923   1.960   1.974   2.039   2.055   2.074   2.083
  2.114   2.117   2.182   2.183   2.210   2.310   2.315   2.429
  2.445   2.474   2.574   2.591   2.666   2.733   2.746   2.759
  2.765   2.821   2.863   3.179   3.247   3.341   3.356   3.447
  3.514   3.962   3.988   4.200   4.365   4.567
 
 Beta MOs
 -- Occupied --
-88.895 -88.852 -10.277 -10.255 -10.234  -7.958  -7.911  -5.923
 -5.919  -5.912  -5.875  -5.874  -5.865  -0.847  -0.771  -0.676
 -0.663  -0.623  -0.520  -0.480  -0.455  -0.431  -0.403  -0.385
 -0.355  -0.352  -0.257  -0.235  -0.214
 -- Virtual --
 -0.142   0.008   0.054   0.073   0.087   0.104   0.118   0.130
  0.139   0.169   0.190   0.233   0.319   0.338   0.353   0.365
  0.368   0.374   0.395   0.403   0.483   0.493   0.498   0.553
  0.564   0.608   0.646   0.712   0.715   0.721   0.736   0.755
  0.780   0.786   0.816   0.817   0.827   0.837   0.849   0.852
  0.882   0.891   0.896   0.934   1.025   1.125   1.131   1.157
  1.220   1.286   1.388   1.498   1.502   1.634   1.663   1.776
  1.832   1.923   1.960   1.974   2.039   2.055   2.074   2.083
  2.114   2.117   2.182   2.183   2.210   2.310   2.315   2.429
  2.445   2.474   2.574   2.591   2.666   2.733   2.746   2.759
  2.765   2.821   2.863   3.179   3.247   3.341   3.356   3.447
  3.514   3.962   3.988   4.200   4.365   4.567
 --------------------------------------------------------------
 
          Ground-State Mulliken Net Atomic Charges

     Atom                 Charge (a.u.)    Spin (a.u.)
  --------------------------------------------------------
      1 S                    -0.019151       0.000000
      2 S                    -0.353341       0.000000
      3 C                    -0.217699      -0.000000
      4 C                    -0.341050       0.000000
      5 C                    -0.138358       0.000000
      6 H                     0.153196       0.000000
      7 H                     0.168100      -0.000000
      8 H                     0.148037      -0.000000
      9 H                     0.149964      -0.000000
     10 H                     0.167939      -0.000000
     11 H                     0.170726      -0.000000
     12 H                     0.064907      -0.000000
     13 H                     0.046730      -0.000000
  --------------------------------------------------------
  Sum of atomic charges =    -0.000000
  Sum of spin   charges =     0.000000

 -----------------------------------------------------------------
                    Cartesian Multipole Moments
 -----------------------------------------------------------------
    Charge (ESU x 10^10)
                 0.0000
    Dipole Moment (Debye)
         X       4.1881      Y      -3.4470      Z       0.7903
       Tot       5.4815
    Quadrupole Moments (Debye-Ang)
        XX     -64.3561     XY      -0.0414     YY     -47.1805
        XZ      -2.7688     YZ       2.0443     ZZ     -46.2300
    Octopole Moments (Debye-Ang^2)
       XXX     116.5580    XXY     -34.4694    XYY      11.1348
       YYY     -38.6556    XXZ       4.7455    XYZ      -5.9583
       YYZ       2.8405    XZZ      -1.0440    YZZ     -12.8258
       ZZZ      -0.5206
    Hexadecapole Moments (Debye-Ang^3)
      XXXX   -2230.2420   XXXY     101.7093   XXYY    -388.8991
      XYYY     116.9675   YYYY    -238.0028   XXXZ      -9.7549
      XXYZ      20.9232   XYYZ      -6.8708   YYYZ       2.8997
      XXZZ    -354.3693   XYZZ      28.8190   YYZZ     -48.4079
      XZZZ       8.1116   YZZZ       0.0250   ZZZZ     -81.4880
 -----------------------------------------------------------------
 Calculating analytic gradient of the SCF energy
 Gradient of SCF Energy
            1           2           3           4           5           6
    1   0.0000045  -0.0261728   0.0016882  -0.0003871   0.0191081  -0.0001337
    2  -0.0001655   0.0181809  -0.0000700   0.0003885  -0.0253025   0.0001007
    3  -0.0000020   0.0008657  -0.0000516   0.0001149   0.0034058  -0.0001577
            7           8           9          10          11          12
    1  -0.0001398   0.0000531   0.0000456   0.0034452   0.0022608   0.0000381
    2   0.0000321  -0.0000420  -0.0000435   0.0046274   0.0032645   0.0000231
    3   0.0001919   0.0000326  -0.0000205  -0.0099931   0.0073523   0.0000162
           13
    1   0.0001899
    2  -0.0009939
    3  -0.0017545
 Max gradient component =       2.617E-02
 RMS gradient           =       7.585E-03
 Gradient time:  CPU 10.51 s  wall 0.93 s
 Geometry Optimization Parameters
   NAtoms,    NIC,     NZ,  NCons,   NDum,   NFix, NCnnct, MaxDiis
       13     138       0       1       0       0       0       0

 Cartesian Hessian Update
 Hessian Updated using BFGS Update


** CONSTRAINED OPTIMIZATION IN DELOCALIZED INTERNAL COORDINATES **
   Searching for a Minimum

   Optimization Cycle:   2

                       Coordinates (Angstroms)
     ATOM                X               Y               Z
      1  S         2.8934786119    0.4928086190   -0.0215390451
      2  S        -3.6402124091    0.9840716184   -0.0202278839
      3  C         0.1547969325    0.1291562857    0.0380260473
      4  C         1.4724689436   -0.6903589696   -0.0378460447
      5  C        -0.9917053401   -0.8075364467    0.0377466070
      6  H         0.1644941101    0.7351813706    0.9482221561
      7  H         0.1034475325    0.7996059975   -0.8245045111
      8  H         1.5528650956   -1.3658320343    0.8175086666
      9  H         1.4999329848   -1.2793789921   -0.9577945608
     10  H        -1.3332250033   -1.2590785839    0.9442061749
     11  H        -1.3213953592   -1.2637770612   -0.8755093401
     12  H         3.8628766590   -0.4409801553   -0.0905003049
     13  H        -3.3096297583    1.3897143520    1.2211070387
   Point Group: c1    Number of degrees of freedom:    33


   Energy is   -915.418336975

              Constraints and their Current Values
                                        Value     Constraint
   Distance(Angs):        2   5             3.198095     3.200000
 Hessian Updated using BFGS Update

   Using Lagrange Multiplier Algorithm


 33 Hessian modes will be used to form the next step
  Hessian Eigenvalues:
    -0.998610    0.042018    0.045000    0.045000    0.046997    0.058655
     0.065267    0.068307    0.068908    0.074816    0.079233    0.080262
     0.085015    0.095404    0.095982    0.122758    0.125226    0.141749
     0.160014    0.218991    0.220608    0.225157    0.225952    0.258112
     0.273631    0.293587    0.343910    0.344054    0.344814    0.344833
     0.345011    0.994944    1.360331

 Minimum Search - Taking P-RFO Step
 Searching for Lamda that Maximizes Along the Constraint modes Only
 Value Taken    Lamda =   0.00000196
 Searching for Lamda that Minimizes Along All other modes
 Value Taken    Lamda =  -0.00014426
 Step Taken.  Stepsize is  0.011225

                             Maximum     Tolerance    Cnvgd?
         Gradient            0.010846       0.000300      NO
         Displacement        0.008170       0.001200      NO
         Energy change      0.006334       0.000001      NO


 New Cartesian Coordinates Obtained by Inverse Iteration

 Displacement from previous Coordinates is:  0.008879
 ----------------------------------------------------------------
             Standard Nuclear Orientation (Angstroms)
    I     Atom           X                Y                Z
 ----------------------------------------------------------------
    1      S       2.8936224735     0.4930222032    -0.0216156574
    2      S      -3.6412699106     0.9848229798    -0.0208020817
    3      C       0.1550182277     0.1291960173     0.0381602199
    4      C       1.4728997190    -0.6904830532    -0.0379701328
    5      C      -0.9909464500    -0.8074800495     0.0377980162
    6      H       0.1651178714     0.7349478786     0.9485482073
    7      H       0.1040209937     0.7995205537    -0.8245298738
    8      H       1.5532843774    -1.3660010862     0.8173243466
    9      H       1.5001899703    -1.2793269001    -0.9580109971
   10      H      -1.3342805253    -1.2600765864     0.9471177577
   11      H      -1.3217364430    -1.2642137128    -0.8777306962
   12      H       3.8630656102    -0.4407029934    -0.0907837703
   13      H      -3.3107929142     1.3903707489     1.2213896615
 ----------------------------------------------------------------
 Nuclear Repulsion Energy =   237.4839444364 hartrees
 There are       29 alpha and       29 beta electrons

                       Distance Matrix (Angstroms)
             S (  1)   S (  2)   C (  3)   C (  4)   C (  5)   H (  6)
   S (  2)  6.553372
   C (  3)  2.763312  3.891963
   C (  4)  1.849163  5.381605  1.553860
   C (  5)  4.096915  3.200000  1.480067  2.467786
   H (  6)  2.905939  3.935818  1.093546  2.171489  2.131909
   H (  7)  2.918988  3.835038  1.093696  2.170856  2.127208  1.775305
   H (  8)  2.440552  5.763005  2.190402  1.092847  2.718955  2.521550
   H (  9)  2.441252  5.695555  2.187643  1.092683  2.723974  3.078098
   H ( 10)  4.678351  3.361345  2.230312  3.029042  1.072187  2.495660
   H ( 11)  4.646511  3.342563  2.227387  2.973946  1.075277  3.089122
   H ( 12)  1.347756  7.638853  3.753802  2.403762  4.869547  4.017111
   H ( 13)  6.391015  1.347859  3.873298  5.366531  3.407804  3.547672
             H (  7)   H (  8)   H (  9)   H ( 10)   H ( 11)   H ( 12)
   H (  8)  3.079859
   H (  9)  2.507730  1.778243
   H ( 10)  3.073986  2.892421  3.415276
   H ( 11)  2.508907  3.339059  2.823109  1.824896
   H ( 12)  4.025786  2.648759  2.653027  5.362930  5.308449
   H ( 13)  4.024406  5.605364  5.917992  3.317634  3.925490  7.519234

 
 Applying Cartesian multipole field
    Component          Value
    ---------          -----
     (2,0,0)        1.00000E-11
     (0,2,0)        2.00000E-10
     (0,0,2)       -3.00000E-10
 Nucleus-field energy     =     0.0000000333 hartrees
 Requested basis set is 6-31G(d,p)
 There are 46 shells and 123 basis functions
 A cutoff of  1.0D-14 yielded    967 shell pairs
 There are      6982 function pairs
 Smallest overlap matrix eigenvalue = 5.58E-03
 Guess from superposition of atomic densities
 Warning:  Energy on first SCF cycle will be non-variational
 SAD guess density has 58.000000 electrons

 -----------------------------------------------------------------------
  General SCF calculation program by
  Eric Jon Sundstrom, Paul Horn, Yuezhi Mao, Dmitri Zuev, Alec White,
  David Stuck, Shaama M.S., Shane Yost, Joonho Lee, David Small,
  Daniel Levine, Susi Lehtola, Hugh Burton, Evgeny Epifanovsky
 -----------------------------------------------------------------------
 Exchange:     0.2000 Hartree-Fock + 0.0800 Slater + 0.7200 B88
 Correlation:  0.1900 VWN1RPA + 0.8100 LYP
 Using SG-1 standard quadrature grid
 using 12 threads for integral computing
 -------------------------------------------------------
 OpenMP Integral computing Module                
 Release: version 1.0, May 2013, Q-Chem Inc. Pittsburgh 
 -------------------------------------------------------
 -------------------------------------------------------
 OpenMP BLAS3 based DFT computing Module                
 Release: version 1.0, May 2013, Q-Chem Inc. Pittsburgh 
 -------------------------------------------------------
 A unrestricted SCF calculation will be
 performed using DIIS
 SCF converges when DIIS error is below 1.0e-06
 Alpha HF Exchange    Energy =  -6.82602285146474
 Beta HF Exchange     Energy =  -6.82602285146474
 DFT Correlation      Energy =  -2.69577437233926
 DFT Exchange         Energy = -53.81510682429379
 One-Electron (alpha) Energy = -863.42678124688484
 One-Electron (beta)  Energy = -863.42678124688484
 Total Coulomb        Energy = 643.72155896598861
 ---------------------------------------
  Cycle       Energy         DIIS error
 ---------------------------------------
    1    -915.8109859576      2.63e-02  
 Alpha HF Exchange    Energy =  -6.85340989660253
 Beta HF Exchange     Energy =  -6.85340989660253
 DFT Correlation      Energy =  -2.72117235743244
 DFT Exchange         Energy = -54.39535890323265
 One-Electron (alpha) Energy = -867.12543733587222
 One-Electron (beta)  Energy = -867.12543733587177
 Total Coulomb        Energy = 652.26226109797085
    2    -915.3280201579      2.65e-03  
 Alpha HF Exchange    Energy =  -6.81343595608819
 Beta HF Exchange     Energy =  -6.81343595608820
 DFT Correlation      Energy =  -2.70617110425729
 DFT Exchange         Energy = -54.04623869765806
 One-Electron (alpha) Energy = -863.45866776076036
 One-Electron (beta)  Energy = -863.45866776076036
 Total Coulomb        Energy = 644.97120374486428
    3    -914.8414690210      6.27e-03  
 Alpha HF Exchange    Energy =  -6.81158442647531
 Beta HF Exchange     Energy =  -6.81158442647531
 DFT Correlation      Energy =  -2.70354521163222
 DFT Exchange         Energy = -54.05016949021784
 One-Electron (alpha) Energy = -864.22700274914109
 One-Electron (beta)  Energy = -864.22700274914109
 Total Coulomb        Energy = 645.98107167805654
    4    -915.3658729053      2.17e-03  
 Alpha HF Exchange    Energy =  -6.82004766288272
 Beta HF Exchange     Energy =  -6.82004766288272
 DFT Correlation      Energy =  -2.71124225609262
 DFT Exchange         Energy = -54.15274937738097
 One-Electron (alpha) Energy = -865.21087752644587
 One-Electron (beta)  Energy = -865.21087752644553
 Total Coulomb        Energy = 648.03254125360945
    5    -915.4093562888      8.50e-04  
 Alpha HF Exchange    Energy =  -6.82149264364807
 Beta HF Exchange     Energy =  -6.82149264364807
 DFT Correlation      Energy =  -2.71078988680181
 DFT Exchange         Energy = -54.15866188488408
 One-Electron (alpha) Energy = -865.22891993894245
 One-Electron (beta)  Energy = -865.22891993894279
 Total Coulomb        Energy = 648.06830803185312
    6    -915.4180244353      1.94e-04  
 Alpha HF Exchange    Energy =  -6.82082242689947
 Beta HF Exchange     Energy =  -6.82082242689946
 DFT Correlation      Energy =  -2.71066804913397
 DFT Exchange         Energy = -54.15366555787284
 One-Electron (alpha) Energy = -865.19528795717542
 One-Electron (beta)  Energy = -865.19528795717497
 Total Coulomb        Energy = 647.99451506425339
    7    -915.4180948412      1.38e-04  
 Alpha HF Exchange    Energy =  -6.82093094453364
 Beta HF Exchange     Energy =  -6.82093094453363
 DFT Correlation      Energy =  -2.71062379055523
 DFT Exchange         Energy = -54.15381586898557
 One-Electron (alpha) Energy = -865.19860667813123
 One-Electron (beta)  Energy = -865.19860667813066
 Total Coulomb        Energy = 648.00129256167145
    8    -915.4182778735      6.43e-05  
 Alpha HF Exchange    Energy =  -6.82108288958174
 Beta HF Exchange     Energy =  -6.82108288958173
 DFT Correlation      Energy =  -2.71061972975391
 DFT Exchange         Energy = -54.15455551863090
 One-Electron (alpha) Energy = -865.20429060182971
 One-Electron (beta)  Energy = -865.20429060182948
 Total Coulomb        Energy = 648.01365034481012
    9    -915.4183274167      1.44e-05  
 Alpha HF Exchange    Energy =  -6.82108952239435
 Beta HF Exchange     Energy =  -6.82108952239435
 DFT Correlation      Energy =  -2.71060481566535
 DFT Exchange         Energy = -54.15448189026075
 One-Electron (alpha) Energy = -865.20295895635252
 One-Electron (beta)  Energy = -865.20295895635286
 Total Coulomb        Energy = 648.01090938813115
   10    -915.4183298055      2.40e-06  
 Alpha HF Exchange    Energy =  -6.82109166520253
 Beta HF Exchange     Energy =  -6.82109166520253
 DFT Correlation      Energy =  -2.71060318440278
 DFT Exchange         Energy = -54.15447598252319
 One-Electron (alpha) Energy = -865.20289475543314
 One-Electron (beta)  Energy = -865.20289475543325
 Total Coulomb        Energy = 648.01077766125911
   11    -915.4183298772      4.28e-07  Convergence criterion met
 ---------------------------------------
 SCF time:   CPU 32.43s  wall 3.00s 
<S^2> =          0.000000000
 Alpha HF Exchange    Energy =  -6.82109166520253
 Beta HF Exchange     Energy =  -6.82109166520253
 DFT Correlation      Energy =  -2.71060318440278
 DFT Exchange         Energy = -54.15447598252319
 One-Electron (alpha) Energy = -865.20289475543314
 One-Electron (beta)  Energy = -865.20289475543325
 Total Coulomb        Energy = 648.01077766125911
 Nuclear repulsion Energy = 237.48394446974248
 SCF   energy in the final basis set =     -915.4183298772
 Total energy in the final basis set =     -915.4183298772
 
 --------------------------------------------------------------
 
                    Orbital Energies (a.u.)
 --------------------------------------------------------------
 
 Alpha MOs
 -- Occupied --
-88.896 -88.852 -10.278 -10.255 -10.234  -7.958  -7.911  -5.923
 -5.919  -5.912  -5.875  -5.874  -5.865  -0.847  -0.771  -0.675
 -0.662  -0.622  -0.520  -0.480  -0.455  -0.431  -0.403  -0.385
 -0.355  -0.352  -0.257  -0.235  -0.214
 -- Virtual --
 -0.142   0.008   0.054   0.073   0.087   0.104   0.118   0.130
  0.138   0.169   0.189   0.233   0.319   0.338   0.353   0.365
  0.368   0.373   0.395   0.403   0.483   0.493   0.498   0.553
  0.564   0.608   0.646   0.712   0.715   0.721   0.736   0.755
  0.780   0.787   0.815   0.817   0.827   0.837   0.849   0.851
  0.881   0.891   0.895   0.933   1.025   1.125   1.130   1.157
  1.220   1.286   1.388   1.498   1.502   1.634   1.663   1.776
  1.832   1.920   1.959   1.973   2.039   2.055   2.073   2.082
  2.114   2.117   2.181   2.183   2.210   2.309   2.315   2.426
  2.444   2.472   2.574   2.588   2.665   2.733   2.744   2.757
  2.764   2.820   2.859   3.178   3.244   3.341   3.353   3.443
  3.512   3.962   3.988   4.200   4.365   4.567
 
 Beta MOs
 -- Occupied --
-88.896 -88.852 -10.278 -10.255 -10.234  -7.958  -7.911  -5.923
 -5.919  -5.912  -5.875  -5.874  -5.865  -0.847  -0.771  -0.675
 -0.662  -0.622  -0.520  -0.480  -0.455  -0.431  -0.403  -0.385
 -0.355  -0.352  -0.257  -0.235  -0.214
 -- Virtual --
 -0.142   0.008   0.054   0.073   0.087   0.104   0.118   0.130
  0.138   0.169   0.189   0.233   0.319   0.338   0.353   0.365
  0.368   0.373   0.395   0.403   0.483   0.493   0.498   0.553
  0.564   0.608   0.646   0.712   0.715   0.721   0.736   0.755
  0.780   0.787   0.815   0.817   0.827   0.837   0.849   0.851
  0.881   0.891   0.895   0.933   1.025   1.125   1.130   1.157
  1.220   1.286   1.388   1.498   1.502   1.634   1.663   1.776
  1.832   1.920   1.959   1.973   2.039   2.055   2.073   2.082
  2.114   2.117   2.181   2.183   2.210   2.309   2.315   2.426
  2.444   2.472   2.574   2.588   2.665   2.733   2.744   2.757
  2.764   2.820   2.859   3.178   3.244   3.341   3.353   3.443
  3.512   3.962   3.988   4.200   4.365   4.567
 --------------------------------------------------------------
 
          Ground-State Mulliken Net Atomic Charges

     Atom                 Charge (a.u.)    Spin (a.u.)
  --------------------------------------------------------
      1 S                    -0.019098      -0.000000
      2 S                    -0.353618       0.000000
      3 C                    -0.217483      -0.000000
      4 C                    -0.341084       0.000000
      5 C                    -0.138597      -0.000000
      6 H                     0.153300       0.000000
      7 H                     0.168195       0.000000
      8 H                     0.148086      -0.000000
      9 H                     0.150001       0.000000
     10 H                     0.167942       0.000000
     11 H                     0.170780      -0.000000
     12 H                     0.064928       0.000000
     13 H                     0.046648       0.000000
  --------------------------------------------------------
  Sum of atomic charges =     0.000000
  Sum of spin   charges =     0.000000

 -----------------------------------------------------------------
                    Cartesian Multipole Moments
 -----------------------------------------------------------------
    Charge (ESU x 10^10)
                 0.0000
    Dipole Moment (Debye)
         X       4.1963      Y      -3.4498      Z       0.7904
       Tot       5.4895
    Quadrupole Moments (Debye-Ang)
        XX     -64.3862     XY      -0.0262     YY     -47.1922
        XZ      -2.7721     YZ       2.0441     ZZ     -46.2265
    Octopole Moments (Debye-Ang^2)
       XXX     116.7584    XXY     -34.5291    XYY      11.1723
       YYY     -38.6896    XXZ       4.7588    XYZ      -5.9562
       YYZ       2.8501    XZZ      -1.0389    YZZ     -12.8459
       ZZZ      -0.5000
    Hexadecapole Moments (Debye-Ang^3)
      XXXX   -2231.7166   XXXY     102.0668   XXYY    -389.1572
      XYYY     117.1581   YYYY    -238.2616   XXXZ      -9.8637
      XXYZ      20.9349   XYYZ      -6.8975   YYYZ       2.9250
      XXZZ    -354.5013   XYZZ      28.8854   YYZZ     -48.4409
      XZZZ       8.0601   YZZZ       0.0452   ZZZZ     -81.5419
 -----------------------------------------------------------------
 Calculating analytic gradient of the SCF energy
 Gradient of SCF Energy
            1           2           3           4           5           6
    1  -0.0000022  -0.0262191   0.0014382  -0.0003208   0.0205906  -0.0001114
    2  -0.0001324   0.0180209  -0.0000682   0.0003150  -0.0234234   0.0000820
    3   0.0000002   0.0004976  -0.0000521   0.0000976   0.0027959  -0.0001298
            7           8           9          10          11          12
    1  -0.0001035   0.0000435   0.0000395   0.0026143   0.0017170   0.0000267
    2   0.0000192  -0.0000362  -0.0000395   0.0035776   0.0025489   0.0000125
    3   0.0001542   0.0000295  -0.0000147  -0.0077413   0.0057388   0.0000162
           13
    1   0.0002872
    2  -0.0008767
    3  -0.0013921
 Max gradient component =       2.622E-02
 RMS gradient           =       7.373E-03
 Gradient time:  CPU 10.52 s  wall 0.93 s
 Geometry Optimization Parameters
   NAtoms,    NIC,     NZ,  NCons,   NDum,   NFix, NCnnct, MaxDiis
       13     138       0       1       0       0       0       0

 Cartesian Hessian Update
 Hessian Updated using BFGS Update


** CONSTRAINED OPTIMIZATION IN DELOCALIZED INTERNAL COORDINATES **
   Searching for a Minimum

   Optimization Cycle:   3

                       Coordinates (Angstroms)
     ATOM                X               Y               Z
      1  S         2.8936224735    0.4930222032   -0.0216156574
      2  S        -3.6412699106    0.9848229798   -0.0208020817
      3  C         0.1550182277    0.1291960173    0.0381602199
      4  C         1.4728997190   -0.6904830532   -0.0379701328
      5  C        -0.9909464500   -0.8074800495    0.0377980162
      6  H         0.1651178714    0.7349478786    0.9485482073
      7  H         0.1040209937    0.7995205537   -0.8245298738
      8  H         1.5532843774   -1.3660010862    0.8173243466
      9  H         1.5001899703   -1.2793269001   -0.9580109971
     10  H        -1.3342805253   -1.2600765864    0.9471177577
     11  H        -1.3217364430   -1.2642137128   -0.8777306962
     12  H         3.8630656102   -0.4407029934   -0.0907837703
     13  H        -3.3107929142    1.3903707489    1.2213896615
   Point Group: c1    Number of degrees of freedom:    33


   Energy is   -915.418329877

              Constraints and their Current Values
                                        Value     Constraint
   Distance(Angs):        2   5             3.200000     3.200000
 Hessian Updated using BFGS Update

 32 Hessian modes will be used to form the next step
  Hessian Eigenvalues:
     0.040931    0.044961    0.045000    0.045000    0.046994    0.058321
     0.065269    0.068207    0.068359    0.074514    0.078808    0.080262
     0.085013    0.094624    0.095908    0.122690    0.125227    0.141749
     0.160018    0.219001    0.220555    0.225046    0.225955    0.258112
     0.272165    0.292704    0.336672    0.343914    0.344061    0.344828
     0.345011    0.353908

 Minimum Search - Taking Simple RFO Step
 Searching for Lamda that Minimizes Along All modes
 Value Taken    Lamda =  -0.00033453
 Step Taken.  Stepsize is  0.039570

                             Maximum     Tolerance    Cnvgd?
         Gradient           0.008422      0.000300      NO
         Displacement       0.026760      0.001200      NO
         Energy change      0.000007      0.000001      NO


 New Cartesian Coordinates Obtained by Inverse Iteration

 Displacement from previous Coordinates is:  0.034838
 ----------------------------------------------------------------
             Standard Nuclear Orientation (Angstroms)
    I     Atom           X                Y                Z
 ----------------------------------------------------------------
    1      S       2.8921670372     0.4953236582    -0.0214517314
    2      S      -3.6364861018     0.9879059013    -0.0230650248
    3      C       0.1539031390     0.1282940713     0.0388537615
    4      C       1.4734206977    -0.6906826025    -0.0384021246
    5      C      -0.9892469777    -0.8088747472     0.0377863298
    6      H       0.1648696497     0.7328681185     0.9500915195
    7      H       0.1034907453     0.7984283453    -0.8242222286
    8      H       1.5542851958    -1.3665290290     0.8164735791
    9      H       1.5005901910    -1.2785601572    -0.9589555904
   10      H      -1.3378720108    -1.2658845344     0.9569761001
   11      H      -1.3224186499    -1.2678147295    -0.8860360373
   12      H       3.8629121363    -0.4369743429    -0.0915866941
   13      H      -3.3114220518     1.3960960481     1.2224331411
 ----------------------------------------------------------------
 Nuclear Repulsion Energy =   237.4508564298 hartrees
 There are       29 alpha and       29 beta electrons

                       Distance Matrix (Angstroms)
             S (  1)   S (  2)   C (  3)   C (  4)   C (  5)   H (  6)
   S (  2)  6.547209
   C (  3)  2.763410  3.887135
   C (  4)  1.849254  5.378572  1.554933
   C (  5)  4.095097  3.200000  1.478201  2.466679
   H (  6)  2.904905  3.932224  1.093611  2.171617  2.131023
   H (  7)  2.917709  3.829515  1.093856  2.170639  2.126160  1.776585
   H (  8)  2.441013  5.761276  2.190949  1.092758  2.717883  2.521071
   H (  9)  2.441734  5.692303  2.188248  1.092592  2.722754  3.078060
   H ( 10)  4.685339  3.365067  2.238767  3.037269  1.084116  2.500658
   H ( 11)  4.649612  3.344832  2.232502  2.977966  1.084010  3.096146
   H ( 12)  1.347755  7.633869  3.754103  2.403511  4.868110  4.016110
   H ( 13)  6.390865  1.350389  3.875134  5.370202  3.414349  3.549457
             H (  7)   H (  8)   H (  9)   H ( 10)   H ( 11)   H ( 12)
   H (  8)  3.079566
   H (  9)  2.506775  1.778418
   H ( 10)  3.084085  2.897317  3.424591
   H ( 11)  2.511254  3.344205  2.823971  1.843078
   H ( 12)  4.024453  2.649227  2.653519  5.369798  5.311224
   H ( 13)  4.025871  5.609992  5.921799  3.324381  3.936775  7.520496

 
 Applying Cartesian multipole field
    Component          Value
    ---------          -----
     (2,0,0)        1.00000E-11
     (0,2,0)        2.00000E-10
     (0,0,2)       -3.00000E-10
 Nucleus-field energy     =     0.0000000334 hartrees
 Requested basis set is 6-31G(d,p)
 There are 46 shells and 123 basis functions
 A cutoff of  1.0D-14 yielded    967 shell pairs
 There are      6982 function pairs
 Smallest overlap matrix eigenvalue = 5.56E-03
 Guess from superposition of atomic densities
 Warning:  Energy on first SCF cycle will be non-variational
 SAD guess density has 58.000000 electrons

 -----------------------------------------------------------------------
  General SCF calculation program by
  Eric Jon Sundstrom, Paul Horn, Yuezhi Mao, Dmitri Zuev, Alec White,
  David Stuck, Shaama M.S., Shane Yost, Joonho Lee, David Small,
  Daniel Levine, Susi Lehtola, Hugh Burton, Evgeny Epifanovsky
 -----------------------------------------------------------------------
 Exchange:     0.2000 Hartree-Fock + 0.0800 Slater + 0.7200 B88
 Correlation:  0.1900 VWN1RPA + 0.8100 LYP
 Using SG-1 standard quadrature grid
 using 12 threads for integral computing
 -------------------------------------------------------
 OpenMP Integral computing Module                
 Release: version 1.0, May 2013, Q-Chem Inc. Pittsburgh 
 -------------------------------------------------------
 -------------------------------------------------------
 OpenMP BLAS3 based DFT computing Module                
 Release: version 1.0, May 2013, Q-Chem Inc. Pittsburgh 
 -------------------------------------------------------
 A unrestricted SCF calculation will be
 performed using DIIS
 SCF converges when DIIS error is below 1.0e-06
 Alpha HF Exchange    Energy =  -6.82479414137767
 Beta HF Exchange     Energy =  -6.82479414137767
 DFT Correlation      Energy =  -2.69551699798041
 DFT Exchange         Energy = -53.81231840492666
 One-Electron (alpha) Energy = -863.40553976281615
 One-Electron (beta)  Energy = -863.40553976281615
 Total Coulomb        Energy = 643.71461634849129
 ---------------------------------------
  Cycle       Energy         DIIS error
 ---------------------------------------
    1    -915.8030303996      2.62e-02  
 Alpha HF Exchange    Energy =  -6.85264909836255
 Beta HF Exchange     Energy =  -6.85264909836256
 DFT Correlation      Energy =  -2.72080492832075
 DFT Exchange         Energy = -54.38886875756933
 One-Electron (alpha) Energy = -867.10025467257276
 One-Electron (beta)  Energy = -867.10025467257333
 Total Coulomb        Energy = 652.23862093163541
    2    -915.3260038329      2.67e-03  
 Alpha HF Exchange    Energy =  -6.81303170499242
 Beta HF Exchange     Energy =  -6.81303170499242
 DFT Correlation      Energy =  -2.70596392671712
 DFT Exchange         Energy = -54.04298148244020
 One-Electron (alpha) Energy = -863.43444913972985
 One-Electron (beta)  Energy = -863.43444913972974
 Total Coulomb        Energy = 644.96665094923981
    3    -914.8263996862      6.36e-03  
 Alpha HF Exchange    Energy =  -6.81043274452564
 Beta HF Exchange     Energy =  -6.81043274452564
 DFT Correlation      Energy =  -2.70317301683175
 DFT Exchange         Energy = -54.04253423028795
 One-Electron (alpha) Energy = -864.18649205272493
 One-Electron (beta)  Energy = -864.18649205272504
 Total Coulomb        Energy = 645.92058238519837
    4    -915.3681179932      2.14e-03  
 Alpha HF Exchange    Energy =  -6.81923290093615
 Beta HF Exchange     Energy =  -6.81923290093615
 DFT Correlation      Energy =  -2.71095980407510
 DFT Exchange         Energy = -54.14723438561791
 One-Electron (alpha) Energy = -865.18847118919996
 One-Electron (beta)  Energy = -865.18847118920019
 Total Coulomb        Energy = 648.01391520321204
    5    -915.4088307035      8.83e-04  
 Alpha HF Exchange    Energy =  -6.82064181733246
 Beta HF Exchange     Energy =  -6.82064181733244
 DFT Correlation      Energy =  -2.71046946611414
 DFT Exchange         Energy = -54.15266680942229
 One-Electron (alpha) Energy = -865.20355760487712
 One-Electron (beta)  Energy = -865.20355760487632
 Total Coulomb        Energy = 648.04247986220662
    6    -915.4181987945      1.94e-04  
 Alpha HF Exchange    Energy =  -6.81996102537712
 Beta HF Exchange     Energy =  -6.81996102537711
 DFT Correlation      Energy =  -2.71034036772386
 DFT Exchange         Energy = -54.14757668539397
 One-Electron (alpha) Energy = -865.16896202910027
 One-Electron (beta)  Energy = -865.16896202909948
 Total Coulomb        Energy = 647.96665207949229
    7    -915.4182546194      1.42e-04  
 Alpha HF Exchange    Energy =  -6.82007524013280
 Beta HF Exchange     Energy =  -6.82007524013280
 DFT Correlation      Energy =  -2.71029248144544
 DFT Exchange         Energy = -54.14772982501361
 One-Electron (alpha) Energy = -865.17218556438274
 One-Electron (beta)  Energy = -865.17218556438240
 Total Coulomb        Energy = 647.97323417212181
    8    -915.4184532802      6.46e-05  
 Alpha HF Exchange    Energy =  -6.82022903728634
 Beta HF Exchange     Energy =  -6.82022903728634
 DFT Correlation      Energy =  -2.71028852163358
 DFT Exchange         Energy = -54.14848065246552
 One-Electron (alpha) Energy = -865.17791286377235
 One-Electron (beta)  Energy = -865.17791286377201
 Total Coulomb        Energy = 647.98569326431084
    9    -915.4185032487      1.42e-05  
 Alpha HF Exchange    Energy =  -6.82023569030411
 Beta HF Exchange     Energy =  -6.82023569030410
 DFT Correlation      Energy =  -2.71027371111915
 DFT Exchange         Energy = -54.14840773466261
 One-Electron (alpha) Energy = -865.17659462651307
 One-Electron (beta)  Energy = -865.17659462651284
 Total Coulomb        Energy = 647.98298002154422
   10    -915.4185055947      2.36e-06  
 Alpha HF Exchange    Energy =  -6.82023774412268
 Beta HF Exchange     Energy =  -6.82023774412268
 DFT Correlation      Energy =  -2.71027206427930
 DFT Exchange         Energy = -54.14840110550531
 One-Electron (alpha) Energy = -865.17652181461290
 One-Electron (beta)  Energy = -865.17652181461324
 Total Coulomb        Energy = 647.98283016055245
   11    -915.4185056635      4.56e-07  Convergence criterion met
 ---------------------------------------
 SCF time:   CPU 32.12s  wall 3.00s 
<S^2> =          0.000000000
 Alpha HF Exchange    Energy =  -6.82023774412268
 Beta HF Exchange     Energy =  -6.82023774412268
 DFT Correlation      Energy =  -2.71027206427930
 DFT Exchange         Energy = -54.14840110550531
 One-Electron (alpha) Energy = -865.17652181461290
 One-Electron (beta)  Energy = -865.17652181461324
 Total Coulomb        Energy = 647.98283016055245
 Nuclear repulsion Energy = 237.45085646320686
 SCF   energy in the final basis set =     -915.4185056635
 Total energy in the final basis set =     -915.4185056635
 
 --------------------------------------------------------------
 
                    Orbital Energies (a.u.)
 --------------------------------------------------------------
 
 Alpha MOs
 -- Occupied --
-88.896 -88.852 -10.280 -10.255 -10.234  -7.958  -7.911  -5.923
 -5.919  -5.912  -5.875  -5.874  -5.865  -0.847  -0.771  -0.674
 -0.662  -0.622  -0.519  -0.480  -0.454  -0.431  -0.403  -0.385
 -0.355  -0.352  -0.257  -0.234  -0.214
 -- Virtual --
 -0.141   0.008   0.054   0.072   0.086   0.103   0.117   0.129
  0.137   0.169   0.188   0.234   0.319   0.338   0.353   0.366
  0.368   0.374   0.395   0.403   0.483   0.494   0.498   0.554
  0.563   0.608   0.646   0.712   0.716   0.721   0.736   0.755
  0.781   0.787   0.813   0.816   0.827   0.836   0.846   0.850
  0.879   0.890   0.895   0.933   1.024   1.125   1.130   1.155
  1.220   1.286   1.389   1.496   1.501   1.634   1.664   1.777
  1.832   1.910   1.954   1.973   2.039   2.055   2.073   2.081
  2.113   2.116   2.181   2.183   2.209   2.307   2.315   2.419
  2.444   2.465   2.573   2.581   2.663   2.732   2.740   2.753
  2.759   2.819   2.846   3.174   3.232   3.337   3.345   3.429
  3.507   3.962   3.988   4.200   4.364   4.567
 
 Beta MOs
 -- Occupied --
-88.896 -88.852 -10.280 -10.255 -10.234  -7.958  -7.911  -5.923
 -5.919  -5.912  -5.875  -5.874  -5.865  -0.847  -0.771  -0.674
 -0.662  -0.622  -0.519  -0.480  -0.454  -0.431  -0.403  -0.385
 -0.355  -0.352  -0.257  -0.234  -0.214
 -- Virtual --
 -0.141   0.008   0.054   0.072   0.086   0.103   0.117   0.129
  0.137   0.169   0.188   0.234   0.319   0.338   0.353   0.366
  0.368   0.374   0.395   0.403   0.483   0.494   0.498   0.554
  0.563   0.608   0.646   0.712   0.716   0.721   0.736   0.755
  0.781   0.787   0.813   0.816   0.827   0.836   0.846   0.850
  0.879   0.890   0.895   0.933   1.024   1.125   1.130   1.155
  1.220   1.286   1.389   1.496   1.501   1.634   1.664   1.777
  1.832   1.910   1.954   1.973   2.039   2.055   2.073   2.081
  2.113   2.116   2.181   2.183   2.209   2.307   2.315   2.419
  2.444   2.465   2.573   2.581   2.663   2.732   2.740   2.753
  2.759   2.819   2.846   3.174   3.232   3.337   3.345   3.429
  3.507   3.962   3.988   4.200   4.364   4.567
 --------------------------------------------------------------
 
          Ground-State Mulliken Net Atomic Charges

     Atom                 Charge (a.u.)    Spin (a.u.)
  --------------------------------------------------------
      1 S                    -0.019007       0.000000
      2 S                    -0.354347       0.000000
      3 C                    -0.216499      -0.000000
      4 C                    -0.341241       0.000000
      5 C                    -0.139221       0.000000
      6 H                     0.153582       0.000000
      7 H                     0.168522       0.000000
      8 H                     0.148185      -0.000000
      9 H                     0.150059      -0.000000
     10 H                     0.167795      -0.000000
     11 H                     0.170751       0.000000
     12 H                     0.064964      -0.000000
     13 H                     0.046457      -0.000000
  --------------------------------------------------------
  Sum of atomic charges =     0.000000
  Sum of spin   charges =    -0.000000

 -----------------------------------------------------------------
                    Cartesian Multipole Moments
 -----------------------------------------------------------------
    Charge (ESU x 10^10)
                 0.0000
    Dipole Moment (Debye)
         X       4.2050      Y      -3.4585      Z       0.7906
       Tot       5.5017
    Quadrupole Moments (Debye-Ang)
        XX     -64.3813     XY       0.0080     YY     -47.2228
        XZ      -2.7857     YZ       2.0476     ZZ     -46.2134
    Octopole Moments (Debye-Ang^2)
       XXX     116.7132    XXY     -34.6013    XYY      11.1352
       YYY     -38.8287    XXZ       4.8120    XYZ      -5.9549
       YYZ       2.8933    XZZ      -1.0901    YZZ     -12.9330
       ZZZ      -0.4373
    Hexadecapole Moments (Debye-Ang^3)
      XXXX   -2228.1227   XXXY     102.4701   XXYY    -388.8020
      XYYY     117.1925   YYYY    -239.3974   XXXZ     -10.4348
      XXYZ      20.9581   XYYZ      -7.0352   YYYZ       3.0258
      XXZZ    -353.9513   XYZZ      28.9482   YYZZ     -48.5983
      XZZZ       7.7753   YZZZ       0.1160   ZZZZ     -81.7305
 -----------------------------------------------------------------
 Calculating analytic gradient of the SCF energy
 Gradient of SCF Energy
            1           2           3           4           5           6
    1   0.0000164  -0.0263831   0.0002641  -0.0000665   0.0258565  -0.0000353
    2  -0.0000121   0.0176139  -0.0002505   0.0000126  -0.0172122   0.0000206
    3   0.0000083  -0.0007382  -0.0000213   0.0000355   0.0008892  -0.0000101
            7           8           9          10          11          12
    1  -0.0000007  -0.0000014   0.0000052  -0.0001194  -0.0000911   0.0000055
    2  -0.0000183  -0.0000035  -0.0000146   0.0001552   0.0001437  -0.0000088
    3  -0.0000148   0.0000109   0.0000145  -0.0002573   0.0002112   0.0000157
           13
    1   0.0005497
    2  -0.0004261
    3  -0.0001435
 Max gradient component =       2.638E-02
 RMS gradient           =       7.113E-03
 Gradient time:  CPU 10.31 s  wall 0.96 s
 Geometry Optimization Parameters
   NAtoms,    NIC,     NZ,  NCons,   NDum,   NFix, NCnnct, MaxDiis
       13     138       0       1       0       0       0       0

 Cartesian Hessian Update
 Hessian Updated using BFGS Update


** CONSTRAINED OPTIMIZATION IN DELOCALIZED INTERNAL COORDINATES **
   Searching for a Minimum

   Optimization Cycle:   4

                       Coordinates (Angstroms)
     ATOM                X               Y               Z
      1  S         2.8921670372    0.4953236582   -0.0214517314
      2  S        -3.6364861018    0.9879059013   -0.0230650248
      3  C         0.1539031390    0.1282940713    0.0388537615
      4  C         1.4734206977   -0.6906826025   -0.0384021246
      5  C        -0.9892469777   -0.8088747472    0.0377863298
      6  H         0.1648696497    0.7328681185    0.9500915195
      7  H         0.1034907453    0.7984283453   -0.8242222286
      8  H         1.5542851958   -1.3665290290    0.8164735791
      9  H         1.5005901910   -1.2785601572   -0.9589555904
     10  H        -1.3378720108   -1.2658845344    0.9569761001
     11  H        -1.3224186499   -1.2678147295   -0.8860360373
     12  H         3.8629121363   -0.4369743429   -0.0915866941
     13  H        -3.3114220518    1.3960960481    1.2224331411
   Point Group: c1    Number of degrees of freedom:    33


   Energy is   -915.418505663

              Constraints and their Current Values
                                        Value     Constraint
   Distance(Angs):        2   5             3.200000     3.200000
 Hessian Updated using BFGS Update

 32 Hessian modes will be used to form the next step
  Hessian Eigenvalues:
     0.038926    0.044949    0.045000    0.045000    0.046991    0.058158
     0.065180    0.067057    0.068313    0.074561    0.078409    0.080262
     0.085013    0.093938    0.095922    0.122687    0.125227    0.141749
     0.160017    0.219001    0.220543    0.225246    0.225957    0.258112
     0.272066    0.292703    0.340389    0.343915    0.344069    0.344828
     0.345011    0.357585

 Minimum Search - Taking Simple RFO Step
 Searching for Lamda that Minimizes Along All modes
 Value Taken    Lamda =  -0.00000719
 Step Taken.  Stepsize is  0.012417

                             Maximum     Tolerance    Cnvgd?
         Gradient           0.000331      0.000300      NO
         Displacement       0.006801      0.001200      NO
         Energy change     -0.000176      0.000001      NO


 New Cartesian Coordinates Obtained by Inverse Iteration

 Displacement from previous Coordinates is:  0.010778
 ----------------------------------------------------------------
             Standard Nuclear Orientation (Angstroms)
    I     Atom           X                Y                Z
 ----------------------------------------------------------------
    1      S       2.8913877966     0.4962872862    -0.0212942304
    2      S      -3.6342948307     0.9895440808    -0.0232575912
    3      C       0.1533937331     0.1274942283     0.0390485688
    4      C       1.4735291808    -0.6907163749    -0.0385426458
    5      C      -0.9891495695    -0.8103132846     0.0377225528
    6      H       0.1642593345     0.7318040286     0.9504549412
    7      H       0.1027797382     0.7977861486    -0.8238993944
    8      H       1.5548131158    -1.3667365312     0.8161490728
    9      H       1.5009729122    -1.2782683040    -0.9592902834
   10      H      -1.3381353465    -1.2675936668     0.9575918791
   11      H      -1.3221592160    -1.2692489355    -0.8867212714
   12      H       3.8626969583    -0.4353971131    -0.0917197018
   13      H      -3.3119008070     1.3989544376     1.2226531037
 ----------------------------------------------------------------
 Nuclear Repulsion Energy =   237.4654445888 hartrees
 There are       29 alpha and       29 beta electrons

                       Distance Matrix (Angstroms)
             S (  1)   S (  2)   C (  3)   C (  4)   C (  5)   H (  6)
   S (  2)  6.544298
   C (  3)  2.763379  3.885048
   C (  4)  1.849216  5.377116  1.555071
   C (  5)  4.095028  3.200000  1.478137  2.466760
   H (  6)  2.904650  3.929829  1.093604  2.171605  2.131093
   H (  7)  2.917432  3.826686  1.093861  2.170571  2.126190  1.776645
   H (  8)  2.441025  5.760512  2.191024  1.092753  2.717959  2.521022
   H (  9)  2.441749  5.691231  2.188337  1.092587  2.722816  3.078038
   H ( 10)  4.685975  3.365871  2.239342  3.038179  1.084922  2.500966
   H ( 11)  4.649738  3.345697  2.232756  2.978251  1.084488  3.096590
   H ( 12)  1.347753  7.631516  3.754048  2.403360  4.868032  4.015835
   H ( 13)  6.390853  1.350499  3.876312  5.371934  3.417616  3.550052
             H (  7)   H (  8)   H (  9)   H ( 10)   H ( 11)   H ( 12)
   H (  8)  3.079500
   H (  9)  2.506647  1.778457
   H ( 10)  3.084760  2.898100  3.425651
   H ( 11)  2.511380  3.344584  2.824079  1.844383
   H ( 12)  4.024153  2.649141  2.653460  5.370499  5.311315
   H ( 13)  4.026143  5.612414  5.923863  3.328136  3.940538  7.521122

 
 Applying Cartesian multipole field
    Component          Value
    ---------          -----
     (2,0,0)        1.00000E-11
     (0,2,0)        2.00000E-10
     (0,0,2)       -3.00000E-10
 Nucleus-field energy     =     0.0000000334 hartrees
 Requested basis set is 6-31G(d,p)
 There are 46 shells and 123 basis functions
 A cutoff of  1.0D-14 yielded    967 shell pairs
 There are      6982 function pairs
 Smallest overlap matrix eigenvalue = 5.56E-03
 Guess from superposition of atomic densities
 Warning:  Energy on first SCF cycle will be non-variational
[...]
 ----------------------------------------------------------------
 Nuclear Repulsion Energy =   237.6445448504 hartrees
 There are       29 alpha and       29 beta electrons

                       Distance Matrix (Angstroms)
             S (  1)   S (  2)   C (  3)   C (  4)   C (  5)   H (  6)
   S (  2)  6.515774
   C (  3)  2.763678  3.864384
   C (  4)  1.849181  5.361192  1.554950
   C (  5)  4.095998  3.200000  1.478640  2.467607
   H (  6)  2.905553  3.904481  1.093485  2.171886  2.130877
   H (  7)  2.918398  3.793714  1.093793  2.170735  2.126148  1.776337
   H (  8)  2.440902  5.753061  2.190961  1.092778  2.718682  2.521514
   H (  9)  2.441647  5.678685  2.188240  1.092622  2.723749  3.078205
   H ( 10)  4.686846  3.376085  2.238492  3.039859  1.083991  2.498605
   H ( 11)  4.648769  3.355085  2.232409  2.976502  1.084106  3.096117
   H ( 12)  1.347723  7.608679  3.754336  2.403559  4.869085  4.016498
   H ( 13)  6.402755  1.350565  3.899540  5.400106  3.461048  3.566075
             H (  7)   H (  8)   H (  9)   H ( 10)   H ( 11)   H ( 12)
   H (  8)  3.079621
   H (  9)  2.506774  1.778392
   H ( 10)  3.082937  2.900742  3.428115
   H ( 11)  2.511612  3.342193  2.822046  1.844164
   H ( 12)  4.025325  2.648747  2.653950  5.372275  5.309915
   H ( 13)  4.033378  5.649980  5.954421  3.381259  3.985882  7.540195

 
 Applying Cartesian multipole field
    Component          Value
    ---------          -----
     (2,0,0)        1.00000E-11
     (0,2,0)        2.00000E-10
     (0,0,2)       -3.00000E-10
 Nucleus-field energy     =     0.0000000340 hartrees
 Requested basis set is 6-31G(d,p)
 There are 46 shells and 123 basis functions
 A cutoff of  1.0D-14 yielded    968 shell pairs
 There are      6986 function pairs
 Smallest overlap matrix eigenvalue = 5.56E-03
 Guess from superposition of atomic densities
 Warning:  Energy on first SCF cycle will be non-variational
 SAD guess density has 58.000000 electrons

 -----------------------------------------------------------------------
  General SCF calculation program by
  Eric Jon Sundstrom, Paul Horn, Yuezhi Mao, Dmitri Zuev, Alec White,
  David Stuck, Shaama M.S., Shane Yost, Joonho Lee, David Small,
  Daniel Levine, Susi Lehtola, Hugh Burton, Evgeny Epifanovsky
 -----------------------------------------------------------------------
 Exchange:     0.2000 Hartree-Fock + 0.0800 Slater + 0.7200 B88
 Correlation:  0.1900 VWN1RPA + 0.8100 LYP
 Using SG-1 standard quadrature grid
 using 12 threads for integral computing
 -------------------------------------------------------
 OpenMP Integral computing Module                
 Release: version 1.0, May 2013, Q-Chem Inc. Pittsburgh 
 -------------------------------------------------------
 -------------------------------------------------------
 OpenMP BLAS3 based DFT computing Module                
 Release: version 1.0, May 2013, Q-Chem Inc. Pittsburgh 
 -------------------------------------------------------
 A unrestricted SCF calculation will be
 performed using DIIS
 SCF converges when DIIS error is below 1.0e-06
 Alpha HF Exchange    Energy =  -6.82473920186847
 Beta HF Exchange     Energy =  -6.82473920186847
 DFT Correlation      Energy =  -2.69550001431960
 DFT Exchange         Energy = -53.81221309140798
 One-Electron (alpha) Energy = -863.59940586476432
 One-Electron (beta)  Energy = -863.59940586476432
 Total Coulomb        Energy = 643.90893782457147
 ---------------------------------------
  Cycle       Energy         DIIS error
 ---------------------------------------
    1    -915.8025205300      2.62e-02  
 Alpha HF Exchange    Energy =  -6.85266141980970
 Beta HF Exchange     Energy =  -6.85266141980969
 DFT Correlation      Energy =  -2.72080622386365
 DFT Exchange         Energy = -54.38883749415146
 One-Electron (alpha) Energy = -867.30676859343521
 One-Electron (beta)  Energy = -867.30676859343555
 Total Coulomb        Energy = 652.45787354571826
    2    -915.3260853144      2.67e-03  
 Alpha HF Exchange    Energy =  -6.81303178734436
 Beta HF Exchange     Energy =  -6.81303178734435
 DFT Correlation      Energy =  -2.70595487182025
 DFT Exchange         Energy = -54.04294732079708
 One-Electron (alpha) Energy = -863.61993738614751
 One-Electron (beta)  Energy = -863.61993738614683
 Total Coulomb        Energy = 645.14455944986105
    3    -914.8257362053      6.36e-03  
 Alpha HF Exchange    Energy =  -6.81046817433771
 Beta HF Exchange     Energy =  -6.81046817433771
 DFT Correlation      Energy =  -2.70316128603101
 DFT Exchange         Energy = -54.04251627946086
 One-Electron (alpha) Energy = -864.38738528021781
 One-Electron (beta)  Energy = -864.38738528021736
 Total Coulomb        Energy = 646.12901484717008
    4    -915.3678247430      2.15e-03  
 Alpha HF Exchange    Energy =  -6.81922583467380
 Beta HF Exchange     Energy =  -6.81922583467378
 DFT Correlation      Energy =  -2.71094714585687
 DFT Exchange         Energy = -54.14706683719599
 One-Electron (alpha) Energy = -865.38571189805657
 One-Electron (beta)  Energy = -865.38571189805577
 Total Coulomb        Energy = 648.21447155956605
    5    -915.4088730045      8.83e-04  
 Alpha HF Exchange    Energy =  -6.82065608877914
 Beta HF Exchange     Energy =  -6.82065608877914
 DFT Correlation      Energy =  -2.71046284786793
 DFT Exchange         Energy = -54.15264159843756
 One-Electron (alpha) Energy = -865.40310127333998
 One-Electron (beta)  Energy = -865.40310127334010
 Total Coulomb        Energy = 648.24783031051982
    6    -915.4182439756      1.94e-04  
 Alpha HF Exchange    Energy =  -6.81996895449120
 Beta HF Exchange     Energy =  -6.81996895449120
 DFT Correlation      Energy =  -2.71033254538836
 DFT Exchange         Energy = -54.14751023521952
 One-Electron (alpha) Energy = -865.36794803279520
 One-Electron (beta)  Energy = -865.36794803279463
 Total Coulomb        Energy = 648.17083284254181
    7    -915.4182990282      1.43e-04  
 Alpha HF Exchange    Energy =  -6.82008344556235
 Beta HF Exchange     Energy =  -6.82008344556234
 DFT Correlation      Energy =  -2.71028474704309
 DFT Exchange         Energy = -54.14766224724917
 One-Electron (alpha) Energy = -865.37138956944477
 One-Electron (beta)  Energy = -865.37138956944409
 Total Coulomb        Energy = 648.17784955902641
    8    -915.4184985809      6.49e-05  
 Alpha HF Exchange    Energy =  -6.82023876040660
 Beta HF Exchange     Energy =  -6.82023876040659
 DFT Correlation      Energy =  -2.71028076642955
 DFT Exchange         Energy = -54.14841914251917
 One-Electron (alpha) Energy = -865.37723667865271
 One-Electron (beta)  Energy = -865.37723667865248
 Total Coulomb        Energy = 648.19055674221261
    9    -915.4185491604      1.42e-05  
 Alpha HF Exchange    Energy =  -6.82024527830348
 Beta HF Exchange     Energy =  -6.82024527830349
 DFT Correlation      Energy =  -2.71026592837693
 DFT Exchange         Energy = -54.14834531407581
 One-Electron (alpha) Energy = -865.37591556791415
 One-Electron (beta)  Energy = -865.37591556791449
 Total Coulomb        Energy = 648.18783656274741
   10    -915.4185514877      2.35e-06  
 Alpha HF Exchange    Energy =  -6.82024731515331
 Beta HF Exchange     Energy =  -6.82024731515331
 DFT Correlation      Energy =  -2.71026430541248
 DFT Exchange         Energy = -54.14833873976421
 One-Electron (alpha) Energy = -865.37585106094548
 One-Electron (beta)  Energy = -865.37585106094537
 Total Coulomb        Energy = 648.18770335693625
   11    -915.4185515560      4.50e-07  Convergence criterion met
 ---------------------------------------
 SCF time:   CPU 32.18s  wall 3.00s 
<S^2> =         -0.000000000
 Alpha HF Exchange    Energy =  -6.82024731515331
 Beta HF Exchange     Energy =  -6.82024731515331
 DFT Correlation      Energy =  -2.71026430541248
 DFT Exchange         Energy = -54.14833873976421
 One-Electron (alpha) Energy = -865.37585106094548
 One-Electron (beta)  Energy = -865.37585106094537
 Total Coulomb        Energy = 648.18770335693625
 Nuclear repulsion Energy = 237.64454488442681
 SCF   energy in the final basis set =     -915.4185515560
 Total energy in the final basis set =     -915.4185515560
 
 --------------------------------------------------------------
 
                    Orbital Energies (a.u.)
 --------------------------------------------------------------
 
 Alpha MOs
 -- Occupied --
-88.895 -88.852 -10.280 -10.254 -10.234  -7.958  -7.910  -5.923
 -5.919  -5.912  -5.874  -5.874  -5.865  -0.846  -0.770  -0.674
 -0.662  -0.622  -0.519  -0.480  -0.454  -0.431  -0.403  -0.385
 -0.355  -0.351  -0.257  -0.234  -0.214
 -- Virtual --
 -0.141   0.008   0.054   0.072   0.086   0.103   0.117   0.129
  0.138   0.169   0.189   0.234   0.319   0.338   0.353   0.366
  0.368   0.374   0.395   0.403   0.484   0.494   0.498   0.555
  0.564   0.608   0.647   0.711   0.716   0.721   0.736   0.755
  0.781   0.787   0.813   0.816   0.828   0.836   0.845   0.851
  0.879   0.890   0.895   0.934   1.024   1.125   1.131   1.154
  1.220   1.286   1.389   1.497   1.502   1.634   1.664   1.777
  1.832   1.909   1.953   1.973   2.039   2.055   2.073   2.082
  2.113   2.116   2.181   2.183   2.210   2.308   2.316   2.419
  2.445   2.466   2.573   2.581   2.663   2.733   2.740   2.753
  2.759   2.819   2.845   3.175   3.233   3.337   3.346   3.429
  3.507   3.962   3.988   4.200   4.365   4.567
 
 Beta MOs
 -- Occupied --
-88.895 -88.852 -10.280 -10.254 -10.234  -7.958  -7.910  -5.923
 -5.919  -5.912  -5.874  -5.874  -5.865  -0.846  -0.770  -0.674
 -0.662  -0.622  -0.519  -0.480  -0.454  -0.431  -0.403  -0.385
 -0.355  -0.351  -0.257  -0.234  -0.214
 -- Virtual --
 -0.141   0.008   0.054   0.072   0.086   0.103   0.117   0.129
  0.138   0.169   0.189   0.234   0.319   0.338   0.353   0.366
  0.368   0.374   0.395   0.403   0.484   0.494   0.498   0.555
  0.564   0.608   0.647   0.711   0.716   0.721   0.736   0.755
  0.781   0.787   0.813   0.816   0.828   0.836   0.845   0.851
  0.879   0.890   0.895   0.934   1.024   1.125   1.131   1.154
  1.220   1.286   1.389   1.497   1.502   1.634   1.664   1.777
  1.832   1.909   1.953   1.973   2.039   2.055   2.073   2.082
  2.113   2.116   2.181   2.183   2.210   2.308   2.316   2.419
  2.445   2.466   2.573   2.581   2.663   2.733   2.740   2.753
  2.759   2.819   2.845   3.175   3.233   3.337   3.346   3.429
  3.507   3.962   3.988   4.200   4.365   4.567
 --------------------------------------------------------------
 
          Ground-State Mulliken Net Atomic Charges

     Atom                 Charge (a.u.)    Spin (a.u.)
  --------------------------------------------------------
      1 S                    -0.019070      -0.000000
      2 S                    -0.355518      -0.000000
      3 C                    -0.215730       0.000000
      4 C                    -0.341542       0.000000
      5 C                    -0.138057       0.000000
      6 H                     0.153610       0.000000
      7 H                     0.168970       0.000000
      8 H                     0.147903      -0.000000
      9 H                     0.149781      -0.000000
     10 H                     0.167746       0.000000
     11 H                     0.170192       0.000000
     12 H                     0.064813       0.000000
     13 H                     0.046901      -0.000000
  --------------------------------------------------------
  Sum of atomic charges =    -0.000000
  Sum of spin   charges =    -0.000000

 -----------------------------------------------------------------
                    Cartesian Multipole Moments
 -----------------------------------------------------------------
    Charge (ESU x 10^10)
                -0.0000
    Dipole Moment (Debye)
         X       4.1574      Y      -3.4919      Z       0.7939
       Tot       5.4870
    Quadrupole Moments (Debye-Ang)
        XX     -64.0492     XY       0.0184     YY     -47.1726
        XZ      -2.8612     YZ       2.0902     ZZ     -46.2049
    Octopole Moments (Debye-Ang^2)
       XXX     114.7600    XXY     -34.4604    XYY      10.4875
       YYY     -39.5290    XXZ       5.0733    XYZ      -6.0699
       YYZ       3.0403    XZZ      -1.3257    YZZ     -13.1738
       ZZZ      -0.4233
    Hexadecapole Moments (Debye-Ang^3)
      XXXX   -2204.0192   XXXY     102.8250   XXYY    -385.5362
      XYYY     117.4231   YYYY    -244.2231   XXXZ     -12.7592
      XXYZ      21.4148   XYYZ      -7.5198   YYYZ       3.2649
      XXZZ    -350.9085   XYZZ      29.0382   YYZZ     -49.3432
      XZZZ       7.2830   YZZZ       0.1705   ZZZZ     -81.7392
 -----------------------------------------------------------------
 Calculating analytic gradient of the SCF energy
 Gradient of SCF Energy
            1           2           3           4           5           6
    1   0.0000094  -0.0254863   0.0000194  -0.0000374   0.0253448  -0.0000328
    2  -0.0000151   0.0178416   0.0000894   0.0000238  -0.0181850   0.0000127
    3   0.0000104  -0.0005919   0.0000114   0.0000294   0.0006747  -0.0000133
            7           8           9          10          11          12
    1  -0.0000018  -0.0000033   0.0000052   0.0000227   0.0001103   0.0000036
    2  -0.0000171  -0.0000043  -0.0000151   0.0002250   0.0000576  -0.0000073
    3  -0.0000074   0.0000115   0.0000128  -0.0002694   0.0001474   0.0000158
           13
    1   0.0000462
    2  -0.0000064
    3  -0.0000315
 Max gradient component =       2.549E-02
 RMS gradient           =       7.056E-03
 Gradient time:  CPU 10.53 s  wall 0.93 s
 Geometry Optimization Parameters
   NAtoms,    NIC,     NZ,  NCons,   NDum,   NFix, NCnnct, MaxDiis
       13     138       0       1       0       0       0       0

 Cartesian Hessian Update
 Hessian Updated using BFGS Update


** CONSTRAINED OPTIMIZATION IN DELOCALIZED INTERNAL COORDINATES **
   Searching for a Minimum

   Optimization Cycle:  10

                       Coordinates (Angstroms)
     ATOM                X               Y               Z
      1  S         2.8851935531    0.5045644935   -0.0199860973
      2  S        -3.6112508302    1.0060539622   -0.0256905569
      3  C         0.1492811456    0.1187825454    0.0422360128
      4  C         1.4743485405   -0.6906587675   -0.0406599152
      5  C        -0.9882759355   -0.8258478984    0.0386277341
      6  H         0.1569085833    0.7193379476    0.9560105647
      7  H         0.0927197615    0.7923988139   -0.8176619328
      8  H         1.5609858459   -1.3700472471    0.8108613583
      9  H         1.5042374809   -1.2740262855   -0.9640291723
     10  H        -1.3348103965   -1.2851070500    0.9573389589
     11  H        -1.3167274714   -1.2853114001   -0.8867366924
     12  H         3.8621109324   -0.4208718731   -0.0945396483
     13  H        -3.3265282095    1.4343287592    1.2231243864
   Point Group: c1    Number of degrees of freedom:    33


   Energy is   -915.418551556

              Constraints and their Current Values
                                        Value     Constraint
   Distance(Angs):        2   5             3.200000     3.200000
 Hessian Updated using BFGS Update

 32 Hessian modes will be used to form the next step
  Hessian Eigenvalues:
     0.002976    0.011560    0.045000    0.045002    0.045534    0.046996
     0.059947    0.065389    0.068384    0.074326    0.075312    0.080263
     0.085047    0.086295    0.097493    0.122938    0.125234    0.141749
     0.160258    0.218897    0.220881    0.222821    0.226021    0.258112
     0.274545    0.295064    0.343907    0.344044    0.344825    0.344846
     0.345016    0.631052

 Minimum Search - Taking Simple RFO Step
 Searching for Lamda that Minimizes Along All modes
 Value Taken    Lamda =  -0.00000149
 Step Taken.  Stepsize is  0.012998

                             Maximum     Tolerance    Cnvgd?
         Gradient           0.000293      0.000300     YES
         Displacement       0.006627      0.001200      NO
         Energy change     -0.000001      0.000001     YES


                       Distance Matrix (Angstroms)
             S (  1)   S (  2)   C (  3)   C (  4)   C (  5)   H (  6)
   S (  2)  6.515774
   C (  3)  2.763678  3.864384
   C (  4)  1.849181  5.361192  1.554950
   C (  5)  4.095998  3.200000  1.478640  2.467607
   H (  6)  2.905553  3.904481  1.093485  2.171886  2.130877
   H (  7)  2.918398  3.793714  1.093793  2.170735  2.126148  1.776337
   H (  8)  2.440902  5.753061  2.190961  1.092778  2.718682  2.521514
   H (  9)  2.441647  5.678685  2.188240  1.092622  2.723749  3.078205
   H ( 10)  4.686846  3.376085  2.238492  3.039859  1.083991  2.498605
   H ( 11)  4.648769  3.355085  2.232409  2.976502  1.084106  3.096117
   H ( 12)  1.347723  7.608679  3.754336  2.403559  4.869085  4.016498
   H ( 13)  6.402755  1.350565  3.899540  5.400106  3.461048  3.566075
             H (  7)   H (  8)   H (  9)   H ( 10)   H ( 11)   H ( 12)
   H (  8)  3.079621
   H (  9)  2.506774  1.778392
   H ( 10)  3.082937  2.900742  3.428115
   H ( 11)  2.511612  3.342193  2.822046  1.844164
   H ( 12)  4.025325  2.648747  2.653950  5.372275  5.309915
   H ( 13)  4.033378  5.649980  5.954421  3.381259  3.985882  7.540195

 
 Final energy is   -915.418551556011     


 ******************************
 **  OPTIMIZATION CONVERGED  **
 ******************************

                       Coordinates (Angstroms)
     ATOM                X               Y               Z
      1  S         2.8851935531    0.5045644935   -0.0199860973
      2  S        -3.6112508302    1.0060539622   -0.0256905569
      3  C         0.1492811456    0.1187825454    0.0422360128
      4  C         1.4743485405   -0.6906587675   -0.0406599152
      5  C        -0.9882759355   -0.8258478984    0.0386277341
      6  H         0.1569085833    0.7193379476    0.9560105647
      7  H         0.0927197615    0.7923988139   -0.8176619328
      8  H         1.5609858459   -1.3700472471    0.8108613583
      9  H         1.5042374809   -1.2740262855   -0.9640291723
     10  H        -1.3348103965   -1.2851070500    0.9573389589
     11  H        -1.3167274714   -1.2853114001   -0.8867366924
     12  H         3.8621109324   -0.4208718731   -0.0945396483
     13  H        -3.3265282095    1.4343287592    1.2231243864

Z-matrix Print:
$molecule
0 1
S 
H  1 1.347723
C  1 1.849181 2 96.234235
H  3 1.092622 1 109.491988 2 -59.937995 0
H  3 1.092778 1 109.429234 2 59.387384 0
C  3 1.554950 1 108.246256 2 179.830640 0
H  6 1.093485 3 108.935414 1 -58.359420 0
H  6 1.093793 3 108.828866 1 59.895521 0
C  6 1.478640 3 108.838458 1 -179.507518 0
H  9 1.083991 6 120.966587 3 85.116410 0
H  9 1.084106 6 120.392584 3 -77.886846 0
S  9 3.200000 6 105.362670 3 -175.567169 0
H  12 1.350565 9 89.435432 6 -67.793838 0
$end

PES scan, value:    3.2000 energy: -915.4185515560
------- Summary of potential scan: ------ 
    3.2000      -915.4185515560
----------------------------------------- 
Archival summary:
1\1\hpc0250\JobtypUnspecified\ProcedureUnspecified\6-31G**\238\knomura\ThuMar1405:43:232019ThuMar1405:43:232019\0\\#,JobtypUnspecified,ProcedureUnspecified,6-31G**,\\0,1\S\H,1,1.34772\C,1,1.84918,2,96.2342\H,3,1.09262,1,109.492,2,-59.938,0\H,3,1.09278,1,109.429,2,59.3874,0\C,3,1.55495,1,108.246,2,179.831,0\H,6,1.09348,3,108.935,1,-58.3594,0\H,6,1.09379,3,108.829,1,59.8955,0\C,6,1.47864,3,108.838,1,-179.508,0\H,9,1.08399,6,120.967,3,85.1164,0\H,9,1.08411,6,120.393,3,-77.8868,0\S,9,3.2,6,105.363,3,-175.567,0\H,12,1.35056,9,89.4354,6,-67.7938,0\\\@

 Total job time:  41.90s(wall), 482.32s(cpu) 
 Thu Mar 14 05:43:23 2019

        *************************************************************
        *                                                           *
        *  Thank you very much for using Q-Chem.  Have a nice day.  *
        *                                                           *
        *************************************************************


