
Running Job 1 of 1 thiol/04/C-S.xyz.data/inputs/bond_triplet_2.3.in
qchem thiol/04/C-S.xyz.data/inputs/bond_triplet_2.3.in_9018.0 /staging/scratch/2868767/qchem9018/ 1
/usr/usc/qchem/5.1.1/exe/qcprog.exe_s thiol/04/C-S.xyz.data/inputs/bond_triplet_2.3.in_9018.0 /staging/scratch/2868767/qchem9018/
Check license passed

                  Welcome to Q-Chem
     A Quantum Leap Into The Future Of Chemistry


 Q-Chem 5.1, Q-Chem, Inc., Pleasanton, CA (2018)

 Yihan Shao,  Zhengting Gan,  E. Epifanovsky,  A. T. B. Gilbert,  M. Wormit,  
 J. Kussmann,  A. W. Lange,  A. Behn,  Jia Deng,  Xintian Feng,  D. Ghosh,  
 M. Goldey,  P. R. Horn,  L. D. Jacobson,  I. Kaliman,  T. Kus,  A. Landau,  
 Jie Liu,  E. I. Proynov,  R. M. Richard,  R. P. Steele,  E. J. Sundstrom,  
 H. L. Woodcock III,  P. M. Zimmerman,  D. Zuev,  B. Albrecht,  E. Alguire,  
 S. A. Baeppler,  D. Barton,  Z. Benda,  Y. A. Bernard,  E. J. Berquist,  
 K. B. Bravaya,  H. Burton,  D. Casanova,  Chun-Min Chang,  Yunqing Chen,  
 A. Chien,  K. D. Closser,  M. P. Coons,  S. Coriani,  S. Dasgupta,  
 A. L. Dempwolff,  M. Diedenhofen,  Hainam Do,  R. G. Edgar,  Po-Tung Fang,  
 S. Faraji,  S. Fatehi,  Qingguo Feng,  K. D. Fenk,  J. Fosso-Tande,  
 Qinghui Ge,  A. Ghysels,  G. Gidofalvi,  J. Gomes,  J. Gonthier,  A. Gunina,  
 D. Hait,  M. W. D. Hanson-Heine,  P. H. P. Harbach,  A. W. Hauser,  
 J. E. Herr,  E. G. Hohenstein,  Z. C. Holden,  Kerwin Hui,  B. C. Huynh,  
 T.-C. Jagau,  Hyunjun Ji,  B. Kaduk,  K. Khistyaev,  Jaehoon Kim,  
 P. Klunzinger,  K. Koh,  D. Kosenkov,  L. Koulias,  T. Kowalczyk,  
 C. M. Krauter,  A. Kunitsa,  Ka Un Lao,  A. Laurent,  K. V. Lawler,  
 Joonho Lee,  D. Lefrancois,  S. Lehtola,  D. S. Levine,  Yi-Pei Li,  
 You-Sheng Lin,  Fenglai Liu,  E. Livshits,  A. Luenser,  P. Manohar,  
 E. Mansoor,  S. F. Manzer,  Shan-Ping Mao,  Yuezhi Mao,  N. Mardirossian,  
 A. V. Marenich,  T. Markovich,  L. A. Martinez-Martinez,  S. A. Maurer,  
 N. J. Mayhall,  S. C. McKenzie,  J.-M. Mewes,  A. F. Morrison,  
 J. W. Mullinax,  K. Nanda,  T. S. Nguyen-Beck,  R. Olivares-Amaya,  
 J. A. Parkhill,  T. M. Perrine,  F. Plasser,  P. Pokhilko,  S. Prager,  
 A. Prociuk,  E. Ramos,  D. R. Rehn,  F. Rob,  M. Schneider,  N. Sergueev,  
 S. M. Sharada,  S. Sharma,  D. W. Small,  T. Stauch,  T. Stein,  
 Yu-Chuan Su,  A. J. W. Thom,  A. Tkatchenko,  T. Tsuchimochi,  N. M. Tubman,  
 L. Vogt,  M. L. Vidal,  O. Vydrov,  M. A. Watson,  J. Wenzel,  
 M. de Wergifosse,  T. A. Wesolowski,  A. White,  J. Witte,  A. Yamada,  
 Jun Yang,  K. Yao,  S. Yeganeh,  S. R. Yost,  Zhi-Qiang You,  A. Zech,  
 Igor Ying Zhang,  Xing Zhang,  Yan Zhao,  Ying Zhu,  B. R. Brooks,  
 G. K. L. Chan,  C. J. Cramer,  M. S. Gordon,  W. J. Hehre,  A. Klamt,  
 M. W. Schmidt,  C. D. Sherrill,  D. G. Truhlar,  A. Aspuru-Guzik,  R. Baer,  
 A. T. Bell,  N. A. Besley,  Jeng-Da Chai,  A. E. DePrince, III,  
 R. A. DiStasio Jr.,  A. Dreuw,  B. D. Dunietz,  T. R. Furlani,  
 Chao-Ping Hsu,  Yousung Jung,  Jing Kong,  D. S. Lambrecht,  WanZhen Liang,  
 C. Ochsenfeld,  V. A. Rassolov,  L. V. Slipchenko,  J. E. Subotnik,  
 T. Van Voorhis,  J. M. Herbert,  A. I. Krylov,  P. M. W. Gill,  M. Head-Gordon

 Contributors to earlier versions of Q-Chem not listed above: 
 R. D. Adamson,  B. Austin,  J. Baker,  G. J. O. Beran,  K. Brandhorst,  
 S. T. Brown,  E. F. C. Byrd,  A. K. Chakraborty,  C.-L. Cheng,  
 Siu Hung Chien,  D. M. Chipman,  D. L. Crittenden,  H. Dachsel,  
 R. J. Doerksen,  A. D. Dutoi,  L. Fusti-Molnar,  W. A. Goddard III,  
 A. Golubeva-Zadorozhnaya,  S. R. Gwaltney,  G. Hawkins,  A. Heyden,  
 S. Hirata,  G. Kedziora,  F. J. Keil,  C. Kelley,  Jihan Kim,  R. A. King,  
 R. Z. Khaliullin,  P. P. Korambath,  W. Kurlancheek,  A. M. Lee,  M. S. Lee,  
 S. V. Levchenko,  Ching Yeh Lin,  D. Liotard,  R. C. Lochan,  I. Lotan,  
 P. E. Maslen,  N. Nair,  D. P. O'Neill,  D. Neuhauser,  E. Neuscamman,  
 C. M. Oana,  R. Olson,  B. Peters,  R. Peverati,  P. A. Pieniazek,  
 Y. M. Rhee,  J. Ritchie,  M. A. Rohrdanz,  E. Rosta,  N. J. Russ,  
 H. F. Schaefer III,  N. E. Schultz,  N. Shenvi,  A. C. Simmonett,  A. Sodt,  
 D. Stuck,  K. S. Thanthiriwatte,  V. Vanovschi,  Tao Wang,  A. Warshel,  
 C. F. Williams,  Q. Wu,  X. Xu,  W. Zhang

 Please cite Q-Chem as follows:
 Y. Shao et al., Mol. Phys. 113, 184-215 (2015)
 DOI: 10.1080/00268976.2014.952696

 Q-Chem 5.1.1 for Intel X86 EM64T Linux

 Parts of Q-Chem use Armadillo 8.300.2 (Tropical Shenanigans).
 http://arma.sourceforge.net/

 Q-Chem begins on Thu Mar 14 08:45:08 2019  

Host: 
0

     Scratch files written to /staging/scratch/2868767/qchem9018//
 Aug318 |scratch|qcdevops|jenkins|workspace|build_RNUM 6013   
Processing $rem in /usr/usc/qchem/5.1.1/config/preferences.
 MEM_TOTAL  2000 
Input Ideriv = 2
Curr. Ideriv = -1
Max.  Ideriv = 2

Checking the input file for inconsistencies... 	...done.

--------------------------------------------------------------
User input:
--------------------------------------------------------------

$comment
potential surface scanner
$end

$rem
JOBTYPE  PES_SCAN
UNRESTRICTED TRUE
SYM_IGNORE  TRUE
GEOM_OPT_MAX_CYCLES 400
SCF_MAX_CYCLES 400
METHOD   B3LYP
BASIS   6-31G**
PDB_PRINT 2
SCF_CONVERGENCE 6
THRESH 14
SCF_PRINT 1
$end
$molecule
0 3
S 2.919392 -0.055190 0.029288
S -3.521049 -0.776702 0.049391
C 0.221426 0.495372 0.276045
C 1.171181 -0.649739 -0.069486
C -1.275514 0.055619 0.206906
H 0.437708 0.867341 1.284099
H 0.380373 1.331383 -0.414858
H 1.037747 -1.481049 0.629186
H 0.976075 -1.014398 -1.082304
H -1.406801 -0.753211 0.930661
H -1.459143 -0.298839 -0.810872
H 3.505349 -1.222689 -0.301874
H -1.878545 0.925711 0.452713
$end
$scan
stre 2 5 2.300000 2.301000 0.100000
$end
--------------------------------------------------------------
 ----------------------------------------------------------------
             Standard Nuclear Orientation (Angstroms)
    I     Atom           X                Y                Z
 ----------------------------------------------------------------
    1      S       2.9193920000    -0.0551900000     0.0292880000
    2      S      -3.5210490000    -0.7767020000     0.0493910000
    3      C       0.2214260000     0.4953720000     0.2760450000
    4      C       1.1711810000    -0.6497390000    -0.0694860000
    5      C      -1.2755140000     0.0556190000     0.2069060000
    6      H       0.4377080000     0.8673410000     1.2840990000
    7      H       0.3803730000     1.3313830000    -0.4148580000
    8      H       1.0377470000    -1.4810490000     0.6291860000
    9      H       0.9760750000    -1.0143980000    -1.0823040000
   10      H      -1.4068010000    -0.7532110000     0.9306610000
   11      H      -1.4591430000    -0.2988390000    -0.8108720000
   12      H       3.5053490000    -1.2226890000    -0.3018740000
   13      H      -1.8785450000     0.9257110000     0.4527130000
 ----------------------------------------------------------------
 Nuclear Repulsion Energy =   247.1213208610 hartrees
 There are       30 alpha and       28 beta electrons
 Requested basis set is 6-31G(d,p)
 There are 46 shells and 123 basis functions

 Total QAlloc Memory Limit   2000 MB
 Mega-Array Size       188 MB
 MEM_STATIC part       192 MB
A total of 1 constraints
  
            1
    1   1.0100000
    2   2.0100000
    3   5.0100000
    4   2.3000000
    5   2.3010000
    6   0.1000000
    7   0.0000000
    8   0.0000000
    9   0.0000000
   10   0.0000000

                       Distance Matrix (Angstroms)
             S (  1)   S (  2)   C (  3)   C (  4)   C (  5)   H (  6)
   S (  2)  6.480761
   C (  3)  2.764603  3.959250
   C (  4)  1.849185  4.695452  1.527320
   C (  5)  4.200127  2.399999  1.561727  2.561296
   H (  6)  2.929909  4.460845  1.096044  2.161413  2.180451
   H (  7)  2.926853  4.458771  1.096141  2.160903  2.180854  1.762123
   H (  8)  2.435886  4.649181  2.167332  1.094086  2.809065  2.510756
   H (  9)  2.435610  4.643421  2.166567  1.094003  2.806537  3.070935
   H ( 10)  4.473886  2.290684  2.153742  2.767127  1.093281  2.480589
   H ( 11)  4.465065  2.284702  2.153247  2.755247  1.093267  3.057274
   H ( 12)  1.347616  7.049295  3.750983  2.414667  4.974895  4.036577
   H ( 13)  4.915451  2.399729  2.150879  3.472112  1.086797  2.461633
             H (  7)   H (  8)   H (  9)   H ( 10)   H ( 11)   H ( 12)
   H (  8)  3.071147
   H (  9)  2.510584  1.775039
   H ( 10)  3.057768  2.568356  3.130231
   H ( 11)  2.489632  3.115421  2.552643  1.800592
   H ( 12)  4.037515  2.650034  2.655124  5.086135  5.075309
   H ( 13)  2.453561  3.785287  3.777454  1.808247  1.808886  5.845626

 
 A cutoff of  1.0D-14 yielded    992 shell pairs
 There are      7159 function pairs
 
 -------------------------------------------------------
 OpenMP Integral Computing Module                       
 Release: version 1.0, May 2013, Q-Chem Inc. Pittsburgh 
 -------------------------------------------------------
 Integral Job Info:
 Integral job number is                      11
 Integral operator is                         1
 short-range coefficients                     0
 long-range coefficients              100000000
 Omega coefficients                           0
 if combine SR and LR in K                    0
 Integral screening is                        0
 Integral computing path is                   2
 max size of driver memory is            800000
 size of driver memory is                593474
 size of scratch memory is             15267112
 max col of scratch BK array               1296
 max len of scratch array in speh3          155
 max len of scratch index in speh4           18
 max int batch size is                      520
 min int batch size is                       52
 fixed nKL is                                52
 max L of basis functions is                  2
 order of int derivative is                   0
 number of shells is                         46
 number of basis is                         123
 number of cartesian basis is               123
 number of contracted shell pairs           992
 number of primitive shell pairs           3706
 maxK2 (contraction) of shell pair           36
 max number of K2 of shell pair               1
 max number of CS2 of shell pair             81
 max number of PS2 of shell pair            318
 mem total for path MDJ                  515746
 -------------------------------------------------------
 Smallest overlap matrix eigenvalue = 4.51E-03

 Scale SEOQF with 1.000000e-01/1.000000e+00/1.000000e+00

 Standard Electronic Orientation quadrupole field applied
 Nucleus-field energy     =     0.0000000230 hartrees
 Guess from superposition of atomic densities
 Warning:  Energy on first SCF cycle will be non-variational
 SAD guess density has 58.000000 electrons

 -----------------------------------------------------------------------
  General SCF calculation program by
  Eric Jon Sundstrom, Paul Horn, Yuezhi Mao, Dmitri Zuev, Alec White,
  David Stuck, Shaama M.S., Shane Yost, Joonho Lee, David Small,
  Daniel Levine, Susi Lehtola, Hugh Burton, Evgeny Epifanovsky
 -----------------------------------------------------------------------
 Exchange:     0.2000 Hartree-Fock + 0.0800 Slater + 0.7200 B88
 Correlation:  0.1900 VWN1RPA + 0.8100 LYP
 Using SG-1 standard quadrature grid
 using 12 threads for integral computing
 -------------------------------------------------------
 OpenMP Integral computing Module                
 Release: version 1.0, May 2013, Q-Chem Inc. Pittsburgh 
 -------------------------------------------------------
 -------------------------------------------------------
 OpenMP BLAS3 based DFT computing Module                
 Release: version 1.0, May 2013, Q-Chem Inc. Pittsburgh 
 -------------------------------------------------------
 A unrestricted SCF calculation will be
 performed using DIIS
 SCF converges when DIIS error is below 1.0e-06
 Alpha HF Exchange    Energy =  -6.84179207484280
 Beta HF Exchange     Energy =  -6.84179207484280
 DFT Correlation      Energy =  -2.70572602833938
 DFT Exchange         Energy = -53.83633708425028
 One-Electron (alpha) Energy = -873.08380722247568
 One-Electron (beta)  Energy = -873.08380722247568
 Total Coulomb        Energy = 653.38613314298675
 ---------------------------------------
  Cycle       Energy         DIIS error
 ---------------------------------------
    1    -915.8858076802      2.65e-02  
 Alpha HF Exchange    Energy =  -6.96157695221462
 Beta HF Exchange     Energy =  -6.76917420373157
 DFT Correlation      Energy =  -2.72024637559909
 DFT Exchange         Energy = -54.46581948720058
 One-Electron (alpha) Energy = -890.76466538499574
 One-Electron (beta)  Energy = -862.60458666671900
 Total Coulomb        Energy = 661.82206910439788
    2    -915.3426790821      2.94e-03  
 Alpha HF Exchange    Energy =  -6.91414267748081
 Beta HF Exchange     Energy =  -6.71041712375635
 DFT Correlation      Energy =  -2.69653593091732
 DFT Exchange         Energy = -54.02511441147122
 One-Electron (alpha) Energy = -887.26526160305662
 One-Electron (beta)  Energy = -858.68022910356945
 Total Coulomb        Energy = 653.87014099347630
    3    -915.3002389728      3.68e-03  
 Alpha HF Exchange    Energy =  -6.93681563549266
 Beta HF Exchange     Energy =  -6.74087812908343
 DFT Correlation      Energy =  -2.70719666540010
 DFT Exchange         Energy = -54.23533655304018
 One-Electron (alpha) Energy = -889.07057249489799
 One-Electron (beta)  Energy = -860.61757798588326
 Total Coulomb        Energy = 657.77291972190790
    4    -915.4141368579      4.45e-04  
 Alpha HF Exchange    Energy =  -6.94054431968556
 Beta HF Exchange     Energy =  -6.74237371710076
 DFT Correlation      Energy =  -2.70783783137543
 DFT Exchange         Energy = -54.25597542751649
 One-Electron (alpha) Energy = -889.28370288494409
 One-Electron (beta)  Energy = -860.71144440404555
 Total Coulomb        Energy = 658.10462195845253
    5    -915.4159357422      1.13e-04  
 Alpha HF Exchange    Energy =  -6.93971070577462
 Beta HF Exchange     Energy =  -6.74150260900585
 DFT Correlation      Energy =  -2.70743571950014
 DFT Exchange         Energy = -54.24872715301238
 One-Electron (alpha) Energy = -889.21983481443374
 One-Electron (beta)  Energy = -860.63380913284868
 Total Coulomb        Energy = 657.95365896904605
    6    -915.4160402815      5.22e-05  
 Alpha HF Exchange    Energy =  -6.93969582002584
 Beta HF Exchange     Energy =  -6.74155911743377
 DFT Correlation      Energy =  -2.70738964737764
 DFT Exchange         Energy = -54.24863940975486
 One-Electron (alpha) Energy = -889.22162607091502
 One-Electron (beta)  Energy = -860.63378132109551
 Total Coulomb        Energy = 657.95530840000811
    7    -915.4160621026      1.34e-05  
 Alpha HF Exchange    Energy =  -6.93978863846875
 Beta HF Exchange     Energy =  -6.74161356176924
 DFT Correlation      Energy =  -2.70741024752466
 DFT Exchange         Energy = -54.24920890286116
 One-Electron (alpha) Energy = -889.22949513829417
 One-Electron (beta)  Energy = -860.63834716341989
 Total Coulomb        Energy = 657.96847928653358
    8    -915.4160634818      4.67e-06  
 Alpha HF Exchange    Energy =  -6.93978162678789
 Beta HF Exchange     Energy =  -6.74160287075737
 DFT Correlation      Energy =  -2.70740177260160
 DFT Exchange         Energy = -54.24912253228885
 One-Electron (alpha) Energy = -889.22814758080665
 One-Electron (beta)  Energy = -860.63631720663284
 Total Coulomb        Energy = 657.96498903225586
    9    -915.4160636736      1.18e-06  
 Alpha HF Exchange    Energy =  -6.93977771209697
 Beta HF Exchange     Energy =  -6.74160163744521
 DFT Correlation      Energy =  -2.70740001559076
 DFT Exchange         Energy = -54.24909854250785
 One-Electron (alpha) Energy = -889.22797134699988
 One-Electron (beta)  Energy = -860.63612843780345
 Total Coulomb        Energy = 657.96459311891306
   10    -915.4160636895      3.74e-07  Convergence criterion met
 ---------------------------------------
 SCF time:   CPU 31.52s  wall 3.00s 
<S^2> =          2.002800427
 Alpha HF Exchange    Energy =  -6.93977771209697
 Beta HF Exchange     Energy =  -6.74160163744521
 DFT Correlation      Energy =  -2.70740001559076
 DFT Exchange         Energy = -54.24909854250785
 One-Electron (alpha) Energy = -889.22797134699988
 One-Electron (beta)  Energy = -860.63612843780345
 Total Coulomb        Energy = 657.96459311891306
 Nuclear repulsion Energy = 247.12132088400526
 SCF   energy in the final basis set =     -915.4160636895
 Total energy in the final basis set =     -915.4160636895
 
 --------------------------------------------------------------
 
                    Orbital Energies (a.u.)
 --------------------------------------------------------------
 
 Alpha MOs
 -- Occupied --
-88.901 -88.877 -10.227 -10.208 -10.206  -7.962  -7.940  -5.932
 -5.931  -5.913  -5.905  -5.901  -5.894  -0.822  -0.764  -0.712
 -0.655  -0.600  -0.492  -0.456  -0.451  -0.428  -0.388  -0.367
 -0.364  -0.332  -0.304  -0.263  -0.261  -0.240
 -- Virtual --
  0.021   0.063   0.080   0.120   0.126   0.146   0.164   0.165
  0.175   0.204   0.225   0.303   0.351   0.353   0.370   0.376
  0.386   0.388   0.396   0.489   0.501   0.515   0.543   0.592
  0.634   0.636   0.670   0.723   0.726   0.734   0.743   0.746
  0.756   0.794   0.838   0.839   0.857   0.897   0.899   0.917
  0.930   0.948   0.961   1.033   1.060   1.142   1.207   1.303
  1.349   1.390   1.553   1.630   1.650   1.670   1.814   1.857
  1.958   1.999   2.028   2.062   2.063   2.069   2.082   2.104
  2.159   2.212   2.259   2.298   2.327   2.475   2.505   2.538
  2.576   2.652   2.724   2.742   2.757   2.790   2.835   2.866
  2.894   3.172   3.244   3.303   3.308   3.436   3.446   3.542
  3.878   3.980   4.258   4.450   4.617
 
 Beta MOs
 -- Occupied --
-88.890 -88.877 -10.227 -10.207 -10.204  -7.952  -7.940  -5.911
 -5.910  -5.907  -5.905  -5.901  -5.894  -0.819  -0.755  -0.678
 -0.618  -0.584  -0.489  -0.453  -0.445  -0.423  -0.376  -0.360
 -0.359  -0.330  -0.240  -0.236
 -- Virtual --
 -0.157  -0.130   0.021   0.064   0.082   0.121   0.127   0.149
  0.165   0.168   0.177   0.206   0.235   0.329   0.352   0.372
  0.386   0.386   0.395   0.398   0.426   0.491   0.506   0.520
  0.548   0.606   0.647   0.650   0.690   0.734   0.748   0.752
  0.785   0.789   0.820   0.831   0.841   0.843   0.858   0.899
  0.904   0.932   0.936   0.951   0.969   1.038   1.067   1.144
  1.231   1.306   1.351   1.394   1.554   1.632   1.652   1.672
  1.818   1.858   1.961   2.002   2.032   2.063   2.064   2.072
  2.083   2.104   2.160   2.212   2.260   2.299   2.328   2.476
  2.506   2.541   2.577   2.655   2.727   2.744   2.759   2.791
  2.836   2.869   2.896   3.175   3.246   3.306   3.309   3.439
  3.448   3.544   3.911   3.981   4.260   4.451   4.619
 --------------------------------------------------------------
 
          Ground-State Mulliken Net Atomic Charges

     Atom                 Charge (a.u.)    Spin (a.u.)
  --------------------------------------------------------
      1 S                    -0.046331       0.002132
      2 S                    -0.075289       1.864383
      3 C                    -0.202334       0.072167
      4 C                    -0.319371      -0.002529
      5 C                    -0.407134       0.036082
      6 H                     0.124852       0.001850
      7 H                     0.124768       0.001770
      8 H                     0.136579       0.000595
      9 H                     0.136577       0.000598
     10 H                     0.150433       0.008363
     11 H                     0.150405       0.008491
     12 H                     0.057777       0.001560
     13 H                     0.169066       0.004538
  --------------------------------------------------------
  Sum of atomic charges =    -0.000000
  Sum of spin   charges =     2.000000

 -----------------------------------------------------------------
                    Cartesian Multipole Moments
 -----------------------------------------------------------------
    Charge (ESU x 10^10)
                 0.0000
    Dipole Moment (Debye)
         X       0.2720      Y      -0.6193      Z      -0.1664
       Tot       0.6966
    Quadrupole Moments (Debye-Ang)
        XX     -57.3035     XY      -5.4815     YY     -46.9195
        XZ      -1.0928     YZ       0.0912     ZZ     -46.8726
    Octopole Moments (Debye-Ang^2)
       XXX      43.3477    XXY       2.6143    XYY      15.5817
       YYY      40.4535    XXZ      -9.0738    XYZ       4.2434
       YYZ      -2.2723    XZZ      -1.0504    YZZ      11.1507
       ZZZ     -11.2123
    Hexadecapole Moments (Debye-Ang^3)
      XXXX   -1963.3423   XXXY    -123.5206   XXYY    -346.4193
      XYYY     -96.9488   YYYY    -168.6874   XXXZ       4.8957
      XXYZ      -0.5184   XYYZ      -0.7588   YYYZ      -6.0492
      XXZZ    -335.1986   XYZZ     -24.2763   YYZZ     -39.1491
      XZZZ      10.8146   YZZZ      -3.1421   ZZZZ     -81.8028
 -----------------------------------------------------------------
 Calculating analytic gradient of the SCF energy
 Gradient of SCF Energy
            1           2           3           4           5           6
    1   0.0000125   0.0447522   0.0000999  -0.0000487  -0.0447279  -0.0000482
    2  -0.0000024   0.0166412   0.0000670   0.0000111  -0.0166845  -0.0000140
    3   0.0000056   0.0031090  -0.0000247   0.0000069  -0.0031487   0.0000046
            7           8           9          10          11          12
    1  -0.0000289   0.0000080   0.0000028   0.0000041  -0.0000091   0.0000069
    2  -0.0000057   0.0000105  -0.0000104   0.0000188  -0.0000171   0.0000016
    3  -0.0000068   0.0000188   0.0000131  -0.0000094   0.0000220   0.0000217
           13
    1  -0.0000236
    2  -0.0000162
    3  -0.0000121
 Max gradient component =       4.475E-02
 RMS gradient           =       1.083E-02
 Gradient time:  CPU 11.02 s  wall 0.98 s
 Geometry Optimization Parameters
   NAtoms,    NIC,     NZ,  NCons,   NDum,   NFix, NCnnct, MaxDiis
       13     121       0       1       0       0       0       0


** CONSTRAINED OPTIMIZATION IN DELOCALIZED INTERNAL COORDINATES **
   Searching for a Minimum

   Optimization Cycle:   1

                       Coordinates (Angstroms)
     ATOM                X               Y               Z
      1  S         2.9193920000   -0.0551900000    0.0292880000
      2  S        -3.5210490000   -0.7767020000    0.0493910000
      3  C         0.2214260000    0.4953720000    0.2760450000
      4  C         1.1711810000   -0.6497390000   -0.0694860000
      5  C        -1.2755140000    0.0556190000    0.2069060000
      6  H         0.4377080000    0.8673410000    1.2840990000
      7  H         0.3803730000    1.3313830000   -0.4148580000
      8  H         1.0377470000   -1.4810490000    0.6291860000
      9  H         0.9760750000   -1.0143980000   -1.0823040000
     10  H        -1.4068010000   -0.7532110000    0.9306610000
     11  H        -1.4591430000   -0.2988390000   -0.8108720000
     12  H         3.5053490000   -1.2226890000   -0.3018740000
     13  H        -1.8785450000    0.9257110000    0.4527130000
   Point Group: c1    Number of degrees of freedom:    33


   Energy is   -915.416063690

              Constraints and their Current Values
                                        Value     Constraint
   Distance(Angs):        2   5             2.399999     2.300000

 Attempting to Generate Delocalized Internal Coordinates

   Using Lagrange Multiplier Algorithm


 34 Hessian modes will be used to form the next step
  Hessian Eigenvalues:
    -0.968815    0.045000    0.045000    0.045075    0.057578    0.059108
     0.062259    0.068489    0.078120    0.079105    0.081867    0.082010
     0.084779    0.095150    0.123646    0.123958    0.133563    0.137178
     0.142544    0.160000    0.218592    0.220612    0.225958    0.258222
     0.266696    0.293123    0.295482    0.296723    0.307553    0.341124
     0.341234    0.343447    0.343541    1.032188

 Minimum Search - Taking P-RFO Step
 Searching for Lamda that Maximizes Along the Constraint modes Only
 Value Taken    Lamda =   0.02863661
 Searching for Lamda that Minimizes Along All other modes
 Value Taken    Lamda =  -0.00906114
 Step Taken.  Stepsize is  0.184900

                             Maximum     Tolerance    Cnvgd?
         Gradient            0.188971       0.000300      NO
         Displacement        0.184898       0.001200      NO
         Energy change     *********       0.000001      NO


 New Cartesian Coordinates Obtained by Inverse Iteration

 Displacement from previous Coordinates is:  0.183471
 ----------------------------------------------------------------
             Standard Nuclear Orientation (Angstroms)
    I     Atom           X                Y                Z
 ----------------------------------------------------------------
    1      S       2.9052835443    -0.0535892258     0.0303305136
    2      S      -3.4414066822    -0.7575933899     0.0521621818
    3      C       0.2058834216     0.4905321890     0.2751830854
    4      C       1.1586150460    -0.6523216639    -0.0698269941
    5      C      -1.2899475592     0.0472493664     0.2050384307
    6      H       0.4208704454     0.8629341298     1.2833659071
    7      H       0.3635373653     1.3269329229    -0.4155615078
    8      H       1.0266299904    -1.4840550631     0.6286207751
    9      H       0.9651058098    -1.0172973776    -1.0828403637
   10      H      -1.3890371259    -0.7545424727     0.9342562076
   11      H      -1.4414817238    -0.2978808153    -0.8155730614
   12      H       3.4942102443    -1.2196669843    -0.3005676606
   13      H      -1.8700637758     0.9329073845     0.4543074865
 ----------------------------------------------------------------
 Nuclear Repulsion Energy =   249.4665544485 hartrees
 There are       30 alpha and       28 beta electrons

                       Distance Matrix (Angstroms)
             S (  1)   S (  2)   C (  3)   C (  4)   C (  5)   H (  6)
   S (  2)  6.385654
   C (  3)  2.764558  3.861383
   C (  4)  1.849152  4.602843  1.527365
   C (  5)  4.200078  2.302155  1.561707  2.561330
   H (  6)  2.929577  4.365679  1.096054  2.161342  2.180603
   H (  7)  2.926625  4.363670  1.096152  2.160817  2.180997  1.762083
   H (  8)  2.435882  4.563267  2.167380  1.094089  2.809065  2.510776
   H (  9)  2.435605  4.557744  2.166609  1.094006  2.806627  3.070895
   H ( 10)  4.444053  2.233902  2.127994  2.740285  1.088323  2.452320
   H ( 11)  4.435042  2.228004  2.127241  2.728052  1.087991  3.036674
   H ( 12)  1.347615  6.959936  3.750915  2.414566  4.974825  4.036272
   H ( 13)  4.894576  2.342783  2.130103  3.458405  1.087686  2.437337
             H (  7)   H (  8)   H (  9)   H ( 10)   H ( 11)   H ( 12)
   H (  8)  3.071101
   H (  9)  2.510490  1.775034
   H ( 10)  3.037444  2.541859  3.111223
   H ( 11)  2.461325  3.095849  2.525996  1.809197
   H ( 12)  4.037265  2.649952  2.655047  5.058383  5.047373
   H ( 13)  2.429177  3.776629  3.768860  1.819127  1.819648  5.829138

 
 Applying Cartesian multipole field
    Component          Value
    ---------          -----
     (2,0,0)        1.00000E-11
     (0,2,0)        2.00000E-10
     (0,0,2)       -3.00000E-10
 Nucleus-field energy     =     0.0000000223 hartrees
 Requested basis set is 6-31G(d,p)
 There are 46 shells and 123 basis functions
 A cutoff of  1.0D-14 yielded    992 shell pairs
 There are      7159 function pairs
 Smallest overlap matrix eigenvalue = 4.40E-03
 Guess from superposition of atomic densities
 Warning:  Energy on first SCF cycle will be non-variational
 SAD guess density has 58.000000 electrons

 -----------------------------------------------------------------------
  General SCF calculation program by
  Eric Jon Sundstrom, Paul Horn, Yuezhi Mao, Dmitri Zuev, Alec White,
  David Stuck, Shaama M.S., Shane Yost, Joonho Lee, David Small,
  Daniel Levine, Susi Lehtola, Hugh Burton, Evgeny Epifanovsky
 -----------------------------------------------------------------------
 Exchange:     0.2000 Hartree-Fock + 0.0800 Slater + 0.7200 B88
 Correlation:  0.1900 VWN1RPA + 0.8100 LYP
 Using SG-1 standard quadrature grid
 using 12 threads for integral computing
 -------------------------------------------------------
 OpenMP Integral computing Module                
 Release: version 1.0, May 2013, Q-Chem Inc. Pittsburgh 
 -------------------------------------------------------
 -------------------------------------------------------
 OpenMP BLAS3 based DFT computing Module                
 Release: version 1.0, May 2013, Q-Chem Inc. Pittsburgh 
 -------------------------------------------------------
 A unrestricted SCF calculation will be
 performed using DIIS
 SCF converges when DIIS error is below 1.0e-06
 Alpha HF Exchange    Energy =  -6.84650481405467
 Beta HF Exchange     Energy =  -6.84650481405467
 DFT Correlation      Energy =  -2.70747196459131
 DFT Exchange         Energy = -53.84515946460676
 One-Electron (alpha) Energy = -875.41990287793362
 One-Electron (beta)  Energy = -875.41990287793362
 Total Coulomb        Energy = 655.69514615876381
 ---------------------------------------
  Cycle       Energy         DIIS error
 ---------------------------------------
    1    -915.9237461836      2.68e-02  
 Alpha HF Exchange    Energy =  -6.96362347394979
 Beta HF Exchange     Energy =  -6.76908793347372
 DFT Correlation      Energy =  -2.72251340521706
 DFT Exchange         Energy = -54.47643161840504
 One-Electron (alpha) Energy = -893.26763028319385
 One-Electron (beta)  Energy = -864.82537884741214
 Total Coulomb        Energy = 664.22439908919864
    2    -915.3337120017      2.91e-03  
 Alpha HF Exchange    Energy =  -6.91547999111736
 Beta HF Exchange     Energy =  -6.71157284478068
 DFT Correlation      Energy =  -2.69858408340761
 DFT Exchange         Energy = -54.03544629759217
 One-Electron (alpha) Energy = -889.69531298266179
 One-Electron (beta)  Energy = -860.90372887164403
 Total Coulomb        Energy = 656.19826317262107
    3    -915.2953074278      3.61e-03  
 Alpha HF Exchange    Energy =  -6.93840227958378
 Beta HF Exchange     Energy =  -6.74119370792229
 DFT Correlation      Energy =  -2.70932897428232
 DFT Exchange         Energy = -54.24489051170647
 One-Electron (alpha) Energy = -891.53114019572979
 One-Electron (beta)  Energy = -862.83035856148558
 Total Coulomb        Energy = 660.12494650838039
    4    -915.4038132516      4.60e-04  
 Alpha HF Exchange    Energy =  -6.94215028254404
 Beta HF Exchange     Energy =  -6.74262747415008
 DFT Correlation      Energy =  -2.70997488423212
 DFT Exchange         Energy = -54.26536297438449
 One-Electron (alpha) Energy = -891.74398026959045
 One-Electron (beta)  Energy = -862.92275753980221
 Total Coulomb        Energy = 660.45454669261983
    5    -915.4057522613      1.11e-04  
 Alpha HF Exchange    Energy =  -6.94129256980712
 Beta HF Exchange     Energy =  -6.74177246737957
 DFT Correlation      Energy =  -2.70955957698650
 DFT Exchange         Energy = -54.25803438434544
 One-Electron (alpha) Energy = -891.67734514806068
 One-Electron (beta)  Energy = -862.84421741397921
 Total Coulomb        Energy = 660.29981285984195
    6    -915.4058542300      5.16e-05  
 Alpha HF Exchange    Energy =  -6.94130218732282
 Beta HF Exchange     Energy =  -6.74184549396814
 DFT Correlation      Energy =  -2.70952195850142
 DFT Exchange         Energy = -54.25811650696522
 One-Electron (alpha) Energy = -891.68113984251602
 One-Electron (beta)  Energy = -862.84558253054809
 Total Coulomb        Energy = 660.30507850837625
    7    -915.4058755407      1.35e-05  
 Alpha HF Exchange    Energy =  -6.94139544031848
 Beta HF Exchange     Energy =  -6.74189755104771
 DFT Correlation      Energy =  -2.70954182499479
 DFT Exchange         Energy = -54.25867590461898
 One-Electron (alpha) Energy = -891.68893541289447
 One-Electron (beta)  Energy = -862.85000979141137
 Total Coulomb        Energy = 660.31802450733858
    8    -915.4058769472      4.59e-06  
 Alpha HF Exchange    Energy =  -6.94138494435088
 Beta HF Exchange     Energy =  -6.74188524082200
 DFT Correlation      Energy =  -2.70953232964016
 DFT Exchange         Energy = -54.25856856678648
 One-Electron (alpha) Energy = -891.68732170348471
 One-Electron (beta)  Energy = -862.84784112561442
 Total Coulomb        Energy = 660.31410230722804
    9    -915.4058771327      1.25e-06  
 Alpha HF Exchange    Energy =  -6.94138114586244
 Beta HF Exchange     Energy =  -6.74188456585955
 DFT Correlation      Energy =  -2.70953071444398
 DFT Exchange         Energy = -54.25854743620049
 One-Electron (alpha) Energy = -891.68715340556435
 One-Electron (beta)  Energy = -862.84770121408462
 Total Coulomb        Energy = 660.31376686203669
   10    -915.4058771492      3.81e-07  Convergence criterion met
 ---------------------------------------
 SCF time:   CPU 30.59s  wall 3.00s 
<S^2> =          2.002959538
 Alpha HF Exchange    Energy =  -6.94138114586244
 Beta HF Exchange     Energy =  -6.74188456585955
 DFT Correlation      Energy =  -2.70953071444398
 DFT Exchange         Energy = -54.25854743620049
 One-Electron (alpha) Energy = -891.68715340556435
 One-Electron (beta)  Energy = -862.84770121408462
 Total Coulomb        Energy = 660.31376686203669
 Nuclear repulsion Energy = 249.46655447076412
 SCF   energy in the final basis set =     -915.4058771492
 Total energy in the final basis set =     -915.4058771492
 
 --------------------------------------------------------------
 
                    Orbital Energies (a.u.)
 --------------------------------------------------------------
 
 Alpha MOs
 -- Occupied --
-88.894 -88.878 -10.228 -10.209 -10.209  -7.956  -7.941  -5.925
 -5.924  -5.907  -5.906  -5.902  -5.895  -0.826  -0.769  -0.713
 -0.653  -0.600  -0.497  -0.461  -0.453  -0.434  -0.390  -0.369
 -0.366  -0.333  -0.299  -0.257  -0.249  -0.241
 -- Virtual --
  0.020   0.061   0.076   0.118   0.123   0.144   0.162   0.163
  0.175   0.203   0.225   0.308   0.350   0.355   0.368   0.378
  0.385   0.388   0.396   0.488   0.498   0.514   0.539   0.598
  0.628   0.639   0.671   0.730   0.730   0.734   0.747   0.748
  0.764   0.804   0.835   0.837   0.856   0.895   0.897   0.917
  0.932   0.948   0.965   1.033   1.063   1.142   1.232   1.302
  1.347   1.397   1.554   1.632   1.652   1.670   1.813   1.857
  1.958   1.990   2.024   2.056   2.060   2.063   2.080   2.103
  2.162   2.211   2.266   2.301   2.331   2.483   2.510   2.534
  2.574   2.638   2.729   2.744   2.758   2.789   2.831   2.861
  2.894   3.179   3.252   3.302   3.306   3.435   3.444   3.545
  3.890   3.980   4.258   4.450   4.617
 
 Beta MOs
 -- Occupied --
-88.884 -88.878 -10.228 -10.207 -10.207  -7.946  -7.941  -5.905
 -5.905  -5.904  -5.902  -5.901  -5.895  -0.822  -0.760  -0.683
 -0.619  -0.580  -0.492  -0.458  -0.446  -0.428  -0.378  -0.361
 -0.361  -0.331  -0.241  -0.232
 -- Virtual --
 -0.153  -0.120   0.020   0.062   0.078   0.120   0.124   0.147
  0.163   0.166   0.177   0.205   0.236   0.333   0.351   0.371
  0.385   0.389   0.397   0.400   0.424   0.490   0.504   0.519
  0.545   0.608   0.643   0.651   0.694   0.733   0.747   0.758
  0.789   0.792   0.828   0.835   0.842   0.843   0.858   0.898
  0.901   0.931   0.937   0.953   0.974   1.040   1.069   1.144
  1.254   1.305   1.349   1.403   1.555   1.634   1.653   1.672
  1.817   1.858   1.961   1.994   2.029   2.061   2.061   2.063
  2.081   2.104   2.163   2.211   2.267   2.303   2.333   2.485
  2.512   2.537   2.576   2.642   2.732   2.747   2.761   2.791
  2.833   2.865   2.896   3.182   3.254   3.305   3.309   3.438
  3.446   3.547   3.923   3.980   4.260   4.451   4.619
 --------------------------------------------------------------
 
          Ground-State Mulliken Net Atomic Charges

     Atom                 Charge (a.u.)    Spin (a.u.)
  --------------------------------------------------------
      1 S                    -0.045135       0.002368
      2 S                    -0.084429       1.835520
      3 C                    -0.205590       0.089129
      4 C                    -0.320012      -0.002998
      5 C                    -0.421277       0.030990
      6 H                     0.125305       0.002123
      7 H                     0.125220       0.002031
      8 H                     0.136640       0.000745
      9 H                     0.136627       0.000749
     10 H                     0.158808       0.014258
     11 H                     0.158769       0.014422
     12 H                     0.058045       0.002001
     13 H                     0.177030       0.008662
  --------------------------------------------------------
  Sum of atomic charges =    -0.000000
  Sum of spin   charges =     2.000000

 -----------------------------------------------------------------
                    Cartesian Multipole Moments
 -----------------------------------------------------------------
    Charge (ESU x 10^10)
                -0.0000
    Dipole Moment (Debye)
         X       0.5135      Y      -0.5347      Z      -0.1512
       Tot       0.7567
    Quadrupole Moments (Debye-Ang)
        XX     -58.4173     XY      -5.8612     YY     -46.9351
        XZ      -1.1237     YZ       0.0896     ZZ     -46.7742
    Octopole Moments (Debye-Ang^2)
       XXX      47.4260    XXY       4.0457    XYY      15.1455
       YYY      40.0605    XXZ      -9.0079    XYZ       4.1418
       YYZ      -2.2824    XZZ      -1.5851    YZZ      10.9821
       ZZZ     -11.2674
    Hexadecapole Moments (Debye-Ang^3)
      XXXX   -1935.5307   XXXY    -124.8912   XXYY    -338.7990
      XYYY     -92.7200   YYYY    -166.3237   XXXZ       4.9111
      XXYZ      -0.1239   XYYZ      -0.5770   YYYZ      -5.8839
      XXZZ    -327.5411   XYZZ     -22.9948   YYZZ     -38.7537
      XZZZ      10.8851   YZZZ      -3.0771   ZZZZ     -81.5910
 -----------------------------------------------------------------
 Calculating analytic gradient of the SCF energy
 Gradient of SCF Energy
            1           2           3           4           5           6
    1   0.0000694   0.0573441  -0.0048759  -0.0001647  -0.0547549  -0.0000854
    2   0.0000274   0.0216565  -0.0012763  -0.0002414  -0.0254650  -0.0000504
    3   0.0000105   0.0040018  -0.0002281  -0.0000596  -0.0052957  -0.0000420
            7           8           9          10          11          12
    1  -0.0000613   0.0000020  -0.0000066   0.0013296   0.0014662  -0.0000179
    2  -0.0000634   0.0000896   0.0000462   0.0022592   0.0013392   0.0000189
    3   0.0000184  -0.0000073   0.0000804  -0.0012626   0.0023010   0.0000284
           13
    1  -0.0002447
    2   0.0016596
    3   0.0004547
 Max gradient component =       5.734E-02
 RMS gradient           =       1.386E-02
 Gradient time:  CPU 11.38 s  wall 6.10 s
 Geometry Optimization Parameters
   NAtoms,    NIC,     NZ,  NCons,   NDum,   NFix, NCnnct, MaxDiis
       13     121       0       1       0       0       0       0

 Cartesian Hessian Update
 Hessian Updated using BFGS Update


** CONSTRAINED OPTIMIZATION IN DELOCALIZED INTERNAL COORDINATES **
   Searching for a Minimum

   Optimization Cycle:   2

                       Coordinates (Angstroms)
     ATOM                X               Y               Z
      1  S         2.9052835443   -0.0535892258    0.0303305136
      2  S        -3.4414066822   -0.7575933899    0.0521621818
      3  C         0.2058834216    0.4905321890    0.2751830854
      4  C         1.1586150460   -0.6523216639   -0.0698269941
      5  C        -1.2899475592    0.0472493664    0.2050384307
      6  H         0.4208704454    0.8629341298    1.2833659071
      7  H         0.3635373653    1.3269329229   -0.4155615078
      8  H         1.0266299904   -1.4840550631    0.6286207751
      9  H         0.9651058098   -1.0172973776   -1.0828403637
     10  H        -1.3890371259   -0.7545424727    0.9342562076
     11  H        -1.4414817238   -0.2978808153   -0.8155730614
     12  H         3.4942102443   -1.2196669843   -0.3005676606
     13  H        -1.8700637758    0.9329073845    0.4543074865
   Point Group: c1    Number of degrees of freedom:    33


   Energy is   -915.405877149

              Constraints and their Current Values
                                        Value     Constraint
   Distance(Angs):        2   5             2.302155     2.300000
 Hessian Updated using BFGS Update

   Using Lagrange Multiplier Algorithm


 34 Hessian modes will be used to form the next step
  Hessian Eigenvalues:
    -0.961043    0.045000    0.045000    0.045075    0.057580    0.059108
     0.062260    0.068490    0.078419    0.079106    0.081874    0.082140
     0.084779    0.095150    0.123646    0.123960    0.133563    0.137179
     0.142544    0.160000    0.218606    0.220612    0.225959    0.258222
     0.274927    0.293123    0.296723    0.301258    0.308777    0.341126
     0.341236    0.343450    0.343544    1.041972

 Minimum Search - Taking P-RFO Step
 Searching for Lamda that Maximizes Along the Constraint modes Only
 Value Taken    Lamda =   0.00004982
 Searching for Lamda that Minimizes Along All other modes
 Value Taken    Lamda =  -0.00016940
 Step Taken.  Stepsize is  0.027080

                             Maximum     Tolerance    Cnvgd?
         Gradient            0.005943       0.000300      NO
         Displacement        0.016834       0.001200      NO
         Energy change      0.010187       0.000001      NO


 New Cartesian Coordinates Obtained by Inverse Iteration

 Displacement from previous Coordinates is:  0.039937
 ----------------------------------------------------------------
             Standard Nuclear Orientation (Angstroms)
    I     Atom           X                Y                Z
 ----------------------------------------------------------------
    1      S       2.9094087347    -0.0536897604     0.0306689072
    2      S      -3.4461772437    -0.7552752498     0.0537567193
    3      C       0.2101122616     0.4916579297     0.2750441195
    4      C       1.1625944022    -0.6514640647    -0.0700436292
    5      C      -1.2959930223     0.0470873103     0.2051591293
    6      H       0.4259719932     0.8638569056     1.2832313230
    7      H       0.3686180607     1.3280899128    -0.4156345477
    8      H       1.0302600785    -1.4834219879     0.6282578466
    9      H       0.9693006704    -1.0164846867    -1.0832092627
   10      H      -1.3980715128    -0.7578874364     0.9357100639
   11      H      -1.4512716733    -0.3000116925    -0.8182123121
   12      H       3.4980086434    -1.2200496051    -0.3000417228
   13      H      -1.8745623927     0.9312014251     0.4542083658
 ----------------------------------------------------------------
 Nuclear Repulsion Energy =   249.1829487134 hartrees
 There are       30 alpha and       28 beta electrons

                       Distance Matrix (Angstroms)
             S (  1)   S (  2)   C (  3)   C (  4)   C (  5)   H (  6)
   S (  2)  6.394234
   C (  3)  2.764656  3.869401
   C (  4)  1.849010  4.611603  1.527428
   C (  5)  4.210226  2.300000  1.571903  2.570674
   H (  6)  2.928867  4.373412  1.096161  2.161056  2.189638
   H (  7)  2.926452  4.371888  1.096257  2.160663  2.190270  1.762086
   H (  8)  2.435661  4.571514  2.167566  1.094208  2.816545  2.510751
   H (  9)  2.435512  4.566987  2.166959  1.094124  2.814717  3.070982
   H ( 10)  4.457508  2.229930  2.141051  2.753158  1.091837  2.465352
   H ( 11)  4.449360  2.224240  2.140595  2.741454  1.091732  3.048721
   H ( 12)  1.347670  6.968709  3.751124  2.414611  4.984307  4.035694
   H ( 13)  4.902630  2.339773  2.138029  3.464678  1.085553  2.446277
             H (  7)   H (  8)   H (  9)   H ( 10)   H ( 11)   H ( 12)
   H (  8)  3.071169
   H (  9)  2.510678  1.775068
   H ( 10)  3.049365  2.552983  3.122076
   H ( 11)  2.474830  3.106563  2.538253  1.813484
   H ( 12)  4.037259  2.649696  2.655024  5.070727  5.060667
   H ( 13)  2.438443  3.781361  3.774214  1.819865  1.820471  5.836205

 
 Applying Cartesian multipole field
    Component          Value
    ---------          -----
     (2,0,0)        1.00000E-11
     (0,2,0)        2.00000E-10
     (0,0,2)       -3.00000E-10
 Nucleus-field energy     =     0.0000000223 hartrees
 Requested basis set is 6-31G(d,p)
 There are 46 shells and 123 basis functions
 A cutoff of  1.0D-14 yielded    991 shell pairs
 There are      7153 function pairs
 Smallest overlap matrix eigenvalue = 4.49E-03
 Guess from superposition of atomic densities
 Warning:  Energy on first SCF cycle will be non-variational
 SAD guess density has 58.000000 electrons

 -----------------------------------------------------------------------
  General SCF calculation program by
  Eric Jon Sundstrom, Paul Horn, Yuezhi Mao, Dmitri Zuev, Alec White,
  David Stuck, Shaama M.S., Shane Yost, Joonho Lee, David Small,
  Daniel Levine, Susi Lehtola, Hugh Burton, Evgeny Epifanovsky
 -----------------------------------------------------------------------
 Exchange:     0.2000 Hartree-Fock + 0.0800 Slater + 0.7200 B88
 Correlation:  0.1900 VWN1RPA + 0.8100 LYP
 Using SG-1 standard quadrature grid
 using 12 threads for integral computing
 -------------------------------------------------------
 OpenMP Integral computing Module                
 Release: version 1.0, May 2013, Q-Chem Inc. Pittsburgh 
 -------------------------------------------------------
 -------------------------------------------------------
 OpenMP BLAS3 based DFT computing Module                
 Release: version 1.0, May 2013, Q-Chem Inc. Pittsburgh 
 -------------------------------------------------------
 A unrestricted SCF calculation will be
 performed using DIIS
 SCF converges when DIIS error is below 1.0e-06
 Alpha HF Exchange    Energy =  -6.84509058061146
 Beta HF Exchange     Energy =  -6.84509058061146
 DFT Correlation      Energy =  -2.70715534518116
 DFT Exchange         Energy = -53.84246543565201
 One-Electron (alpha) Energy = -875.14250363861436
 One-Electron (beta)  Energy = -875.14250363861436
 Total Coulomb        Energy = 655.42986484666130
 ---------------------------------------
  Cycle       Energy         DIIS error
 ---------------------------------------
    1    -915.9119956369      2.67e-02  
 Alpha HF Exchange    Energy =  -6.96286349653325
 Beta HF Exchange     Energy =  -6.76824271586905
 DFT Correlation      Energy =  -2.72217087178631
 DFT Exchange         Energy = -54.47091063127105
 One-Electron (alpha) Energy = -892.97200639809728
 One-Electron (beta)  Energy = -864.53723773100330
 Total Coulomb        Energy = 663.91595968036995
    2    -915.3345234285      2.89e-03  
 Alpha HF Exchange    Energy =  -6.91506247762852
 Beta HF Exchange     Energy =  -6.71124043521809
 DFT Correlation      Energy =  -2.69836196934057
 DFT Exchange         Energy = -54.03295166754646
 One-Electron (alpha) Energy = -889.42584773124975
 One-Electron (beta)  Energy = -860.64673020678174
 Total Coulomb        Energy = 655.95004400530740
    3    -915.2972017467      3.57e-03  
 Alpha HF Exchange    Energy =  -6.93780653203660
 Beta HF Exchange     Energy =  -6.74056344441201
 DFT Correlation      Energy =  -2.70903824772409
 DFT Exchange         Energy = -54.24072154443900
 One-Electron (alpha) Energy = -891.24702706272558
 One-Electron (beta)  Energy = -862.55454188504234
 Total Coulomb        Energy = 659.84310378735063
    4    -915.4036461933      4.61e-04  
 Alpha HF Exchange    Energy =  -6.94154724338194
 Beta HF Exchange     Energy =  -6.74198388907172
 DFT Correlation      Energy =  -2.70968030377465
 DFT Exchange         Energy = -54.26110465487645
 One-Electron (alpha) Energy = -891.45922385924359
 One-Electron (beta)  Energy = -862.64644369101086
 Total Coulomb        Energy = 660.17144283984476
    5    -915.4055920658      1.11e-04  
 Alpha HF Exchange    Energy =  -6.94068717587640
 Beta HF Exchange     Energy =  -6.74113032382063
 DFT Correlation      Energy =  -2.70926170873121
 DFT Exchange         Energy = -54.25375885530569
 One-Electron (alpha) Energy = -891.39221544069494
 One-Electron (beta)  Energy = -862.56763015207116
 Total Coulomb        Energy = 660.01604154041479
    6    -915.4056933804      5.14e-05  
 Alpha HF Exchange    Energy =  -6.94070299063165
 Beta HF Exchange     Energy =  -6.74120734333962
 DFT Correlation      Energy =  -2.70922645312487
 DFT Exchange         Energy = -54.25388423669946
 One-Electron (alpha) Energy = -891.39649416890404
 One-Electron (beta)  Energy = -862.56932460779728
 Total Coulomb        Energy = 660.02217652609443
    7    -915.4057145387      1.35e-05  
 Alpha HF Exchange    Energy =  -6.94079632079958
 Beta HF Exchange     Energy =  -6.74125880255302
 DFT Correlation      Energy =  -2.70924599157919
 DFT Exchange         Energy = -54.25444052414613
 One-Electron (alpha) Energy = -891.40427671002601
 One-Electron (beta)  Energy = -862.57372433630917
 Total Coulomb        Energy = 660.03507798997191
    8    -915.4057159597      4.56e-06  
 Alpha HF Exchange    Energy =  -6.94078536083199
 Beta HF Exchange     Energy =  -6.74124621964101
 DFT Correlation      Energy =  -2.70923637296089
 DFT Exchange         Energy = -54.25433032756295
 One-Electron (alpha) Energy = -891.40261898001404
 One-Electron (beta)  Energy = -862.57152186925339
 Total Coulomb        Energy = 660.03107425085716
    9    -915.4057161437      1.26e-06  
 Alpha HF Exchange    Energy =  -6.94078166763398
 Beta HF Exchange     Energy =  -6.74124569377988
 DFT Correlation      Energy =  -2.70923480766305
 DFT Exchange         Energy = -54.25431021065786
 One-Electron (alpha) Energy = -891.40246375345464
 One-Electron (beta)  Energy = -862.57140122648957
 Total Coulomb        Energy = 660.03077246366172
   10    -915.4057161603      3.82e-07  Convergence criterion met
 ---------------------------------------
 SCF time:   CPU 30.61s  wall 2.00s 
<S^2> =          2.002993599
 Alpha HF Exchange    Energy =  -6.94078166763398
 Beta HF Exchange     Energy =  -6.74124569377988
 DFT Correlation      Energy =  -2.70923480766305
 DFT Exchange         Energy = -54.25431021065786
 One-Electron (alpha) Energy = -891.40246375345464
 One-Electron (beta)  Energy = -862.57140122648957
 Total Coulomb        Energy = 660.03077246366172
 Nuclear repulsion Energy = 249.18294873573166
 SCF   energy in the final basis set =     -915.4057161603
 Total energy in the final basis set =     -915.4057161603
 
 --------------------------------------------------------------
 
                    Orbital Energies (a.u.)
 --------------------------------------------------------------
 
 Alpha MOs
 -- Occupied --
-88.894 -88.878 -10.228 -10.210 -10.210  -7.956  -7.941  -5.925
 -5.924  -5.907  -5.906  -5.902  -5.895  -0.825  -0.769  -0.712
 -0.653  -0.600  -0.495  -0.461  -0.453  -0.434  -0.390  -0.370
 -0.367  -0.333  -0.299  -0.257  -0.248  -0.241
 -- Virtual --
  0.020   0.061   0.075   0.118   0.123   0.144   0.161   0.162
  0.175   0.203   0.222   0.307   0.350   0.355   0.368   0.378
  0.385   0.387   0.396   0.488   0.497   0.513   0.540   0.599
  0.628   0.639   0.670   0.729   0.730   0.734   0.746   0.748
  0.764   0.802   0.836   0.837   0.856   0.895   0.897   0.916
  0.931   0.947   0.964   1.032   1.063   1.142   1.232   1.302
  1.348   1.395   1.551   1.630   1.650   1.668   1.806   1.856
  1.954   1.989   2.020   2.057   2.060   2.062   2.080   2.103
  2.161   2.211   2.263   2.300   2.329   2.481   2.507   2.532
  2.574   2.637   2.727   2.743   2.757   2.787   2.830   2.856
  2.889   3.175   3.248   3.300   3.308   3.433   3.441   3.541
  3.891   3.980   4.256   4.448   4.613
 
 Beta MOs
 -- Occupied --
-88.884 -88.878 -10.228 -10.208 -10.208  -7.946  -7.941  -5.906
 -5.905  -5.904  -5.902  -5.901  -5.895  -0.821  -0.759  -0.683
 -0.619  -0.580  -0.491  -0.457  -0.446  -0.427  -0.378  -0.362
 -0.361  -0.331  -0.241  -0.232
 -- Virtual --
 -0.152  -0.120   0.020   0.062   0.078   0.120   0.124   0.146
  0.163   0.165   0.177   0.205   0.232   0.333   0.351   0.370
  0.385   0.389   0.398   0.399   0.424   0.490   0.503   0.518
  0.546   0.608   0.643   0.651   0.693   0.733   0.747   0.757
  0.788   0.792   0.827   0.834   0.842   0.844   0.857   0.898
  0.902   0.930   0.937   0.952   0.973   1.039   1.069   1.144
  1.254   1.306   1.350   1.401   1.553   1.632   1.651   1.670
  1.810   1.857   1.957   1.994   2.025   2.061   2.062   2.063
  2.082   2.104   2.162   2.211   2.264   2.301   2.331   2.482
  2.509   2.535   2.575   2.641   2.730   2.745   2.760   2.788
  2.831   2.859   2.892   3.178   3.251   3.303   3.310   3.436
  3.443   3.543   3.923   3.980   4.258   4.450   4.616
 --------------------------------------------------------------
 
          Ground-State Mulliken Net Atomic Charges

     Atom                 Charge (a.u.)    Spin (a.u.)
  --------------------------------------------------------
      1 S                    -0.045191       0.002486
      2 S                    -0.085485       1.833246
      3 C                    -0.205540       0.092114
      4 C                    -0.319637      -0.003170
      5 C                    -0.422396       0.030687
      6 H                     0.125587       0.001998
      7 H                     0.125493       0.001903
      8 H                     0.136705       0.000770
      9 H                     0.136696       0.000772
     10 H                     0.158921       0.014269
     11 H                     0.158803       0.014434
     12 H                     0.058141       0.002054
     13 H                     0.177905       0.008437
  --------------------------------------------------------
  Sum of atomic charges =    -0.000000
  Sum of spin   charges =     2.000000

 -----------------------------------------------------------------
                    Cartesian Multipole Moments
 -----------------------------------------------------------------
    Charge (ESU x 10^10)
                -0.0000
    Dipole Moment (Debye)
         X       0.5250      Y      -0.5334      Z      -0.1520
       Tot       0.7637
    Quadrupole Moments (Debye-Ang)
        XX     -58.4691     XY      -5.8724     YY     -46.9419
        XZ      -1.1220     YZ       0.0942     ZZ     -46.7806
    Octopole Moments (Debye-Ang^2)
       XXX      47.7238    XXY       4.0485    XYY      15.2130
       YYY      39.9644    XXZ      -9.0327    XYZ       4.1415
       YYZ      -2.3128    XZZ      -1.5913    YZZ      10.9453
       ZZZ     -11.3416
    Hexadecapole Moments (Debye-Ang^3)
      XXXX   -1942.8878   XXXY    -125.3754   XXYY    -339.9109
      XYYY     -92.6511   YYYY    -166.0694   XXXZ       5.0540
      XXYZ      -0.0894   XYYZ      -0.4964   YYYZ      -5.8236
      XXZZ    -328.5235   XYZZ     -22.9291   YYZZ     -38.7161
      XZZZ      11.0674   YZZZ      -3.0234   ZZZZ     -81.6543
 -----------------------------------------------------------------
 Calculating analytic gradient of the SCF energy
 Gradient of SCF Energy
            1           2           3           4           5           6
    1  -0.0000017   0.0576852  -0.0016310   0.0003632  -0.0579527   0.0003261
    2  -0.0000655   0.0217057  -0.0000982   0.0000421  -0.0228798   0.0000628
    3  -0.0000038   0.0039792  -0.0000291  -0.0000166  -0.0043837  -0.0000044
            7           8           9          10          11          12
    1   0.0003638  -0.0000081  -0.0000189   0.0004183   0.0004099   0.0000216
    2   0.0000691   0.0000150  -0.0000041   0.0004216   0.0003655   0.0000067
    3   0.0000224   0.0000436   0.0000008   0.0001490   0.0001064   0.0000245
           13
    1   0.0000244
    2   0.0003591
    3   0.0001117
 Max gradient component =       5.795E-02
 RMS gradient           =       1.407E-02
 Gradient time:  CPU 11.10 s  wall 0.99 s
 Geometry Optimization Parameters
   NAtoms,    NIC,     NZ,  NCons,   NDum,   NFix, NCnnct, MaxDiis
       13     121       0       1       0       0       0       0

 Cartesian Hessian Update
 Hessian Updated using BFGS Update


** CONSTRAINED OPTIMIZATION IN DELOCALIZED INTERNAL COORDINATES **
   Searching for a Minimum

   Optimization Cycle:   3

                       Coordinates (Angstroms)
     ATOM                X               Y               Z
      1  S         2.9094087347   -0.0536897604    0.0306689072
      2  S        -3.4461772437   -0.7552752498    0.0537567193
      3  C         0.2101122616    0.4916579297    0.2750441195
      4  C         1.1625944022   -0.6514640647   -0.0700436292
      5  C        -1.2959930223    0.0470873103    0.2051591293
      6  H         0.4259719932    0.8638569056    1.2832313230
      7  H         0.3686180607    1.3280899128   -0.4156345477
      8  H         1.0302600785   -1.4834219879    0.6282578466
      9  H         0.9693006704   -1.0164846867   -1.0832092627
     10  H        -1.3980715128   -0.7578874364    0.9357100639
     11  H        -1.4512716733   -0.3000116925   -0.8182123121
     12  H         3.4980086434   -1.2200496051   -0.3000417228
     13  H        -1.8745623927    0.9312014251    0.4542083658
   Point Group: c1    Number of degrees of freedom:    33


   Energy is   -915.405716160

              Constraints and their Current Values
                                        Value     Constraint
   Distance(Angs):        2   5             2.300000     2.300000
 Hessian Updated using BFGS Update

 32 Hessian modes will be used to form the next step
  Hessian Eigenvalues:
     0.044966    0.045000    0.045070    0.057459    0.059072    0.062239
     0.068502    0.073323    0.079104    0.080950    0.081892    0.084784
     0.095882    0.123645    0.123939    0.133447    0.137100    0.142544
     0.159992    0.218542    0.220076    0.225963    0.258221    0.265920
     0.290091    0.293131    0.300187    0.309576    0.341179    0.341944
     0.343474    0.343622

 Minimum Search - Taking Simple RFO Step
 Searching for Lamda that Minimizes Along All modes
 Value Taken    Lamda =  -0.00001020
 Step Taken.  Stepsize is  0.010641

                             Maximum     Tolerance    Cnvgd?
         Gradient           0.000542      0.000300      NO
         Displacement       0.006180      0.001200      NO
         Energy change      0.000161      0.000001      NO


 New Cartesian Coordinates Obtained by Inverse Iteration

 Displacement from previous Coordinates is:  0.006517
 ----------------------------------------------------------------
             Standard Nuclear Orientation (Angstroms)
    I     Atom           X                Y                Z
 ----------------------------------------------------------------
    1      S       2.9099471609    -0.0540764107     0.0310045104
    2      S      -3.4458022307    -0.7555416350     0.0544376066
    3      C       0.2118625656     0.4923500591     0.2749166539
    4      C       1.1629686528    -0.6512876861    -0.0702532736
    5      C      -1.2958365562     0.0475238855     0.2052153303
    6      H       0.4255891639     0.8643718088     1.2834668011
    7      H       0.3681056976     1.3289021865    -0.4158822704
    8      H       1.0301599072    -1.4833211254     0.6278462601
    9      H       0.9697056111    -1.0161451147    -1.0834625107
   10      H      -1.3989832697    -0.7585597223     0.9352504903
   11      H      -1.4526214954    -0.3005295712    -0.8182871034
   12      H       3.4978073882    -1.2208458796    -0.2995751773
   13      H      -1.8747035953     0.9307682052     0.4542176826
 ----------------------------------------------------------------
 Nuclear Repulsion Energy =   249.1674001026 hartrees
 There are       30 alpha and       28 beta electrons

                       Distance Matrix (Angstroms)
             S (  1)   S (  2)   C (  3)   C (  4)   C (  5)   H (  6)
   S (  2)  6.394384
   C (  3)  2.763645  3.870963
   C (  4)  1.849013  4.611636  1.526975
   C (  5)  4.210616  2.300000  1.573495  2.570981
   H (  6)  2.929888  4.372906  1.096017  2.161830  2.189332
   H (  7)  2.928019  4.371727  1.096100  2.161578  2.190068  1.762634
   H (  8)  2.435685  4.570853  2.167359  1.094194  2.816445  2.511375
   H (  9)  2.435601  4.567214  2.166813  1.094104  2.815096  3.071606
   H ( 10)  4.458793  2.228297  2.143744  2.754295  1.092411  2.466622
   H ( 11)  4.451297  2.222938  2.143422  2.742972  1.092374  3.049925
   H ( 12)  1.347670  6.968181  3.750002  2.414220  4.984235  4.036419
   H ( 13)  4.903255  2.339191  2.139654  3.464884  1.084993  2.446101
             H (  7)   H (  8)   H (  9)   H ( 10)   H ( 11)   H ( 12)
   H (  8)  3.071854
   H (  9)  2.511341  1.774961
   H ( 10)  3.050518  2.553530  3.122858
   H ( 11)  2.476293  3.107169  2.539703  1.813164
   H ( 12)  4.038536  2.649205  2.654747  5.071199  5.061896
   H ( 13)  2.438397  3.781032  3.774334  1.819761  1.820307  5.836225

 
 Applying Cartesian multipole field
    Component          Value
    ---------          -----
     (2,0,0)        1.00000E-11
     (0,2,0)        2.00000E-10
     (0,0,2)       -3.00000E-10
 Nucleus-field energy     =     0.0000000223 hartrees
 Requested basis set is 6-31G(d,p)
 There are 46 shells and 123 basis functions
 A cutoff of  1.0D-14 yielded    991 shell pairs
 There are      7153 function pairs
 Smallest overlap matrix eigenvalue = 4.50E-03
 Guess from superposition of atomic densities
 Warning:  Energy on first SCF cycle will be non-variational
 SAD guess density has 58.000000 electrons

 -----------------------------------------------------------------------
  General SCF calculation program by
  Eric Jon Sundstrom, Paul Horn, Yuezhi Mao, Dmitri Zuev, Alec White,
  David Stuck, Shaama M.S., Shane Yost, Joonho Lee, David Small,
  Daniel Levine, Susi Lehtola, Hugh Burton, Evgeny Epifanovsky
 -----------------------------------------------------------------------
 Exchange:     0.2000 Hartree-Fock + 0.0800 Slater + 0.7200 B88
 Correlation:  0.1900 VWN1RPA + 0.8100 LYP
 Using SG-1 standard quadrature grid
 using 12 threads for integral computing
 -------------------------------------------------------
 OpenMP Integral computing Module                
 Release: version 1.0, May 2013, Q-Chem Inc. Pittsburgh 
 -------------------------------------------------------
 -------------------------------------------------------
 OpenMP BLAS3 based DFT computing Module                
 Release: version 1.0, May 2013, Q-Chem Inc. Pittsburgh 
 -------------------------------------------------------
 A unrestricted SCF calculation will be
 performed using DIIS
 SCF converges when DIIS error is below 1.0e-06
 Alpha HF Exchange    Energy =  -6.84496865676600
 Beta HF Exchange     Energy =  -6.84496865676600
 DFT Correlation      Energy =  -2.70713090556686
 DFT Exchange         Energy = -53.84223823199591
 One-Electron (alpha) Energy = -875.12743636936477
 One-Electron (beta)  Energy = -875.12743636936477
 Total Coulomb        Energy = 655.41583188478046
 ---------------------------------------
  Cycle       Energy         DIIS error
 ---------------------------------------
    1    -915.9109471802      2.67e-02  
 Alpha HF Exchange    Energy =  -6.96279938535094
 Beta HF Exchange     Energy =  -6.76815980049544
 DFT Correlation      Energy =  -2.72214717830788
 DFT Exchange         Energy = -54.47043033484410
 One-Electron (alpha) Energy = -892.95579467358755
 One-Electron (beta)  Energy = -864.52074585093089
 Total Coulomb        Energy = 663.89804765684607
    2    -915.3346294418      2.89e-03  
 Alpha HF Exchange    Energy =  -6.91503307327959
 Beta HF Exchange     Energy =  -6.71120760660886
 DFT Correlation      Energy =  -2.69835264094175
 DFT Exchange         Energy = -54.03277753570831
 One-Electron (alpha) Energy = -889.41229322328707
 One-Electron (beta)  Energy = -860.63333570303382
 Total Coulomb        Energy = 655.93822154581756
    3    -915.2973781122      3.57e-03  
 Alpha HF Exchange    Energy =  -6.93775494195030
 Beta HF Exchange     Energy =  -6.74050475005581
 DFT Correlation      Energy =  -2.70901834238022
 DFT Exchange         Energy = -54.24035872353888
 One-Electron (alpha) Energy = -891.23175418168580
 One-Electron (beta)  Energy = -862.53918778245986
 Total Coulomb        Energy = 659.82752962641905
    4    -915.4036489708      4.61e-04  
 Alpha HF Exchange    Energy =  -6.94149939494365
 Beta HF Exchange     Energy =  -6.74192329245606
 DFT Correlation      Energy =  -2.70966105387482
 DFT Exchange         Energy = -54.26075165827049
 One-Electron (alpha) Energy = -891.44411946369451
 One-Electron (beta)  Energy = -862.63107214676063
 Total Coulomb        Energy = 660.15602794226777
    5    -915.4055989429      1.10e-04  
 Alpha HF Exchange    Energy =  -6.94063854721648
 Beta HF Exchange     Energy =  -6.74106963149314
 DFT Correlation      Energy =  -2.70924181999694
 DFT Exchange         Energy = -54.25339993947843
 One-Electron (alpha) Energy = -891.37705128098980
 One-Electron (beta)  Energy = -862.55219933840783
 Total Coulomb        Energy = 660.00050035774007
    6    -915.4057000750      5.14e-05  
 Alpha HF Exchange    Energy =  -6.94065527320232
 Beta HF Exchange     Energy =  -6.74114729739287
 DFT Correlation      Energy =  -2.70920679606911
 DFT Exchange         Energy = -54.25353152583397
 One-Electron (alpha) Energy = -891.38138841448790
 One-Electron (beta)  Energy = -862.55393048387941
 Total Coulomb        Energy = 660.00673841806667
    7    -915.4057212479      1.35e-05  
 Alpha HF Exchange    Energy =  -6.94074876495289
 Beta HF Exchange     Energy =  -6.74119871395050
 DFT Correlation      Energy =  -2.70922633513852
 DFT Exchange         Energy = -54.25408815150178
 One-Electron (alpha) Energy = -891.38918342826241
 One-Electron (beta)  Energy = -862.55833218637929
 Total Coulomb        Energy = 660.01965477985141
    8    -915.4057226755      4.55e-06  
 Alpha HF Exchange    Energy =  -6.94073771618494
 Beta HF Exchange     Energy =  -6.74118606031142
 DFT Correlation      Energy =  -2.70921668278218
 DFT Exchange         Energy = -54.25397731357501
 One-Electron (alpha) Energy = -891.38751683394059
 One-Electron (beta)  Energy = -862.55612096533548
 Total Coulomb        Energy = 660.01563258795954
    9    -915.4057228593      1.26e-06  
 Alpha HF Exchange    Energy =  -6.94073405523168
 Beta HF Exchange     Energy =  -6.74118556934668
 DFT Correlation      Energy =  -2.70921512759217
 DFT Exchange         Energy = -54.25395745367727
 One-Electron (alpha) Energy = -891.38736508218403
 One-Electron (beta)  Energy = -862.55600404988752
 Total Coulomb        Energy = 660.01533833710516
   10    -915.4057228760      3.81e-07  Convergence criterion met
 ---------------------------------------
 SCF time:   CPU 29.81s  wall 2.00s 
<S^2> =          2.002998718
 Alpha HF Exchange    Energy =  -6.94073405523168
 Beta HF Exchange     Energy =  -6.74118556934668
 DFT Correlation      Energy =  -2.70921512759217
 DFT Exchange         Energy = -54.25395745367727
 One-Electron (alpha) Energy = -891.38736508218403
 One-Electron (beta)  Energy = -862.55600404988752
 Total Coulomb        Energy = 660.01533833710516
 Nuclear repulsion Energy = 249.16740012485880
 SCF   energy in the final basis set =     -915.4057228760
 Total energy in the final basis set =     -915.4057228760
 
 --------------------------------------------------------------
 
                    Orbital Energies (a.u.)
 --------------------------------------------------------------
 
 Alpha MOs
 -- Occupied --
-88.894 -88.878 -10.228 -10.210 -10.210  -7.956  -7.941  -5.925
 -5.924  -5.907  -5.906  -5.902  -5.895  -0.825  -0.769  -0.712
 -0.653  -0.600  -0.495  -0.461  -0.453  -0.434  -0.390  -0.370
 -0.367  -0.333  -0.299  -0.257  -0.248  -0.241
 -- Virtual --
  0.020   0.061   0.075   0.118   0.123   0.144   0.161   0.162
  0.175   0.203   0.221   0.307   0.350   0.355   0.368   0.378
  0.385   0.387   0.396   0.488   0.497   0.513   0.540   0.598
  0.628   0.639   0.670   0.729   0.729   0.734   0.746   0.748
  0.764   0.802   0.836   0.837   0.856   0.895   0.897   0.916
  0.931   0.947   0.964   1.032   1.063   1.142   1.232   1.302
  1.348   1.395   1.551   1.629   1.649   1.668   1.805   1.856
  1.954   1.989   2.020   2.058   2.060   2.062   2.080   2.103
  2.161   2.210   2.263   2.300   2.329   2.480   2.506   2.532
  2.574   2.637   2.726   2.742   2.758   2.786   2.830   2.856
  2.889   3.174   3.247   3.300   3.308   3.432   3.440   3.540
  3.891   3.980   4.256   4.448   4.613
 
 Beta MOs
 -- Occupied --
-88.883 -88.878 -10.228 -10.208 -10.208  -7.946  -7.941  -5.906
 -5.905  -5.904  -5.902  -5.901  -5.895  -0.821  -0.759  -0.683
 -0.619  -0.580  -0.491  -0.457  -0.446  -0.427  -0.378  -0.362
 -0.361  -0.331  -0.241  -0.232
 -- Virtual --
 -0.152  -0.119   0.020   0.062   0.078   0.120   0.124   0.146
  0.163   0.165   0.177   0.205   0.232   0.333   0.351   0.370
  0.385   0.389   0.398   0.399   0.424   0.490   0.503   0.518
  0.546   0.608   0.643   0.651   0.693   0.733   0.747   0.757
  0.788   0.792   0.827   0.833   0.842   0.844   0.857   0.898
  0.902   0.930   0.937   0.952   0.973   1.039   1.069   1.144
  1.254   1.306   1.350   1.401   1.553   1.631   1.651   1.670
  1.810   1.857   1.957   1.994   2.025   2.061   2.062   2.063
  2.082   2.104   2.162   2.211   2.264   2.301   2.331   2.481
  2.509   2.535   2.575   2.641   2.729   2.744   2.760   2.788
  2.831   2.859   2.891   3.177   3.250   3.303   3.310   3.436
  3.443   3.542   3.923   3.980   4.258   4.450   4.615
 --------------------------------------------------------------
 
          Ground-State Mulliken Net Atomic Charges

     Atom                 Charge (a.u.)    Spin (a.u.)
  --------------------------------------------------------
      1 S                    -0.045130       0.002502
      2 S                    -0.085784       1.832883
      3 C                    -0.205326       0.092519
      4 C                    -0.319555      -0.003205
      5 C                    -0.422625       0.030917
      6 H                     0.125705       0.001975
      7 H                     0.125605       0.001884
      8 H                     0.136779       0.000777
      9 H                     0.136777       0.000777
     10 H                     0.158816       0.014203
     11 H                     0.158674       0.014359
     12 H                     0.058101       0.002065
     13 H                     0.177963       0.008344
  --------------------------------------------------------
  Sum of atomic charges =    -0.000000
  Sum of spin   charges =     2.000000

 -----------------------------------------------------------------
                    Cartesian Multipole Moments
 -----------------------------------------------------------------
    Charge (ESU x 10^10)
                 0.0000
    Dipole Moment (Debye)
         X       0.5271      Y      -0.5317      Z      -0.1526
       Tot       0.7640
    Quadrupole Moments (Debye-Ang)
        XX     -58.4843     XY      -5.8757     YY     -46.9380
        XZ      -1.1197     YZ       0.0965     ZZ     -46.7817
    Octopole Moments (Debye-Ang^2)
       XXX      47.6625    XXY       4.0683    XYY      15.2073
       YYY      39.9766    XXZ      -9.0437    XYZ       4.1372
       YYZ      -2.3278    XZZ      -1.6083    YZZ      10.9524
       ZZZ     -11.3749
    Hexadecapole Moments (Debye-Ang^3)
      XXXX   -1943.2716   XXXY    -125.4338   XXYY    -339.9547
      XYYY     -92.6699   YYYY    -166.1272   XXXZ       5.1488
      XXYZ      -0.0723   XYYZ      -0.4742   YYYZ      -5.8046
      XXZZ    -328.5643   XYZZ     -22.9217   YYZZ     -38.7233
      XZZZ      11.1069   YZZZ      -2.9994   ZZZZ     -81.6598
 -----------------------------------------------------------------
 Calculating analytic gradient of the SCF energy
 Gradient of SCF Energy
            1           2           3           4           5           6
    1  -0.0000428   0.0577358  -0.0003843   0.0001838  -0.0582418   0.0001240
    2   0.0000133   0.0217322   0.0001836  -0.0000278  -0.0221605   0.0000401
    3   0.0000236   0.0039655  -0.0000182  -0.0000303  -0.0041254  -0.0000101
            7           8           9          10          11          12
    1   0.0001626   0.0000029  -0.0000066   0.0002036   0.0001702  -0.0000209
    2   0.0000491  -0.0000082  -0.0000350   0.0000832   0.0001263  -0.0000080
    3   0.0000403   0.0000219   0.0000103   0.0002829  -0.0001969   0.0000226
           13
    1   0.0001136
    2   0.0000118
    3   0.0000139
 Max gradient component =       5.824E-02
 RMS gradient           =       1.407E-02
 Gradient time:  CPU 11.10 s  wall 0.98 s
 Geometry Optimization Parameters
   NAtoms,    NIC,     NZ,  NCons,   NDum,   NFix, NCnnct, MaxDiis
       13     121       0       1       0       0       0       0

 Cartesian Hessian Update
 Hessian Updated using BFGS Update


** CONSTRAINED OPTIMIZATION IN DELOCALIZED INTERNAL COORDINATES **
   Searching for a Minimum

   Optimization Cycle:   4

                       Coordinates (Angstroms)
     ATOM                X               Y               Z
      1  S         2.9099471609   -0.0540764107    0.0310045104
      2  S        -3.4458022307   -0.7555416350    0.0544376066
      3  C         0.2118625656    0.4923500591    0.2749166539
      4  C         1.1629686528   -0.6512876861   -0.0702532736
      5  C        -1.2958365562    0.0475238855    0.2052153303
      6  H         0.4255891639    0.8643718088    1.2834668011
      7  H         0.3681056976    1.3289021865   -0.4158822704
      8  H         1.0301599072   -1.4833211254    0.6278462601
      9  H         0.9697056111   -1.0161451147   -1.0834625107
     10  H        -1.3989832697   -0.7585597223    0.9352504903
     11  H        -1.4526214954   -0.3005295712   -0.8182871034
     12  H         3.4978073882   -1.2208458796   -0.2995751773
     13  H        -1.8747035953    0.9307682052    0.4542176826
   Point Group: c1    Number of degrees of freedom:    33


   Energy is   -915.405722876

              Constraints and their Current Values
                                        Value     Constraint
   Distance(Angs):        2   5             2.300000     2.300000
 Hessian Updated using BFGS Update

 32 Hessian modes will be used to form the next step
  Hessian Eigenvalues:
     0.039622    0.045000    0.045060    0.047241    0.058403    0.060294
     0.062376    0.068673    0.079105    0.080120    0.081916    0.084787
     0.092903    0.123626    0.124048    0.131845    0.136934    0.142544
     0.161272    0.219038    0.223851    0.226816    0.258225    0.278147
     0.293095    0.293687    0.307261    0.336694    0.341188    0.342481
     0.343497    0.344946

 Minimum Search - Taking Simple RFO Step
 Searching for Lamda that Minimizes Along All modes
 Value Taken    Lamda =  -0.00000332
 Step Taken.  Stepsize is  0.008644

                             Maximum     Tolerance    Cnvgd?
         Gradient           0.000236      0.000300     YES
         Displacement       0.005612      0.001200      NO
         Energy change     -0.000007      0.000001      NO


 New Cartesian Coordinates Obtained by Inverse Iteration

 Displacement from previous Coordinates is:  0.005830
 ----------------------------------------------------------------
             Standard Nuclear Orientation (Angstroms)
    I     Atom           X                Y                Z
 ----------------------------------------------------------------
    1      S       2.9105474862    -0.0548376058     0.0313127990
    2      S      -3.4450372503    -0.7561114554     0.0551905733
    3      C       0.2126876879     0.4927393047     0.2747282215
    4      C       1.1630321468    -0.6510139426    -0.0704442748
    5      C      -1.2954216423     0.0480238949     0.2052559932
    6      H       0.4248884714     0.8645560339     1.2835775562
    7      H       0.3672302782     1.3293207306    -0.4162532914
    8      H       1.0296521613    -1.4830638290     0.6274835519
    9      H       0.9698002713    -1.0154946273    -1.0837645785
   10      H      -1.3992926997    -0.7588039928     0.9343988538
   11      H      -1.4533406657    -0.3007589406    -0.8178705484
   12      H       3.4983515019    -1.2217144543    -0.2990473213
   13      H      -1.8748987469     0.9307678839     0.4543274656
 ----------------------------------------------------------------
 Nuclear Repulsion Energy =   249.1678276604 hartrees
 There are       30 alpha and       28 beta electrons

                       Distance Matrix (Angstroms)
             S (  1)   S (  2)   C (  3)   C (  4)   C (  5)   H (  6)
   S (  2)  6.394201
   C (  3)  2.763610  3.871276
   C (  4)  1.849214  4.610980  1.526588
   C (  5)  4.210821  2.300000  1.573846  2.570731
   H (  6)  2.931203  4.371707  1.095926  2.162217  2.188371
   H (  7)  2.929961  4.370889  1.095996  2.162085  2.189157  1.763166
   H (  8)  2.435779  4.569335  2.166948  1.094167  2.815755  2.511477
   H (  9)  2.435726  4.566759  2.166447  1.094076  2.814938  3.071779
   H ( 10)  4.459356  2.226676  2.144763  2.754421  1.092433  2.466751
   H ( 11)  4.452540  2.221809  2.144542  2.743489  1.092417  3.049883
   H ( 12)  1.347684  6.967992  3.750221  2.414886  4.984658  4.037747
   H ( 13)  4.904167  2.338847  2.140594  3.465031  1.084927  2.445621
             H (  7)   H (  8)   H (  9)   H ( 10)   H ( 11)   H ( 12)
   H (  8)  3.072083
   H (  9)  2.511338  1.774985
   H ( 10)  3.050431  2.553140  3.122735
   H ( 11)  2.476476  3.106790  2.540307  1.811953
   H ( 12)  4.040475  2.649762  2.655537  5.071745  5.063259
   H ( 13)  2.438011  3.780606  3.774384  1.819704  1.820126  5.837172

 
 Applying Cartesian multipole field
    Component          Value
    ---------          -----
     (2,0,0)        1.00000E-11
     (0,2,0)        2.00000E-10
     (0,0,2)       -3.00000E-10
 Nucleus-field energy     =     0.0000000223 hartrees
 Requested basis set is 6-31G(d,p)
 There are 46 shells and 123 basis functions
 A cutoff of  1.0D-14 yielded    991 shell pairs
 There are      7153 function pairs
 Smallest overlap matrix eigenvalue = 4.50E-03
 Guess from superposition of atomic densities
 Warning:  Energy on first SCF cycle will be non-variational
 SAD guess density has 58.000000 electrons

 -----------------------------------------------------------------------
  General SCF calculation program by
  Eric Jon Sundstrom, Paul Horn, Yuezhi Mao, Dmitri Zuev, Alec White,
  David Stuck, Shaama M.S., Shane Yost, Joonho Lee, David Small,
  Daniel Levine, Susi Lehtola, Hugh Burton, Evgeny Epifanovsky
 -----------------------------------------------------------------------
 Exchange:     0.2000 Hartree-Fock + 0.0800 Slater + 0.7200 B88
 Correlation:  0.1900 VWN1RPA + 0.8100 LYP
 Using SG-1 standard quadrature grid
 using 12 threads for integral computing
 -------------------------------------------------------
 OpenMP Integral computing Module                
 Release: version 1.0, May 2013, Q-Chem Inc. Pittsburgh 
 -------------------------------------------------------
 -------------------------------------------------------
 OpenMP BLAS3 based DFT computing Module                
 Release: version 1.0, May 2013, Q-Chem Inc. Pittsburgh 
 -------------------------------------------------------
 A unrestricted SCF calculation will be
 performed using DIIS
 SCF converges when DIIS error is below 1.0e-06
 Alpha HF Exchange    Energy =  -6.84498694080452
 Beta HF Exchange     Energy =  -6.84498694080452
 DFT Correlation      Energy =  -2.70713536517752
 DFT Exchange         Energy = -53.84228077956958
 One-Electron (alpha) Energy = -875.12773716678259
 One-Electron (beta)  Energy = -875.12773716678259
 Total Coulomb        Energy = 655.41597333373068
 ---------------------------------------
[...]
    8      H       1.0291812049    -1.4829549705     0.6271280875
    9      H       0.9698696581    -1.0149622455    -1.0840630631
   10      H      -1.3991718353    -0.7588833790     0.9337041618
   11      H      -1.4535218598    -0.3007868797    -0.8175305688
   12      H       3.4978386345    -1.2224100920    -0.2985371028
   13      H      -1.8750182163     0.9308519870     0.4544204531
 ----------------------------------------------------------------
 Nuclear Repulsion Energy =   249.1843392706 hartrees
 There are       30 alpha and       28 beta electrons

                       Distance Matrix (Angstroms)
             S (  1)   S (  2)   C (  3)   C (  4)   C (  5)   H (  6)
   S (  2)  6.393487
   C (  3)  2.763598  3.870965
   C (  4)  1.849256  4.610041  1.526457
   C (  5)  4.210488  2.300000  1.573573  2.570281
   H (  6)  2.931368  4.371056  1.095914  2.162275  2.187839
   H (  7)  2.930638  4.370550  1.095979  2.162187  2.188626  1.763356
   H (  8)  2.435760  4.567742  2.166817  1.094158  2.815114  2.511555
   H (  9)  2.435703  4.566128  2.166330  1.094068  2.814738  3.071795
   H ( 10)  4.459066  2.225476  2.144846  2.754017  1.092345  2.466850
   H ( 11)  4.452796  2.221147  2.144698  2.743387  1.092330  3.049737
   H ( 12)  1.347682  6.966605  3.749955  2.414652  4.983981  4.037686
   H ( 13)  4.904437  2.338804  2.140871  3.465017  1.084985  2.445570
             H (  7)   H (  8)   H (  9)   H ( 10)   H ( 11)   H ( 12)
   H (  8)  3.072125
   H (  9)  2.511170  1.775024
   H ( 10)  3.050239  2.552483  3.122390
   H ( 11)  2.476517  3.106183  2.540455  1.810975
   H ( 12)  4.040891  2.649341  2.655318  5.070896  5.063074
   H ( 13)  2.438036  3.780300  3.774455  1.819711  1.820015  5.837043

 
 Applying Cartesian multipole field
    Component          Value
    ---------          -----
     (2,0,0)        1.00000E-11
     (0,2,0)        2.00000E-10
     (0,0,2)       -3.00000E-10
 Nucleus-field energy     =     0.0000000223 hartrees
 Requested basis set is 6-31G(d,p)
 There are 46 shells and 123 basis functions
 A cutoff of  1.0D-14 yielded    991 shell pairs
 There are      7153 function pairs
 Smallest overlap matrix eigenvalue = 4.50E-03
 Guess from superposition of atomic densities
 Warning:  Energy on first SCF cycle will be non-variational
 SAD guess density has 58.000000 electrons

 -----------------------------------------------------------------------
  General SCF calculation program by
  Eric Jon Sundstrom, Paul Horn, Yuezhi Mao, Dmitri Zuev, Alec White,
  David Stuck, Shaama M.S., Shane Yost, Joonho Lee, David Small,
  Daniel Levine, Susi Lehtola, Hugh Burton, Evgeny Epifanovsky
 -----------------------------------------------------------------------
 Exchange:     0.2000 Hartree-Fock + 0.0800 Slater + 0.7200 B88
 Correlation:  0.1900 VWN1RPA + 0.8100 LYP
 Using SG-1 standard quadrature grid
 using 12 threads for integral computing
 -------------------------------------------------------
 OpenMP Integral computing Module                
 Release: version 1.0, May 2013, Q-Chem Inc. Pittsburgh 
 -------------------------------------------------------
 -------------------------------------------------------
 OpenMP BLAS3 based DFT computing Module                
 Release: version 1.0, May 2013, Q-Chem Inc. Pittsburgh 
 -------------------------------------------------------
 A unrestricted SCF calculation will be
 performed using DIIS
 SCF converges when DIIS error is below 1.0e-06
 Alpha HF Exchange    Energy =  -6.84505304239799
 Beta HF Exchange     Energy =  -6.84505304239799
 DFT Correlation      Energy =  -2.70715268387216
 DFT Exchange         Energy = -53.84240836822228
 One-Electron (alpha) Energy = -875.14401799157531
 One-Electron (beta)  Energy = -875.14401799157531
 Total Coulomb        Energy = 655.43174599410486
 ---------------------------------------
  Cycle       Energy         DIIS error
 ---------------------------------------
    1    -915.9116178331      2.67e-02  
 Alpha HF Exchange    Energy =  -6.96283953027556
 Beta HF Exchange     Energy =  -6.76818450722279
 DFT Correlation      Energy =  -2.72217176466898
 DFT Exchange         Energy = -54.47068173070907
 One-Electron (alpha) Energy = -892.97363199423421
 One-Electron (beta)  Energy = -864.53608180228082
 Total Coulomb        Energy = 663.91464529942471
    2    -915.3346067371      2.89e-03  
 Alpha HF Exchange    Energy =  -6.91507101982943
 Beta HF Exchange     Energy =  -6.71121970996162
 DFT Correlation      Energy =  -2.69837846270289
 DFT Exchange         Energy = -54.03298857142233
 One-Electron (alpha) Energy = -889.43009085621759
 One-Electron (beta)  Energy = -860.64849418005690
 Total Coulomb        Energy = 655.95461379711423
    3    -915.2972897102      3.57e-03  
 Alpha HF Exchange    Energy =  -6.93778998793389
 Beta HF Exchange     Energy =  -6.74052478115268
 DFT Correlation      Energy =  -2.70904123939482
 DFT Exchange         Energy = -54.24056743676447
 One-Electron (alpha) Energy = -891.24937866837990
 One-Electron (beta)  Energy = -862.55416807176459
 Total Coulomb        Energy = 659.84348180090001
    4    -915.4036490916      4.61e-04  
 Alpha HF Exchange    Energy =  -6.94153927461306
 Beta HF Exchange     Energy =  -6.74194425921095
 DFT Correlation      Energy =  -2.70968500900145
 DFT Exchange         Energy = -54.26098530340154
 One-Electron (alpha) Energy = -891.46202795337501
 One-Electron (beta)  Energy = -862.64618436161913
 Total Coulomb        Energy = 660.17242494184904
    5    -915.4056019265      1.10e-04  
 Alpha HF Exchange    Energy =  -6.94067750414766
 Beta HF Exchange     Energy =  -6.74108961285892
 DFT Correlation      Energy =  -2.70926548205323
 DFT Exchange         Energy = -54.25362575402441
 One-Electron (alpha) Energy = -891.39491309397010
 One-Electron (beta)  Energy = -862.56722303146864
 Total Coulomb        Energy = 660.01675223774976
    6    -915.4057029479      5.14e-05  
 Alpha HF Exchange    Energy =  -6.94069469696297
 Beta HF Exchange     Energy =  -6.74116775687919
 DFT Correlation      Energy =  -2.70923050468893
 DFT Exchange         Energy = -54.25376079326644
 One-Electron (alpha) Energy = -891.39927954282666
 One-Electron (beta)  Energy = -862.56897907989810
 Total Coulomb        Energy = 660.02304896026715
    7    -915.4057241214      1.36e-05  
 Alpha HF Exchange    Energy =  -6.94078826179164
 Beta HF Exchange     Energy =  -6.74121910932938
 DFT Correlation      Energy =  -2.70925008510158
 DFT Exchange         Energy = -54.25431758700329
 One-Electron (alpha) Energy = -891.40708254487595
 One-Electron (beta)  Energy = -862.57337803315772
 Total Coulomb        Energy = 660.03597077489349
    8    -915.4057255535      4.55e-06  
 Alpha HF Exchange    Energy =  -6.94077722027251
 Beta HF Exchange     Energy =  -6.74120642979192
 DFT Correlation      Energy =  -2.70924042690704
 DFT Exchange         Energy = -54.25420667071756
 One-Electron (alpha) Energy = -891.40541632771124
 One-Electron (beta)  Energy = -862.57116378824321
 Total Coulomb        Energy = 660.03194583340201
    9    -915.4057257374      1.25e-06  
 Alpha HF Exchange    Energy =  -6.94077358140305
 Beta HF Exchange     Energy =  -6.74120594931955
 DFT Correlation      Energy =  -2.70923887449493
 DFT Exchange         Energy = -54.25418692873690
 One-Electron (alpha) Energy = -891.40526672563612
 One-Electron (beta)  Energy = -862.57104737413965
 Total Coulomb        Energy = 660.03165438680935
   10    -915.4057257540      3.79e-07  Convergence criterion met
 ---------------------------------------
 SCF time:   CPU 30.32s  wall 2.00s 
<S^2> =          2.002998440
 Alpha HF Exchange    Energy =  -6.94077358140305
 Beta HF Exchange     Energy =  -6.74120594931955
 DFT Correlation      Energy =  -2.70923887449493
 DFT Exchange         Energy = -54.25418692873690
 One-Electron (alpha) Energy = -891.40526672563612
 One-Electron (beta)  Energy = -862.57104737413965
 Total Coulomb        Energy = 660.03165438680935
 Nuclear repulsion Energy = 249.18433929288221
 SCF   energy in the final basis set =     -915.4057257540
 Total energy in the final basis set =     -915.4057257540
 
 --------------------------------------------------------------
 
                    Orbital Energies (a.u.)
 --------------------------------------------------------------
 
 Alpha MOs
 -- Occupied --
-88.894 -88.878 -10.228 -10.210 -10.210  -7.956  -7.941  -5.925
 -5.924  -5.907  -5.906  -5.902  -5.895  -0.825  -0.769  -0.712
 -0.653  -0.600  -0.495  -0.461  -0.453  -0.434  -0.390  -0.370
 -0.367  -0.333  -0.299  -0.257  -0.248  -0.241
 -- Virtual --
  0.020   0.061   0.075   0.118   0.123   0.144   0.162   0.162
  0.175   0.203   0.221   0.307   0.350   0.355   0.368   0.378
  0.385   0.387   0.396   0.488   0.497   0.513   0.540   0.598
  0.629   0.640   0.670   0.729   0.729   0.734   0.746   0.748
  0.764   0.802   0.835   0.837   0.856   0.895   0.897   0.916
  0.931   0.948   0.965   1.033   1.063   1.142   1.232   1.302
  1.348   1.395   1.552   1.629   1.650   1.667   1.805   1.856
  1.954   1.989   2.021   2.058   2.060   2.062   2.080   2.103
  2.161   2.210   2.262   2.300   2.329   2.479   2.506   2.533
  2.574   2.638   2.727   2.742   2.758   2.787   2.830   2.856
  2.889   3.173   3.247   3.300   3.308   3.432   3.441   3.540
  3.891   3.980   4.256   4.448   4.613
 
 Beta MOs
 -- Occupied --
-88.883 -88.878 -10.228 -10.208 -10.208  -7.946  -7.941  -5.906
 -5.905  -5.904  -5.902  -5.901  -5.895  -0.821  -0.759  -0.683
 -0.619  -0.580  -0.491  -0.457  -0.446  -0.427  -0.378  -0.362
 -0.361  -0.331  -0.241  -0.232
 -- Virtual --
 -0.152  -0.119   0.020   0.062   0.078   0.120   0.124   0.146
  0.163   0.165   0.177   0.205   0.232   0.333   0.351   0.370
  0.385   0.389   0.398   0.399   0.424   0.489   0.503   0.518
  0.546   0.608   0.643   0.652   0.693   0.733   0.747   0.757
  0.788   0.792   0.827   0.833   0.842   0.843   0.857   0.897
  0.902   0.930   0.937   0.952   0.973   1.040   1.069   1.144
  1.254   1.306   1.350   1.401   1.553   1.631   1.651   1.670
  1.810   1.857   1.957   1.994   2.026   2.061   2.062   2.064
  2.082   2.104   2.162   2.210   2.264   2.301   2.331   2.480
  2.508   2.536   2.575   2.642   2.729   2.744   2.760   2.789
  2.832   2.860   2.892   3.176   3.250   3.303   3.311   3.435
  3.443   3.542   3.924   3.980   4.258   4.450   4.615
 --------------------------------------------------------------
 
          Ground-State Mulliken Net Atomic Charges

     Atom                 Charge (a.u.)    Spin (a.u.)
  --------------------------------------------------------
      1 S                    -0.045176       0.002505
      2 S                    -0.085957       1.832794
      3 C                    -0.204999       0.092399
      4 C                    -0.319528      -0.003226
      5 C                    -0.422738       0.031446
      6 H                     0.125775       0.001979
      7 H                     0.125660       0.001904
      8 H                     0.136842       0.000785
      9 H                     0.136856       0.000779
     10 H                     0.158713       0.014104
     11 H                     0.158561       0.014224
     12 H                     0.058088       0.002059
     13 H                     0.177904       0.008247
  --------------------------------------------------------
  Sum of atomic charges =     0.000000
  Sum of spin   charges =     2.000000

 -----------------------------------------------------------------
                    Cartesian Multipole Moments
 -----------------------------------------------------------------
    Charge (ESU x 10^10)
                 0.0000
    Dipole Moment (Debye)
         X       0.5256      Y      -0.5295      Z      -0.1542
       Tot       0.7619
    Quadrupole Moments (Debye-Ang)
        XX     -58.4885     XY      -5.8817     YY     -46.9339
        XZ      -1.1154     YZ       0.0976     ZZ     -46.7854
    Octopole Moments (Debye-Ang^2)
       XXX      47.4912    XXY       4.0997    XYY      15.1785
       YYY      40.0508    XXZ      -9.0748    XYZ       4.1304
       YYZ      -2.3536    XZZ      -1.6373    YZZ      10.9826
       ZZZ     -11.4444
    Hexadecapole Moments (Debye-Ang^3)
      XXXX   -1942.6634   XXXY    -125.5545   XXYY    -339.8332
      XYYY     -92.7228   YYYY    -166.3343   XXXZ       5.3605
      XXYZ      -0.0437   XYYZ      -0.4400   YYYZ      -5.7667
      XXZZ    -328.5099   XYZZ     -22.9174   YYZZ     -38.7532
      XZZZ      11.1877   YZZZ      -2.9545   ZZZZ     -81.6610
 -----------------------------------------------------------------
 Calculating analytic gradient of the SCF energy
 Gradient of SCF Energy
            1           2           3           4           5           6
    1   0.0000002   0.0578421   0.0003012  -0.0000668  -0.0580143  -0.0000848
    2   0.0000112   0.0218228   0.0001726   0.0000051  -0.0219207  -0.0000249
    3   0.0000249   0.0039438  -0.0000671  -0.0000021  -0.0039986   0.0000101
            7           8           9          10          11          12
    1  -0.0000585   0.0000026  -0.0000001   0.0000507   0.0000227   0.0000004
    2   0.0000020   0.0000089  -0.0000168   0.0000136  -0.0000321  -0.0000052
    3   0.0000139   0.0000189   0.0000183   0.0000535  -0.0000308   0.0000245
           13
    1   0.0000045
    2  -0.0000366
    3  -0.0000093
 Max gradient component =       5.801E-02
 RMS gradient           =       1.405E-02
 Gradient time:  CPU 11.08 s  wall 0.98 s
 Geometry Optimization Parameters
   NAtoms,    NIC,     NZ,  NCons,   NDum,   NFix, NCnnct, MaxDiis
       13     121       0       1       0       0       0       0

 Cartesian Hessian Update
 Hessian Updated using BFGS Update


** CONSTRAINED OPTIMIZATION IN DELOCALIZED INTERNAL COORDINATES **
   Searching for a Minimum

   Optimization Cycle:   6

                       Coordinates (Angstroms)
     ATOM                X               Y               Z
      1  S         2.9106386058   -0.0551949497    0.0316920004
      2  S        -3.4441668684   -0.7570070505    0.0557898348
      3  C         0.2128729620    0.4930151342    0.2745936427
      4  C         1.1629172461   -0.6508065835   -0.0706000239
      5  C        -1.2949937755    0.0484202194    0.2052638572
      6  H         0.4247726002    0.8647557235    1.2835213505
      7  H         0.3669806437    1.3295720863   -0.4164876293
      8  H         1.0291812049   -1.4829549705    0.6271280875
      9  H         0.9698696581   -1.0149622455   -1.0840630631
     10  H        -1.3991718353   -0.7588833790    0.9337041618
     11  H        -1.4535218598   -0.3007868797   -0.8175305688
     12  H         3.4978386345   -1.2224100920   -0.2985371028
     13  H        -1.8750182163    0.9308519870    0.4544204531
   Point Group: c1    Number of degrees of freedom:    33


   Energy is   -915.405725754

              Constraints and their Current Values
                                        Value     Constraint
   Distance(Angs):        2   5             2.300000     2.300000
 Hessian Updated using BFGS Update

 32 Hessian modes will be used to form the next step
  Hessian Eigenvalues:
     0.015829    0.045000    0.045058    0.047851    0.058485    0.060935
     0.062305    0.068703    0.079103    0.079299    0.082074    0.084822
     0.101647    0.120666    0.124073    0.124141    0.136588    0.142546
     0.166842    0.219230    0.223649    0.228141    0.258234    0.265618
     0.293118    0.295096    0.306623    0.327311    0.341189    0.342695
     0.343495    0.344214

 Minimum Search - Taking Simple RFO Step
 Searching for Lamda that Minimizes Along All modes
 Value Taken    Lamda =  -0.00000101
 Step Taken.  Stepsize is  0.006766

                             Maximum     Tolerance    Cnvgd?
         Gradient           0.000108      0.000300     YES
         Displacement       0.003724      0.001200      NO
         Energy change     -0.000001      0.000001     YES


                       Distance Matrix (Angstroms)
             S (  1)   S (  2)   C (  3)   C (  4)   C (  5)   H (  6)
   S (  2)  6.393487
   C (  3)  2.763598  3.870965
   C (  4)  1.849256  4.610041  1.526457
   C (  5)  4.210488  2.300000  1.573573  2.570281
   H (  6)  2.931368  4.371056  1.095914  2.162275  2.187839
   H (  7)  2.930638  4.370550  1.095979  2.162187  2.188626  1.763356
   H (  8)  2.435760  4.567742  2.166817  1.094158  2.815114  2.511555
   H (  9)  2.435703  4.566128  2.166330  1.094068  2.814738  3.071795
   H ( 10)  4.459066  2.225476  2.144846  2.754017  1.092345  2.466850
   H ( 11)  4.452796  2.221147  2.144698  2.743387  1.092330  3.049737
   H ( 12)  1.347682  6.966605  3.749955  2.414652  4.983981  4.037686
   H ( 13)  4.904437  2.338804  2.140871  3.465017  1.084985  2.445570
             H (  7)   H (  8)   H (  9)   H ( 10)   H ( 11)   H ( 12)
   H (  8)  3.072125
   H (  9)  2.511170  1.775024
   H ( 10)  3.050239  2.552483  3.122390
   H ( 11)  2.476517  3.106183  2.540455  1.810975
   H ( 12)  4.040891  2.649341  2.655318  5.070896  5.063074
   H ( 13)  2.438036  3.780300  3.774455  1.819711  1.820015  5.837043

 
 Final energy is   -915.405725754038     


 ******************************
 **  OPTIMIZATION CONVERGED  **
 ******************************

                       Coordinates (Angstroms)
     ATOM                X               Y               Z
      1  S         2.9106386058   -0.0551949497    0.0316920004
      2  S        -3.4441668684   -0.7570070505    0.0557898348
      3  C         0.2128729620    0.4930151342    0.2745936427
      4  C         1.1629172461   -0.6508065835   -0.0706000239
      5  C        -1.2949937755    0.0484202194    0.2052638572
      6  H         0.4247726002    0.8647557235    1.2835213505
      7  H         0.3669806437    1.3295720863   -0.4164876293
      8  H         1.0291812049   -1.4829549705    0.6271280875
      9  H         0.9698696581   -1.0149622455   -1.0840630631
     10  H        -1.3991718353   -0.7588833790    0.9337041618
     11  H        -1.4535218598   -0.3007868797   -0.8175305688
     12  H         3.4978386345   -1.2224100920   -0.2985371028
     13  H        -1.8750182163    0.9308519870    0.4544204531

Z-matrix Print:
$molecule
0 3
S 
H  1 1.347682
C  1 1.849256 2 96.850660
H  3 1.094068 1 108.977984 2 -59.454443 0
H  3 1.094158 1 108.977582 2 58.685657 0
C  3 1.526457 1 109.533497 2 179.635868 0
H  6 1.095914 3 110.000460 1 -58.912931 0
H  6 1.095979 3 109.989735 1 58.848619 0
C  6 1.573573 3 112.006909 1 -180.000000 0
H  9 1.084985 6 105.804734 3 -179.371891 0
H  9 1.092330 6 105.702780 3 -58.797663 0
H  9 1.092345 6 105.713021 3 60.083652 0
S  11 2.221147 9 80.071232 6 176.200872 0
$end

PES scan, value:    2.3000 energy: -915.4057257540
------- Summary of potential scan: ------ 
    2.3000      -915.4057257540
----------------------------------------- 
Archival summary:
1\1\hpc0250\JobtypUnspecified\ProcedureUnspecified\6-31G**\238(3)\knomura\ThuMar1408:45:482019ThuMar1408:45:482019\0\\#,JobtypUnspecified,ProcedureUnspecified,6-31G**,\\0,3\S\H,1,1.34768\C,1,1.84926,2,96.8507\H,3,1.09407,1,108.978,2,-59.4544,0\H,3,1.09416,1,108.978,2,58.6857,0\C,3,1.52646,1,109.533,2,179.636,0\H,6,1.09591,3,110,1,-58.9129,0\H,6,1.09598,3,109.99,1,58.8486,0\C,6,1.57357,3,112.007,1,-180,0\H,9,1.08499,6,105.805,3,-179.372,0\H,9,1.09233,6,105.703,3,-58.7977,0\H,9,1.09234,6,105.713,3,60.0837,0\S,11,2.22115,9,80.0712,6,176.201,0\\\@

 Total job time:  40.03s(wall), 284.21s(cpu) 
 Thu Mar 14 08:45:48 2019

        *************************************************************
        *                                                           *
        *  Thank you very much for using Q-Chem.  Have a nice day.  *
        *                                                           *
        *************************************************************


