
Running Job 1 of 1 thiol/04/C-S.xyz.data/inputs/bond_singlet_1.1.in
qchem thiol/04/C-S.xyz.data/inputs/bond_singlet_1.1.in_3633.0 /staging/scratch/2868767/qchem3633/ 1
/usr/usc/qchem/5.1.1/exe/qcprog.exe_s thiol/04/C-S.xyz.data/inputs/bond_singlet_1.1.in_3633.0 /staging/scratch/2868767/qchem3633/
Check license passed

                  Welcome to Q-Chem
     A Quantum Leap Into The Future Of Chemistry


 Q-Chem 5.1, Q-Chem, Inc., Pleasanton, CA (2018)

 Yihan Shao,  Zhengting Gan,  E. Epifanovsky,  A. T. B. Gilbert,  M. Wormit,  
 J. Kussmann,  A. W. Lange,  A. Behn,  Jia Deng,  Xintian Feng,  D. Ghosh,  
 M. Goldey,  P. R. Horn,  L. D. Jacobson,  I. Kaliman,  T. Kus,  A. Landau,  
 Jie Liu,  E. I. Proynov,  R. M. Richard,  R. P. Steele,  E. J. Sundstrom,  
 H. L. Woodcock III,  P. M. Zimmerman,  D. Zuev,  B. Albrecht,  E. Alguire,  
 S. A. Baeppler,  D. Barton,  Z. Benda,  Y. A. Bernard,  E. J. Berquist,  
 K. B. Bravaya,  H. Burton,  D. Casanova,  Chun-Min Chang,  Yunqing Chen,  
 A. Chien,  K. D. Closser,  M. P. Coons,  S. Coriani,  S. Dasgupta,  
 A. L. Dempwolff,  M. Diedenhofen,  Hainam Do,  R. G. Edgar,  Po-Tung Fang,  
 S. Faraji,  S. Fatehi,  Qingguo Feng,  K. D. Fenk,  J. Fosso-Tande,  
 Qinghui Ge,  A. Ghysels,  G. Gidofalvi,  J. Gomes,  J. Gonthier,  A. Gunina,  
 D. Hait,  M. W. D. Hanson-Heine,  P. H. P. Harbach,  A. W. Hauser,  
 J. E. Herr,  E. G. Hohenstein,  Z. C. Holden,  Kerwin Hui,  B. C. Huynh,  
 T.-C. Jagau,  Hyunjun Ji,  B. Kaduk,  K. Khistyaev,  Jaehoon Kim,  
 P. Klunzinger,  K. Koh,  D. Kosenkov,  L. Koulias,  T. Kowalczyk,  
 C. M. Krauter,  A. Kunitsa,  Ka Un Lao,  A. Laurent,  K. V. Lawler,  
 Joonho Lee,  D. Lefrancois,  S. Lehtola,  D. S. Levine,  Yi-Pei Li,  
 You-Sheng Lin,  Fenglai Liu,  E. Livshits,  A. Luenser,  P. Manohar,  
 E. Mansoor,  S. F. Manzer,  Shan-Ping Mao,  Yuezhi Mao,  N. Mardirossian,  
 A. V. Marenich,  T. Markovich,  L. A. Martinez-Martinez,  S. A. Maurer,  
 N. J. Mayhall,  S. C. McKenzie,  J.-M. Mewes,  A. F. Morrison,  
 J. W. Mullinax,  K. Nanda,  T. S. Nguyen-Beck,  R. Olivares-Amaya,  
 J. A. Parkhill,  T. M. Perrine,  F. Plasser,  P. Pokhilko,  S. Prager,  
 A. Prociuk,  E. Ramos,  D. R. Rehn,  F. Rob,  M. Schneider,  N. Sergueev,  
 S. M. Sharada,  S. Sharma,  D. W. Small,  T. Stauch,  T. Stein,  
 Yu-Chuan Su,  A. J. W. Thom,  A. Tkatchenko,  T. Tsuchimochi,  N. M. Tubman,  
 L. Vogt,  M. L. Vidal,  O. Vydrov,  M. A. Watson,  J. Wenzel,  
 M. de Wergifosse,  T. A. Wesolowski,  A. White,  J. Witte,  A. Yamada,  
 Jun Yang,  K. Yao,  S. Yeganeh,  S. R. Yost,  Zhi-Qiang You,  A. Zech,  
 Igor Ying Zhang,  Xing Zhang,  Yan Zhao,  Ying Zhu,  B. R. Brooks,  
 G. K. L. Chan,  C. J. Cramer,  M. S. Gordon,  W. J. Hehre,  A. Klamt,  
 M. W. Schmidt,  C. D. Sherrill,  D. G. Truhlar,  A. Aspuru-Guzik,  R. Baer,  
 A. T. Bell,  N. A. Besley,  Jeng-Da Chai,  A. E. DePrince, III,  
 R. A. DiStasio Jr.,  A. Dreuw,  B. D. Dunietz,  T. R. Furlani,  
 Chao-Ping Hsu,  Yousung Jung,  Jing Kong,  D. S. Lambrecht,  WanZhen Liang,  
 C. Ochsenfeld,  V. A. Rassolov,  L. V. Slipchenko,  J. E. Subotnik,  
 T. Van Voorhis,  J. M. Herbert,  A. I. Krylov,  P. M. W. Gill,  M. Head-Gordon

 Contributors to earlier versions of Q-Chem not listed above: 
 R. D. Adamson,  B. Austin,  J. Baker,  G. J. O. Beran,  K. Brandhorst,  
 S. T. Brown,  E. F. C. Byrd,  A. K. Chakraborty,  C.-L. Cheng,  
 Siu Hung Chien,  D. M. Chipman,  D. L. Crittenden,  H. Dachsel,  
 R. J. Doerksen,  A. D. Dutoi,  L. Fusti-Molnar,  W. A. Goddard III,  
 A. Golubeva-Zadorozhnaya,  S. R. Gwaltney,  G. Hawkins,  A. Heyden,  
 S. Hirata,  G. Kedziora,  F. J. Keil,  C. Kelley,  Jihan Kim,  R. A. King,  
 R. Z. Khaliullin,  P. P. Korambath,  W. Kurlancheek,  A. M. Lee,  M. S. Lee,  
 S. V. Levchenko,  Ching Yeh Lin,  D. Liotard,  R. C. Lochan,  I. Lotan,  
 P. E. Maslen,  N. Nair,  D. P. O'Neill,  D. Neuhauser,  E. Neuscamman,  
 C. M. Oana,  R. Olson,  B. Peters,  R. Peverati,  P. A. Pieniazek,  
 Y. M. Rhee,  J. Ritchie,  M. A. Rohrdanz,  E. Rosta,  N. J. Russ,  
 H. F. Schaefer III,  N. E. Schultz,  N. Shenvi,  A. C. Simmonett,  A. Sodt,  
 D. Stuck,  K. S. Thanthiriwatte,  V. Vanovschi,  Tao Wang,  A. Warshel,  
 C. F. Williams,  Q. Wu,  X. Xu,  W. Zhang

 Please cite Q-Chem as follows:
 Y. Shao et al., Mol. Phys. 113, 184-215 (2015)
 DOI: 10.1080/00268976.2014.952696

 Q-Chem 5.1.1 for Intel X86 EM64T Linux

 Parts of Q-Chem use Armadillo 8.300.2 (Tropical Shenanigans).
 http://arma.sourceforge.net/

 Q-Chem begins on Thu Mar 14 05:08:36 2019  

Host: 
0

     Scratch files written to /staging/scratch/2868767/qchem3633//
 Aug318 |scratch|qcdevops|jenkins|workspace|build_RNUM 6013   
Processing $rem in /usr/usc/qchem/5.1.1/config/preferences.
 MEM_TOTAL  2000 
Input Ideriv = 2
Curr. Ideriv = -1
Max.  Ideriv = 2

Checking the input file for inconsistencies... 	...done.

--------------------------------------------------------------
User input:
--------------------------------------------------------------

$comment
potential surface scanner
$end

$rem
JOBTYPE  PES_SCAN
UNRESTRICTED TRUE
SYM_IGNORE  TRUE
GEOM_OPT_MAX_CYCLES 400
SCF_MAX_CYCLES 400
METHOD   B3LYP
BASIS   6-31G**
PDB_PRINT 2
SCF_CONVERGENCE 6
THRESH 14
SCF_PRINT 1
$end
$molecule
0 1
S 2.749000 0.445300 -0.001100
S -2.750400 0.444400 -0.000400
C 0.000900 0.283600 0.001800
C 1.255600 -0.587300 0.000700
C -1.255100 -0.586000 -0.001000
H 0.001400 0.930000 0.889200
H 0.001400 0.933800 -0.882900
H 1.280200 -1.230100 0.886500
H 1.278600 -1.230200 -0.885100
H -1.279500 -1.231800 0.882600
H -1.278100 -1.225300 -0.889300
H 3.631700 -0.564200 -0.001900
H -2.527500 1.041400 1.179800
$end
$scan
stre 2 5 1.100000 1.101000 0.100000
$end
--------------------------------------------------------------
 ----------------------------------------------------------------
             Standard Nuclear Orientation (Angstroms)
    I     Atom           X                Y                Z
 ----------------------------------------------------------------
    1      S       2.7490000000     0.4453000000    -0.0011000000
    2      S      -2.7504000000     0.4444000000    -0.0004000000
    3      C       0.0009000000     0.2836000000     0.0018000000
    4      C       1.2556000000    -0.5873000000     0.0007000000
    5      C      -1.2551000000    -0.5860000000    -0.0010000000
    6      H       0.0014000000     0.9300000000     0.8892000000
    7      H       0.0014000000     0.9338000000    -0.8829000000
    8      H       1.2802000000    -1.2301000000     0.8865000000
    9      H       1.2786000000    -1.2302000000    -0.8851000000
   10      H      -1.2795000000    -1.2318000000     0.8826000000
   11      H      -1.2781000000    -1.2253000000    -0.8893000000
   12      H       3.6317000000    -0.5642000000    -0.0019000000
   13      H      -2.5275000000     1.0414000000     1.1798000000
 ----------------------------------------------------------------
 Nuclear Repulsion Energy =   268.1876241948 hartrees
 There are       29 alpha and       29 beta electrons
 Requested basis set is 6-31G(d,p)
 There are 46 shells and 123 basis functions

 Total QAlloc Memory Limit   2000 MB
 Mega-Array Size       188 MB
 MEM_STATIC part       192 MB
A total of 1 constraints
  
            1
    1   1.0100000
    2   2.0100000
    3   5.0100000
    4   1.1000000
    5   1.1010000
    6   0.1000000
    7   0.0000000
    8   0.0000000
    9   0.0000000
   10   0.0000000

                       Distance Matrix (Angstroms)
             S (  1)   S (  2)   C (  3)   C (  4)   C (  5)   H (  6)
   S (  2)  5.499400
   C (  3)  2.752855  2.755996
   C (  4)  1.815629  4.136719  1.527331
   C (  5)  4.134779  1.815942  1.527661  2.510701
   H (  6)  2.928630  2.932507  1.097867  2.159780  2.160904
   H (  7)  2.926689  2.930993  1.097932  2.160443  2.160169  1.772104
   H (  8)  2.398369  4.453794  2.170389  1.094732  2.762294  2.510253
   H (  9)  2.398089  4.451946  2.170415  1.094756  2.759758  3.073409
   H ( 10)  4.452236  2.398517  2.170638  2.760409  1.094715  2.512793
   H ( 11)  4.449420  2.397021  2.169488  2.760214  1.094674  3.073353
   H ( 12)  1.340989  6.461306  3.728470  2.376214  4.886849  4.025639
   H ( 13)  5.439790  1.341255  2.890459  4.284249  2.379437  2.547978
             H (  7)   H (  8)   H (  9)   H ( 10)   H ( 11)   H ( 12)
   H (  8)  3.073852
   H (  9)  2.512795  1.771601
   H ( 10)  3.073682  2.559704  3.109444
   H ( 11)  2.509756  3.114223  2.556708  1.771912
   H ( 12)  4.024828  2.600429  2.600130  5.034671  5.032958
   H ( 13)  3.265217  4.443458  4.889824  2.610224  3.313624  6.473802

 
 A cutoff of  1.0D-14 yielded   1001 shell pairs
 There are      7258 function pairs
 
 -------------------------------------------------------
 OpenMP Integral Computing Module                       
 Release: version 1.0, May 2013, Q-Chem Inc. Pittsburgh 
 -------------------------------------------------------
 Integral Job Info:
 Integral job number is                      11
 Integral operator is                         1
 short-range coefficients                     0
 long-range coefficients              100000000
 Omega coefficients                           0
 if combine SR and LR in K                    0
 Integral screening is                        0
 Integral computing path is                   2
 max size of driver memory is            800000
 size of driver memory is                593474
 size of scratch memory is             15267112
 max col of scratch BK array               1296
 max len of scratch array in speh3          155
 max len of scratch index in speh4           18
 max int batch size is                      520
 min int batch size is                       52
 fixed nKL is                                52
 max L of basis functions is                  2
 order of int derivative is                   0
 number of shells is                         46
 number of basis is                         123
 number of cartesian basis is               123
 number of contracted shell pairs          1001
 number of primitive shell pairs           3814
 maxK2 (contraction) of shell pair           36
 max number of K2 of shell pair               1
 max number of CS2 of shell pair             82
 max number of PS2 of shell pair            330
 mem total for path MDJ                  516588
 -------------------------------------------------------
 Smallest overlap matrix eigenvalue = 4.85E-03

 Scale SEOQF with 1.000000e-01/1.000000e+00/1.000000e+00

 Standard Electronic Orientation quadrupole field applied
 Nucleus-field energy     =     0.0000000181 hartrees
 Guess from superposition of atomic densities
 Warning:  Energy on first SCF cycle will be non-variational
 SAD guess density has 58.000000 electrons

 -----------------------------------------------------------------------
  General SCF calculation program by
  Eric Jon Sundstrom, Paul Horn, Yuezhi Mao, Dmitri Zuev, Alec White,
  David Stuck, Shaama M.S., Shane Yost, Joonho Lee, David Small,
  Daniel Levine, Susi Lehtola, Hugh Burton, Evgeny Epifanovsky
 -----------------------------------------------------------------------
 Exchange:     0.2000 Hartree-Fock + 0.0800 Slater + 0.7200 B88
 Correlation:  0.1900 VWN1RPA + 0.8100 LYP
 Using SG-1 standard quadrature grid
 using 12 threads for integral computing
 -------------------------------------------------------
 OpenMP Integral computing Module                
 Release: version 1.0, May 2013, Q-Chem Inc. Pittsburgh 
 -------------------------------------------------------
 -------------------------------------------------------
 OpenMP BLAS3 based DFT computing Module                
 Release: version 1.0, May 2013, Q-Chem Inc. Pittsburgh 
 -------------------------------------------------------
 A unrestricted SCF calculation will be
 performed using DIIS
 SCF converges when DIIS error is below 1.0e-06
 Alpha HF Exchange    Energy =  -6.86881428099075
 Beta HF Exchange     Energy =  -6.86881428099075
 DFT Correlation      Energy =  -2.71522590550096
 DFT Exchange         Energy = -53.89554875886800
 One-Electron (alpha) Energy = -894.07856029087043
 One-Electron (beta)  Energy = -894.07856029087043
 Total Coulomb        Energy = 674.12222086572160
 ---------------------------------------
  Cycle       Energy         DIIS error
 ---------------------------------------
    1    -916.1956787294      2.87e-02  
 Alpha HF Exchange    Energy =  -6.87063996470483
 Beta HF Exchange     Energy =  -6.87063996470483
 DFT Correlation      Energy =  -2.74200285800805
 DFT Exchange         Energy = -54.50681347386773
 One-Electron (alpha) Energy = -898.17976169642145
 One-Electron (beta)  Energy = -898.17976169642100
 Total Coulomb        Energy = 683.70468909991666
    2    -915.4573063413      2.72e-03  
 Alpha HF Exchange    Energy =  -6.81606573863689
 Beta HF Exchange     Energy =  -6.81606573863689
 DFT Correlation      Energy =  -2.71620138941017
 DFT Exchange         Energy = -54.04535546201995
 One-Electron (alpha) Energy = -893.79257619633563
 One-Electron (beta)  Energy = -893.79257619633540
 Total Coulomb        Energy = 674.35791469025639
    3    -915.4333018182      3.26e-03  
 Alpha HF Exchange    Energy =  -6.84118592833670
 Beta HF Exchange     Energy =  -6.84118592833668
 DFT Correlation      Energy =  -2.72911838383076
 DFT Exchange         Energy = -54.25729082376610
 One-Electron (alpha) Energy = -895.98778394364967
 One-Electron (beta)  Energy = -895.98778394364831
 Total Coulomb        Energy = 678.93659959400884
    4    -915.5201251446      3.99e-04  
 Alpha HF Exchange    Energy =  -6.84339170430244
 Beta HF Exchange     Energy =  -6.84339170430244
 DFT Correlation      Energy =  -2.72954239833495
 DFT Exchange         Energy = -54.27407653631690
 One-Electron (alpha) Energy = -896.11770136392147
 One-Electron (beta)  Energy = -896.11770136392113
 Total Coulomb        Energy = 679.21669136714672
    5    -915.5214894910      1.04e-04  
 Alpha HF Exchange    Energy =  -6.84266584839327
 Beta HF Exchange     Energy =  -6.84266584839327
 DFT Correlation      Energy =  -2.72930191233745
 DFT Exchange         Energy = -54.26832915773502
 One-Electron (alpha) Energy = -896.04910762648478
 One-Electron (beta)  Energy = -896.04910762648490
 Total Coulomb        Energy = 679.07197732882514
    6    -915.5215764781      3.26e-05  
 Alpha HF Exchange    Energy =  -6.84272595036085
 Beta HF Exchange     Energy =  -6.84272595036085
 DFT Correlation      Energy =  -2.72932702810548
 DFT Exchange         Energy = -54.26876180500994
 One-Electron (alpha) Energy = -896.05900057019755
 One-Electron (beta)  Energy = -896.05900057019744
 Total Coulomb        Energy = 679.09233331543976
    7    -915.5215843459      6.69e-06  
 Alpha HF Exchange    Energy =  -6.84275986015003
 Beta HF Exchange     Energy =  -6.84275986015001
 DFT Correlation      Energy =  -2.72933984983655
 DFT Exchange         Energy = -54.26903141946516
 One-Electron (alpha) Energy = -896.06189340796857
 One-Electron (beta)  Energy = -896.06189340796811
 Total Coulomb        Energy = 679.09846892427606
    8    -915.5215846683      1.56e-06  
 Alpha HF Exchange    Energy =  -6.84275282131332
 Beta HF Exchange     Energy =  -6.84275282131332
 DFT Correlation      Energy =  -2.72933683394493
 DFT Exchange         Energy = -54.26897390025148
 One-Electron (alpha) Energy = -896.06109014462731
 One-Electron (beta)  Energy = -896.06109014462777
 Total Coulomb        Energy = 679.09678776464170
    9    -915.5215846885      2.52e-07  Convergence criterion met
 ---------------------------------------
 SCF time:   CPU 28.60s  wall 2.00s 
<S^2> =          0.000000000
 Alpha HF Exchange    Energy =  -6.84275282131332
 Beta HF Exchange     Energy =  -6.84275282131332
 DFT Correlation      Energy =  -2.72933683394493
 DFT Exchange         Energy = -54.26897390025148
 One-Electron (alpha) Energy = -896.06109014462731
 One-Electron (beta)  Energy = -896.06109014462777
 Total Coulomb        Energy = 679.09678776464170
 Nuclear repulsion Energy = 268.18762421292877
 SCF   energy in the final basis set =     -915.5215846885
 Total energy in the final basis set =     -915.5215846885
 
 --------------------------------------------------------------
 
                    Orbital Energies (a.u.)
 --------------------------------------------------------------
 
 Alpha MOs
 -- Occupied --
-88.876 -88.876 -10.228 -10.225 -10.204  -7.940  -7.939  -5.905
 -5.904  -5.901  -5.900  -5.894  -5.893  -0.833  -0.784  -0.711
 -0.633  -0.600  -0.496  -0.458  -0.440  -0.421  -0.388  -0.380
 -0.359  -0.332  -0.323  -0.241  -0.238
 -- Virtual --
  0.017   0.032   0.064   0.089   0.096   0.115   0.143   0.144
  0.159   0.179   0.208   0.216   0.338   0.352   0.355   0.367
  0.369   0.386   0.393   0.414   0.502   0.509   0.517   0.547
  0.598   0.630   0.641   0.657   0.726   0.734   0.747   0.769
  0.821   0.826   0.852   0.860   0.865   0.890   0.899   0.904
  0.919   0.941   0.956   1.041   1.119   1.144   1.161   1.174
  1.342   1.392   1.398   1.619   1.650   1.665   1.668   1.829
  1.856   1.993   2.027   2.064   2.066   2.078   2.093   2.105
  2.112   2.143   2.205   2.220   2.249   2.290   2.325   2.391
  2.489   2.569   2.608   2.627   2.703   2.749   2.773   2.793
  2.807   2.820   2.867   3.192   3.244   3.318   3.339   3.465
  3.533   3.979   3.991   4.253   4.421   4.621
 
 Beta MOs
 -- Occupied --
-88.876 -88.876 -10.228 -10.225 -10.204  -7.940  -7.939  -5.905
 -5.904  -5.901  -5.900  -5.894  -5.893  -0.833  -0.784  -0.711
 -0.633  -0.600  -0.496  -0.458  -0.440  -0.421  -0.388  -0.380
 -0.359  -0.332  -0.323  -0.241  -0.238
 -- Virtual --
  0.017   0.032   0.064   0.089   0.096   0.115   0.143   0.144
  0.159   0.179   0.208   0.216   0.338   0.352   0.355   0.367
  0.369   0.386   0.393   0.414   0.502   0.509   0.517   0.547
  0.598   0.630   0.641   0.657   0.726   0.734   0.747   0.769
  0.821   0.826   0.852   0.860   0.865   0.890   0.899   0.904
  0.919   0.941   0.956   1.041   1.119   1.144   1.161   1.174
  1.342   1.392   1.398   1.619   1.650   1.665   1.668   1.829
  1.856   1.993   2.027   2.064   2.066   2.078   2.093   2.105
  2.112   2.143   2.205   2.220   2.249   2.290   2.325   2.391
  2.489   2.569   2.608   2.627   2.703   2.749   2.773   2.793
  2.807   2.820   2.867   3.192   3.244   3.318   3.339   3.465
  3.533   3.979   3.991   4.253   4.421   4.621
 --------------------------------------------------------------
 
          Ground-State Mulliken Net Atomic Charges

     Atom                 Charge (a.u.)    Spin (a.u.)
  --------------------------------------------------------
      1 S                    -0.037765      -0.000000
      2 S                    -0.034190      -0.000000
      3 C                    -0.175747      -0.000000
      4 C                    -0.333913      -0.000000
      5 C                    -0.340993       0.000000
      6 H                     0.117428       0.000000
      7 H                     0.136289       0.000000
      8 H                     0.133711       0.000000
      9 H                     0.134980      -0.000000
     10 H                     0.139713       0.000000
     11 H                     0.144193       0.000000
     12 H                     0.056294       0.000000
     13 H                     0.060000       0.000000
  --------------------------------------------------------
  Sum of atomic charges =     0.000000
  Sum of spin   charges =    -0.000000

 -----------------------------------------------------------------
                    Cartesian Multipole Moments
 -----------------------------------------------------------------
    Charge (ESU x 10^10)
                -0.0000
    Dipole Moment (Debye)
         X       0.6700      Y      -1.9207      Z       0.7473
       Tot       2.1671
    Quadrupole Moments (Debye-Ang)
        XX     -54.0895     XY      -4.3307     YY     -46.3565
        XZ      -1.9888     YZ       1.8724     ZZ     -46.5698
    Octopole Moments (Debye-Ang^2)
       XXX      30.0155    XXY     -15.5103    XYY      -1.9102
       YYY     -17.5094    XXZ       3.6689    XYZ      -4.9343
       YYZ       0.8440    XZZ      -8.2455    YZZ      -6.9347
       ZZZ      -1.6101
    Hexadecapole Moments (Debye-Ang^3)
      XXXX   -1465.7232   XXXY     -42.0296   XXYY    -263.9699
      XYYY       7.4229   YYYY    -152.1034   XXXZ      -3.9680
      XXYZ      12.5843   XYYZ      -2.7292   YYYZ       0.3225
      XXZZ    -263.4689   XYZZ      -1.8602   YYZZ     -36.3269
      XZZZ       3.9763   YZZZ      -0.2014   ZZZZ     -81.8973
 -----------------------------------------------------------------
 Calculating analytic gradient of the SCF energy
 Gradient of SCF Energy
            1           2           3           4           5           6
    1  -0.0074535   0.0143993  -0.0053240   0.0027287  -0.0076011  -0.0002515
    2  -0.0104297  -0.0006840   0.0030280   0.0079705  -0.0025851   0.0001651
    3   0.0000031   0.0071432   0.0023908  -0.0006734  -0.0067338   0.0014381
            7           8           9          10          11          12
    1   0.0007356   0.0016619   0.0018997  -0.0006588   0.0039573  -0.0028285
    2   0.0002724   0.0003371   0.0001140   0.0020711  -0.0014824   0.0022136
    3  -0.0022532   0.0001598  -0.0000763   0.0017971  -0.0000898  -0.0000452
           13
    1  -0.0012651
    2  -0.0009906
    3  -0.0030603
 Max gradient component =       1.440E-02
 RMS gradient           =       4.275E-03
 Gradient time:  CPU 11.18 s  wall 1.00 s
 Geometry Optimization Parameters
   NAtoms,    NIC,     NZ,  NCons,   NDum,   NFix, NCnnct, MaxDiis
       13      82       0       1       0       0       0       0


** CONSTRAINED OPTIMIZATION IN DELOCALIZED INTERNAL COORDINATES **
   Searching for a Minimum

   Optimization Cycle:   1

                       Coordinates (Angstroms)
     ATOM                X               Y               Z
      1  S         2.7490000000    0.4453000000   -0.0011000000
      2  S        -2.7504000000    0.4444000000   -0.0004000000
      3  C         0.0009000000    0.2836000000    0.0018000000
      4  C         1.2556000000   -0.5873000000    0.0007000000
      5  C        -1.2551000000   -0.5860000000   -0.0010000000
      6  H         0.0014000000    0.9300000000    0.8892000000
      7  H         0.0014000000    0.9338000000   -0.8829000000
      8  H         1.2802000000   -1.2301000000    0.8865000000
      9  H         1.2786000000   -1.2302000000   -0.8851000000
     10  H        -1.2795000000   -1.2318000000    0.8826000000
     11  H        -1.2781000000   -1.2253000000   -0.8893000000
     12  H         3.6317000000   -0.5642000000   -0.0019000000
     13  H        -2.5275000000    1.0414000000    1.1798000000
   Point Group: c1    Number of degrees of freedom:    33


   Energy is   -915.521584689

              Constraints and their Current Values
                                        Value     Constraint
   Distance(Angs):        2   5             1.815942     1.100000

 Attempting to Generate Delocalized Internal Coordinates
**WARNING** Constraint Gradient Reduced for constraint   1

   Using Lagrange Multiplier Algorithm


 34 Hessian modes will be used to form the next step
  Hessian Eigenvalues:
    -0.883220    0.045000    0.045000    0.045000    0.045000    0.069986
     0.078028    0.078135    0.078862    0.084332    0.084347    0.100856
     0.125142    0.125255    0.129999    0.143191    0.143273    0.160000
     0.160000    0.219312    0.220563    0.220608    0.249231    0.263221
     0.263433    0.296405    0.296713    0.339119    0.339191    0.342687
     0.342714    0.342733    0.342781    1.132220

 Minimum Search - Taking P-RFO Step
 Searching for Lamda that Maximizes Along the Constraint modes Only
 Value Taken    Lamda =   0.05753111


 ********************************************
 ** ERROR IN DETERMINING Lamda IN CONFormD **
 ********************************************


 ** Scaling Hessian by  2.556938 **


 34 Hessian modes will be used to form the next step
  Hessian Eigenvalues:
    -0.731109    0.115062    0.115062    0.115062    0.115062    0.178950
     0.199512    0.199787    0.201646    0.215631    0.215670    0.257883
     0.319981    0.320269    0.332400    0.366130    0.366341    0.409110
     0.409110    0.560766    0.563966    0.564082    0.637269    0.673039
     0.673582    0.757889    0.758676    0.867105    0.867291    0.876230
     0.876300    0.876348    0.876469    1.367786

 Minimum Search - Taking P-RFO Step
 Searching for Lamda that Maximizes Along the Constraint modes Only
 Value Taken    Lamda =   0.07681593
 Searching for Lamda that Minimizes Along All other modes
 Value Taken    Lamda =  -0.02129220
 Step Taken.  Stepsize is  0.283497

                             Maximum     Tolerance    Cnvgd?
         Gradient            0.300000       0.000300      NO
         Displacement        0.279363       0.001200      NO
         Energy change     *********       0.000001      NO


 New Cartesian Coordinates Obtained by Inverse Iteration

 Displacement from previous Coordinates is:  0.326458
 ----------------------------------------------------------------
             Standard Nuclear Orientation (Angstroms)
    I     Atom           X                Y                Z
 ----------------------------------------------------------------
    1      S       2.7465671173     0.4496605176    -0.0007552177
    2      S      -2.6619889442     0.3766985187    -0.0144445934
    3      C      -0.0093288729     0.2945773458     0.0014120782
    4      C       1.2419419399    -0.5852420559     0.0047164264
    5      C      -1.2808192057    -0.5585458365     0.0022248561
    6      H      -0.0016458776     0.9446457343     0.8851631435
    7      H      -0.0038688705     0.9417426255    -0.8840357896
    8      H       1.2586789766    -1.2245749150     0.8932290750
    9      H       1.2570904742    -1.2317484537    -0.8785960804
   10      H      -1.3104188806    -1.2053694038     0.8847386853
   11      H      -1.3139327001    -1.1993553669    -0.8840468714
   12      H       3.6325845471    -0.5604939000     0.0032685953
   13      H      -2.4466597035     0.9816051899     1.1660256927
 ----------------------------------------------------------------
 Nuclear Repulsion Energy =   272.5825548497 hartrees
 There are       29 alpha and       29 beta electrons

                       Distance Matrix (Angstroms)
             S (  1)   S (  2)   C (  3)   C (  4)   C (  5)   H (  6)
   S (  2)  5.409065
   C (  3)  2.760257  2.653978
   C (  4)  1.826185  4.020743  1.529631
   C (  5)  4.151666  1.668110  1.531178  2.522904
   H (  6)  2.929597  2.865185  1.097116  2.159225  2.162279
   H (  7)  2.930397  2.853255  1.096755  2.161853  2.160307  1.769203
   H (  8)  2.411656  4.331234  2.170485  1.094752  2.772460  2.508785
   H (  9)  2.411697  4.323545  2.169770  1.094733  2.769482  3.071149
   H ( 10)  4.470163  2.266762  2.173233  2.770116  1.094572  2.517032
   H ( 11)  4.470695  2.248869  2.172064  2.774803  1.094171  3.073913
   H ( 12)  1.343672  6.363985  3.740947  2.390771  4.913404  4.031230
   H ( 13)  5.349201  1.343796  2.787277  4.172461  2.255146  2.461370
             H (  7)   H (  8)   H (  9)   H ( 10)   H ( 11)   H ( 12)
   H (  8)  3.073374
   H (  9)  2.512790  1.771840
   H ( 10)  3.073390  2.569184  3.114827
   H ( 11)  2.510093  3.126928  2.571233  1.768799
   H ( 12)  4.033338  2.620775  2.621305  5.062226  5.065916
   H ( 13)  3.189290  4.321016  4.774639  2.480529  3.200384  6.378659

 
 Applying Cartesian multipole field
    Component          Value
    ---------          -----
     (2,0,0)        1.00000E-11
     (0,2,0)        2.00000E-10
     (0,0,2)       -3.00000E-10
 Nucleus-field energy     =     0.0000000170 hartrees
 Requested basis set is 6-31G(d,p)
 There are 46 shells and 123 basis functions
 A cutoff of  1.0D-14 yielded   1006 shell pairs
 There are      7301 function pairs
 Smallest overlap matrix eigenvalue = 4.75E-03
 Guess from superposition of atomic densities
 Warning:  Energy on first SCF cycle will be non-variational
 SAD guess density has 58.000000 electrons

 -----------------------------------------------------------------------
  General SCF calculation program by
  Eric Jon Sundstrom, Paul Horn, Yuezhi Mao, Dmitri Zuev, Alec White,
  David Stuck, Shaama M.S., Shane Yost, Joonho Lee, David Small,
  Daniel Levine, Susi Lehtola, Hugh Burton, Evgeny Epifanovsky
 -----------------------------------------------------------------------
 Exchange:     0.2000 Hartree-Fock + 0.0800 Slater + 0.7200 B88
 Correlation:  0.1900 VWN1RPA + 0.8100 LYP
 Using SG-1 standard quadrature grid
 using 12 threads for integral computing
 -------------------------------------------------------
 OpenMP Integral computing Module                
 Release: version 1.0, May 2013, Q-Chem Inc. Pittsburgh 
 -------------------------------------------------------
 -------------------------------------------------------
 OpenMP BLAS3 based DFT computing Module                
 Release: version 1.0, May 2013, Q-Chem Inc. Pittsburgh 
 -------------------------------------------------------
 A unrestricted SCF calculation will be
 performed using DIIS
 SCF converges when DIIS error is below 1.0e-06
 Alpha HF Exchange    Energy =  -6.88374806418438
 Beta HF Exchange     Energy =  -6.88374806418438
 DFT Correlation      Energy =  -2.71892282620796
 DFT Exchange         Energy = -53.92537062698346
 One-Electron (alpha) Energy = -898.41447920611097
 One-Electron (beta)  Energy = -898.41447920611097
 Total Coulomb        Energy = 678.31212978080566
 ---------------------------------------
  Cycle       Energy         DIIS error
 ---------------------------------------
    1    -916.3460633463      3.01e-02  
 Alpha HF Exchange    Energy =  -6.87737898610891
 Beta HF Exchange     Energy =  -6.87737898610891
 DFT Correlation      Energy =  -2.74639597045915
 DFT Exchange         Energy = -54.55613710188334
 One-Electron (alpha) Energy = -902.67134022969879
 One-Electron (beta)  Energy = -902.67134022969901
 Total Coulomb        Energy = 688.37825741966662
    2    -915.4391592176      2.84e-03  
 Alpha HF Exchange    Energy =  -6.81969789716791
 Beta HF Exchange     Energy =  -6.81969789716791
 DFT Correlation      Energy =  -2.71920674396141
 DFT Exchange         Energy = -54.07012330330205
 One-Electron (alpha) Energy = -897.95902710697510
 One-Electron (beta)  Energy = -897.95902710697442
 Total Coulomb        Energy = 678.35177435914147
    3    -915.4124508297      3.41e-03  
 Alpha HF Exchange    Energy =  -6.84678842098525
 Beta HF Exchange     Energy =  -6.84678842098526
 DFT Correlation      Energy =  -2.73293234649120
 DFT Exchange         Energy = -54.29738502967563
 One-Electron (alpha) Energy = -900.35660554643505
 One-Electron (beta)  Energy = -900.35660554643539
 Total Coulomb        Energy = 683.34709886962059
    4    -915.5074515747      3.71e-04  
 Alpha HF Exchange    Energy =  -6.84887294056483
 Beta HF Exchange     Energy =  -6.84887294056483
 DFT Correlation      Energy =  -2.73334332154573
 DFT Exchange         Energy = -54.31332284805299
 One-Electron (alpha) Energy = -900.47504532444248
 One-Electron (beta)  Energy = -900.47504532444236
 Total Coulomb        Energy = 683.60333451526606
    5    -915.5086133176      9.90e-05  
 Alpha HF Exchange    Energy =  -6.84813378848313
 Beta HF Exchange     Energy =  -6.84813378848313
 DFT Correlation      Energy =  -2.73309714093758
 DFT Exchange         Energy = -54.30745949021892
 One-Electron (alpha) Energy = -900.40657516588396
 One-Electron (beta)  Energy = -900.40657516588374
 Total Coulomb        Energy = 683.45872909837408
    6    -915.5086905748      3.47e-05  
 Alpha HF Exchange    Energy =  -6.84820844510648
 Beta HF Exchange     Energy =  -6.84820844510648
 DFT Correlation      Energy =  -2.73312615229607
 DFT Exchange         Energy = -54.30800630781789
 One-Electron (alpha) Energy = -900.41723578690051
 One-Electron (beta)  Energy = -900.41723578690119
 Total Coulomb        Energy = 683.48076655754096
    7    -915.5086994999      8.60e-06  
 Alpha HF Exchange    Energy =  -6.84824395876010
 Beta HF Exchange     Energy =  -6.84824395876011
 DFT Correlation      Energy =  -2.73313995037751
 DFT Exchange         Energy = -54.30828945817760
 One-Electron (alpha) Energy = -900.42049239438188
 One-Electron (beta)  Energy = -900.42049239438245
 Total Coulomb        Energy = 683.48764721859186
    8    -915.5087000295      1.84e-06  
 Alpha HF Exchange    Energy =  -6.84823877716249
 Beta HF Exchange     Energy =  -6.84823877716249
 DFT Correlation      Energy =  -2.73313759005626
 DFT Exchange         Energy = -54.30824666534349
 One-Electron (alpha) Energy = -900.41979850565929
 One-Electron (beta)  Energy = -900.41979850565872
 Total Coulomb        Energy = 683.48620389731536
    9    -915.5087000570      3.60e-07  Convergence criterion met
 ---------------------------------------
 SCF time:   CPU 28.74s  wall 2.00s 
<S^2> =         -0.000000000
 Alpha HF Exchange    Energy =  -6.84823877716249
 Beta HF Exchange     Energy =  -6.84823877716249
 DFT Correlation      Energy =  -2.73313759005626
 DFT Exchange         Energy = -54.30824666534349
 One-Electron (alpha) Energy = -900.41979850565929
 One-Electron (beta)  Energy = -900.41979850565872
 Total Coulomb        Energy = 683.48620389731536
 Nuclear repulsion Energy = 272.58255486672243
 SCF   energy in the final basis set =     -915.5087000570
 Total energy in the final basis set =     -915.5087000570
 
 --------------------------------------------------------------
 
                    Orbital Energies (a.u.)
 --------------------------------------------------------------
 
 Alpha MOs
 -- Occupied --
-88.876 -88.872 -10.224 -10.218 -10.203  -7.938  -7.938  -5.903
 -5.903  -5.900  -5.899  -5.893  -5.892  -0.848  -0.795  -0.712
 -0.626  -0.602  -0.501  -0.461  -0.446  -0.424  -0.392  -0.378
 -0.361  -0.331  -0.324  -0.239  -0.235
 -- Virtual --
  0.022   0.031   0.070   0.094   0.107   0.117   0.142   0.148
  0.155   0.179   0.207   0.213   0.343   0.350   0.356   0.369
  0.371   0.387   0.395   0.427   0.501   0.512   0.526   0.551
  0.606   0.630   0.639   0.655   0.731   0.736   0.748   0.772
  0.811   0.826   0.852   0.859   0.866   0.888   0.903   0.908
  0.919   0.944   0.987   1.067   1.124   1.164   1.171   1.190
  1.357   1.388   1.423   1.615   1.648   1.668   1.679   1.828
  1.858   2.012   2.024   2.064   2.069   2.077   2.095   2.114
  2.153   2.163   2.207   2.227   2.273   2.298   2.344   2.398
  2.497   2.575   2.612   2.637   2.707   2.751   2.772   2.794
  2.811   2.825   2.870   3.198   3.248   3.321   3.344   3.466
  3.535   3.983   4.008   4.259   4.433   4.626
 
 Beta MOs
 -- Occupied --
-88.876 -88.872 -10.224 -10.218 -10.203  -7.938  -7.938  -5.903
 -5.903  -5.900  -5.899  -5.893  -5.892  -0.848  -0.795  -0.712
 -0.626  -0.602  -0.501  -0.461  -0.446  -0.424  -0.392  -0.378
 -0.361  -0.331  -0.324  -0.239  -0.235
 -- Virtual --
  0.022   0.031   0.070   0.094   0.107   0.117   0.142   0.148
  0.155   0.179   0.207   0.213   0.343   0.350   0.356   0.369
  0.371   0.387   0.395   0.427   0.501   0.512   0.526   0.551
  0.606   0.630   0.639   0.655   0.731   0.736   0.748   0.772
  0.811   0.826   0.852   0.859   0.866   0.888   0.903   0.908
  0.919   0.944   0.987   1.067   1.124   1.164   1.171   1.190
  1.357   1.388   1.423   1.615   1.648   1.668   1.679   1.828
  1.858   2.012   2.024   2.064   2.069   2.077   2.095   2.114
  2.153   2.163   2.207   2.227   2.273   2.298   2.344   2.398
  2.497   2.575   2.612   2.637   2.707   2.751   2.772   2.794
  2.811   2.825   2.870   3.198   3.248   3.321   3.344   3.466
  3.535   3.983   4.008   4.259   4.433   4.626
 --------------------------------------------------------------
 
          Ground-State Mulliken Net Atomic Charges

     Atom                 Charge (a.u.)    Spin (a.u.)
  --------------------------------------------------------
      1 S                    -0.041530       0.000000
      2 S                    -0.013007       0.000000
      3 C                    -0.183148       0.000000
      4 C                    -0.331833      -0.000000
      5 C                    -0.341401      -0.000000
      6 H                     0.116181       0.000000
      7 H                     0.135271       0.000000
      8 H                     0.133471       0.000000
      9 H                     0.134541       0.000000
     10 H                     0.136899       0.000000
     11 H                     0.144429       0.000000
     12 H                     0.056259       0.000000
     13 H                     0.053868      -0.000000
  --------------------------------------------------------
  Sum of atomic charges =    -0.000000
  Sum of spin   charges =    -0.000000

 -----------------------------------------------------------------
                    Cartesian Multipole Moments
 -----------------------------------------------------------------
    Charge (ESU x 10^10)
                 0.0000
    Dipole Moment (Debye)
         X       0.5239      Y      -1.9154      Z       0.7223
       Tot       2.1131
    Quadrupole Moments (Debye-Ang)
        XX     -53.7711     XY      -4.1366     YY     -46.3998
        XZ      -1.8745     YZ       1.7725     ZZ     -46.5205
    Octopole Moments (Debye-Ang^2)
       XXX      25.5158    XXY     -15.4822    XYY      -2.8509
       YYY     -15.7150    XXZ       3.6226    XYZ      -4.5822
       YYZ       0.6622    XZZ      -9.2430    YZZ      -6.5465
       ZZZ      -1.3004
    Hexadecapole Moments (Debye-Ang^3)
      XXXX   -1420.3607   XXXY     -48.9869   XXYY    -257.0206
      XYYY      -1.5987   YYYY    -146.4659   XXXZ      -5.0056
      XXYZ      11.2806   XYYZ      -2.4793   YYYZ       0.4347
      XXZZ    -257.2610   XYZZ      -4.2760   YYZZ     -35.6306
      XZZZ       2.4482   YZZZ       0.0561   ZZZZ     -81.7827
 -----------------------------------------------------------------
 Calculating analytic gradient of the SCF energy
 Gradient of SCF Energy
            1           2           3           4           5           6
    1  -0.0049025   0.0799422  -0.0109365   0.0016557  -0.0621529   0.0004714
    2  -0.0066261  -0.0481505   0.0069451   0.0049548   0.0370001  -0.0000968
    3   0.0000374   0.0045888   0.0026332  -0.0006134  -0.0059376   0.0006497
            7           8           9          10          11          12
    1   0.0010419   0.0009161   0.0010242  -0.0063797  -0.0015026  -0.0017016
    2  -0.0000989   0.0000117  -0.0001804   0.0059868   0.0019383   0.0013491
    3  -0.0014345   0.0001730  -0.0000540   0.0020557  -0.0000518  -0.0000668
           13
    1   0.0025243
    2  -0.0030332
    3  -0.0019797
 Max gradient component =       7.994E-02
 RMS gradient           =       1.921E-02
 Gradient time:  CPU 11.31 s  wall 1.03 s
 Geometry Optimization Parameters
   NAtoms,    NIC,     NZ,  NCons,   NDum,   NFix, NCnnct, MaxDiis
       13      82       0       1       0       0       0       0

 Cartesian Hessian Update
 Hessian Updated using BFGS Update


** CONSTRAINED OPTIMIZATION IN DELOCALIZED INTERNAL COORDINATES **
   Searching for a Minimum

   Optimization Cycle:   2

                       Coordinates (Angstroms)
     ATOM                X               Y               Z
      1  S         2.7465671173    0.4496605176   -0.0007552177
      2  S        -2.6619889442    0.3766985187   -0.0144445934
      3  C        -0.0093288729    0.2945773458    0.0014120782
      4  C         1.2419419399   -0.5852420559    0.0047164264
      5  C        -1.2808192057   -0.5585458365    0.0022248561
      6  H        -0.0016458776    0.9446457343    0.8851631435
      7  H        -0.0038688705    0.9417426255   -0.8840357896
      8  H         1.2586789766   -1.2245749150    0.8932290750
      9  H         1.2570904742   -1.2317484537   -0.8785960804
     10  H        -1.3104188806   -1.2053694038    0.8847386853
     11  H        -1.3139327001   -1.1993553669   -0.8840468714
     12  H         3.6325845471   -0.5604939000    0.0032685953
     13  H        -2.4466597035    0.9816051899    1.1660256927
   Point Group: c1    Number of degrees of freedom:    33


   Energy is   -915.508700057

              Constraints and their Current Values
                                        Value     Constraint
   Distance(Angs):        2   5             1.668110     1.100000
 Hessian Updated using BFGS Update
**WARNING** Constraint Gradient Reduced for constraint   1

   Using Lagrange Multiplier Algorithm


 32 Hessian modes will be used to form the next step
  Hessian Eigenvalues:
    -0.856929    0.115062    0.115063    0.178948    0.199023    0.199787
     0.201597    0.215601    0.217368    0.257904    0.319855    0.322289
     0.332392    0.366030    0.366135    0.409052    0.413853    0.556352
     0.561390    0.564006    0.634737    0.672750    0.673481    0.756782
     0.758670    0.867044    0.867287    0.876230    0.876300    0.876383
     0.876649    1.177070

 Minimum Search - Taking P-RFO Step
 Searching for Lamda that Maximizes Along the Constraint modes Only
 Value Taken    Lamda =   0.03399587
 Searching for Lamda that Minimizes Along All other modes
 Value Taken    Lamda =  -0.05809364
 Calculated Step too Large.  Step scaled by  0.974127
 Step Taken.  Stepsize is  0.300000

                             Maximum     Tolerance    Cnvgd?
         Gradient            0.300000       0.000300      NO
         Displacement        0.279265       0.001200      NO
         Energy change      0.012885       0.000001      NO


 New Cartesian Coordinates Obtained by Inverse Iteration

 Displacement from previous Coordinates is:  0.255344
 ----------------------------------------------------------------
             Standard Nuclear Orientation (Angstroms)
    I     Atom           X                Y                Z
 ----------------------------------------------------------------
    1      S       2.7532933863     0.4485875543    -0.0042029422
    2      S      -2.5896826230     0.3019192583    -0.0237765289
    3      C      -0.0117591566     0.3032551392     0.0035069076
    4      C       1.2346072616    -0.5883592912     0.0062305726
    5      C      -1.3121441469    -0.5215668547     0.0103759147
    6      H       0.0071304475     0.9546968727     0.8853955834
    7      H      -0.0024169277     0.9495918128    -0.8809429099
    8      H       1.2448369561    -1.2257257116     0.8960572849
    9      H       1.2389599332    -1.2359885659    -0.8761493551
   10      H      -1.3176745042    -1.1807331566     0.8865465036
   11      H      -1.3371498468    -1.1664351449    -0.8746273160
   12      H       3.6421131020    -0.5632075246     0.0005881030
   13      H      -2.4419138814     0.9475656123     1.1498981826
 ----------------------------------------------------------------
 Nuclear Repulsion Energy =   276.8163848104 hartrees
 There are       29 alpha and       29 beta electrons

                       Distance Matrix (Angstroms)
             S (  1)   S (  2)   C (  3)   C (  4)   C (  5)   H (  6)
   S (  2)  5.345025
   C (  3)  2.768880  2.578068
   C (  4)  1.838960  3.926664  1.532453
   C (  5)  4.179617  1.520329  1.539928  2.547630
   H (  6)  2.930690  2.827747  1.096568  2.158855  2.164601
   H (  7)  2.934897  2.801456  1.095486  2.163931  2.161977  1.766372
   H (  8)  2.426774  4.228869  2.171051  1.094592  2.796144  2.507244
   H (  9)  2.427199  4.213099  2.169646  1.094549  2.793646  3.069128
   H ( 10)  4.474472  2.155215  2.165039  2.764056  1.096451  2.513000
   H ( 11)  4.483042  2.109230  2.165126  2.779212  1.095313  3.066589
   H ( 12)  1.346756  6.291607  3.755203  2.407644  4.954442  4.037328
   H ( 13)  5.345195  1.347667  2.763151  4.145341  2.175601  2.463297
             H (  7)   H (  8)   H (  9)   H ( 10)   H ( 11)   H ( 12)
   H (  8)  3.073333
   H (  9)  2.513524  1.772246
   H ( 10)  3.064671  2.562924  3.105886
   H ( 11)  2.501824  3.131373  2.577049  1.761340
   H ( 12)  4.043298  2.643431  2.645080  5.075998  5.091458
   H ( 13)  3.174187  4.287162  4.735146  2.421348  3.128611  6.373283

 
 Applying Cartesian multipole field
    Component          Value
    ---------          -----
     (2,0,0)        1.00000E-11
     (0,2,0)        2.00000E-10
     (0,0,2)       -3.00000E-10
 Nucleus-field energy     =     0.0000000160 hartrees
 Requested basis set is 6-31G(d,p)
 There are 46 shells and 123 basis functions
 A cutoff of  1.0D-14 yielded   1008 shell pairs
 There are      7329 function pairs
 Smallest overlap matrix eigenvalue = 4.66E-03
 Guess from superposition of atomic densities
 Warning:  Energy on first SCF cycle will be non-variational
 SAD guess density has 58.000000 electrons

 -----------------------------------------------------------------------
  General SCF calculation program by
  Eric Jon Sundstrom, Paul Horn, Yuezhi Mao, Dmitri Zuev, Alec White,
  David Stuck, Shaama M.S., Shane Yost, Joonho Lee, David Small,
  Daniel Levine, Susi Lehtola, Hugh Burton, Evgeny Epifanovsky
 -----------------------------------------------------------------------
 Exchange:     0.2000 Hartree-Fock + 0.0800 Slater + 0.7200 B88
 Correlation:  0.1900 VWN1RPA + 0.8100 LYP
 Using SG-1 standard quadrature grid
 using 12 threads for integral computing
 -------------------------------------------------------
 OpenMP Integral computing Module                
 Release: version 1.0, May 2013, Q-Chem Inc. Pittsburgh 
 -------------------------------------------------------
 -------------------------------------------------------
 OpenMP BLAS3 based DFT computing Module                
 Release: version 1.0, May 2013, Q-Chem Inc. Pittsburgh 
 -------------------------------------------------------
 A unrestricted SCF calculation will be
 performed using DIIS
 SCF converges when DIIS error is below 1.0e-06
 Alpha HF Exchange    Energy =  -6.90154646850713
 Beta HF Exchange     Energy =  -6.90154646850713
 DFT Correlation      Energy =  -2.72264506546470
 DFT Exchange         Energy = -53.96227733873211
 One-Electron (alpha) Energy = -902.53934838073667
 One-Electron (beta)  Energy = -902.53934838073667
 Total Coulomb        Energy = 682.21204352093048
 ---------------------------------------
  Cycle       Energy         DIIS error
 ---------------------------------------
    1    -916.5382837554      3.22e-02  
 Alpha HF Exchange    Energy =  -6.88561157822821
 Beta HF Exchange     Energy =  -6.88561157822822
 DFT Correlation      Energy =  -2.75124766397810
 DFT Exchange         Energy = -54.62078178872888
 One-Electron (alpha) Energy = -907.02121848692695
 One-Electron (beta)  Energy = -907.02121848692730
 Total Coulomb        Energy = 692.98331806008036
    2    -915.3859866966      3.05e-03  
 Alpha HF Exchange    Energy =  -6.82321172292337
 Beta HF Exchange     Energy =  -6.82321172292338
 DFT Correlation      Energy =  -2.72194725974643
 DFT Exchange         Energy = -54.09673780547973
 One-Electron (alpha) Energy = -901.81238527114192
 One-Electron (beta)  Energy = -901.81238527114260
 Total Coulomb        Energy = 681.91999241574263
    3    -915.3535018112      3.68e-03  
 Alpha HF Exchange    Energy =  -6.85322803093595
 Beta HF Exchange     Energy =  -6.85322803093595
 DFT Correlation      Energy =  -2.73693241590425
 DFT Exchange         Energy = -54.34734862006958
 One-Electron (alpha) Energy = -904.51616205591642
 One-Electron (beta)  Energy = -904.51616205591665
 Total Coulomb        Energy = 687.54330257282299
    4    -915.4633738105      3.55e-04  
 Alpha HF Exchange    Energy =  -6.85519331786319
 Beta HF Exchange     Energy =  -6.85519331786320
 DFT Correlation      Energy =  -2.73731512235554
 DFT Exchange         Energy = -54.36235937496928
 One-Electron (alpha) Energy = -904.62396036703547
 One-Electron (beta)  Energy = -904.62396036703581
 Total Coulomb        Energy = 687.77717489372935
    5    -915.4644221470      1.07e-04  
 Alpha HF Exchange    Energy =  -6.85446117096350
 Beta HF Exchange     Energy =  -6.85446117096350
 DFT Correlation      Energy =  -2.73707897655275
 DFT Exchange         Energy = -54.35658313022552
 One-Electron (alpha) Energy = -904.55638837695847
 One-Electron (beta)  Energy = -904.55638837695903
 Total Coulomb        Energy = 687.63446574811439
    6    -915.4645106281      4.09e-05  
 Alpha HF Exchange    Energy =  -6.85450324815719
 Beta HF Exchange     Energy =  -6.85450324815719
 DFT Correlation      Energy =  -2.73709141930221
 DFT Exchange         Energy = -54.35684914988815
 One-Electron (alpha) Energy = -904.56424443811159
 One-Electron (beta)  Energy = -904.56424443811147
 Total Coulomb        Energy = 687.65052807944494
    7    -915.4645230359      9.44e-06  
 Alpha HF Exchange    Energy =  -6.85455213018628
 Beta HF Exchange     Energy =  -6.85455213018628
 DFT Correlation      Energy =  -2.73711123553484
 DFT Exchange         Energy = -54.35724177942929
 One-Electron (alpha) Energy = -904.56885751964774
 One-Electron (beta)  Energy = -904.56885751964808
 Total Coulomb        Energy = 687.66026380611618
    8    -915.4645236821      1.67e-06  
 Alpha HF Exchange    Energy =  -6.85454674047043
 Beta HF Exchange     Energy =  -6.85454674047043
 DFT Correlation      Energy =  -2.73710872630763
 DFT Exchange         Energy = -54.35719699149888
 One-Electron (alpha) Energy = -904.56812188237961
 One-Electron (beta)  Energy = -904.56812188237984
 Total Coulomb        Energy = 687.65873443078601
    9    -915.4645237063      3.04e-07  Convergence criterion met
 ---------------------------------------
 SCF time:   CPU 28.58s  wall 2.00s 
<S^2> =         -0.000000000
 Alpha HF Exchange    Energy =  -6.85454674047043
 Beta HF Exchange     Energy =  -6.85454674047043
 DFT Correlation      Energy =  -2.73710872630763
 DFT Exchange         Energy = -54.35719699149888
 One-Electron (alpha) Energy = -904.56812188237961
 One-Electron (beta)  Energy = -904.56812188237984
 Total Coulomb        Energy = 687.65873443078601
 Nuclear repulsion Energy = 276.81638482637118
 SCF   energy in the final basis set =     -915.4645237063
 Total energy in the final basis set =     -915.4645237063
 
 --------------------------------------------------------------
 
                    Orbital Energies (a.u.)
 --------------------------------------------------------------
 
 Alpha MOs
 -- Occupied --
-88.876 -88.864 -10.225 -10.211 -10.202  -7.938  -7.935  -5.903
 -5.900  -5.900  -5.896  -5.893  -5.889  -0.876  -0.800  -0.712
 -0.620  -0.603  -0.511  -0.466  -0.452  -0.430  -0.397  -0.377
 -0.363  -0.331  -0.319  -0.239  -0.227
 -- Virtual --
  0.024   0.033   0.069   0.089   0.107   0.127   0.143   0.150
  0.158   0.179   0.200   0.214   0.338   0.351   0.362   0.371
  0.375   0.387   0.398   0.438   0.500   0.523   0.545   0.559
  0.614   0.624   0.649   0.661   0.731   0.738   0.749   0.773
  0.790   0.822   0.850   0.854   0.861   0.887   0.902   0.916
  0.920   0.954   1.001   1.082   1.124   1.165   1.196   1.266
  1.374   1.386   1.458   1.615   1.656   1.670   1.697   1.824
  1.857   2.015   2.027   2.064   2.069   2.078   2.095   2.116
  2.171   2.182   2.209   2.231   2.300   2.316   2.382   2.403
  2.510   2.583   2.618   2.644   2.712   2.754   2.770   2.790
  2.815   2.831   2.875   3.199   3.250   3.320   3.348   3.461
  3.539   3.983   4.030   4.261   4.449   4.633
 
 Beta MOs
 -- Occupied --
-88.876 -88.864 -10.225 -10.211 -10.202  -7.938  -7.935  -5.903
 -5.900  -5.900  -5.896  -5.893  -5.889  -0.876  -0.800  -0.712
 -0.620  -0.603  -0.511  -0.466  -0.452  -0.430  -0.397  -0.377
 -0.363  -0.331  -0.319  -0.239  -0.227
 -- Virtual --
  0.024   0.033   0.069   0.089   0.107   0.127   0.143   0.150
  0.158   0.179   0.200   0.214   0.338   0.351   0.362   0.371
  0.375   0.387   0.398   0.438   0.500   0.523   0.545   0.559
  0.614   0.624   0.649   0.661   0.731   0.738   0.749   0.773
  0.790   0.822   0.850   0.854   0.861   0.887   0.902   0.916
  0.920   0.954   1.001   1.082   1.124   1.165   1.196   1.266
  1.374   1.386   1.458   1.615   1.656   1.670   1.697   1.824
  1.857   2.015   2.027   2.064   2.069   2.078   2.095   2.116
  2.171   2.182   2.209   2.231   2.300   2.316   2.382   2.403
  2.510   2.583   2.618   2.644   2.712   2.754   2.770   2.790
  2.815   2.831   2.875   3.199   3.250   3.320   3.348   3.461
  3.539   3.983   4.030   4.261   4.449   4.633
 --------------------------------------------------------------
 
          Ground-State Mulliken Net Atomic Charges

     Atom                 Charge (a.u.)    Spin (a.u.)
  --------------------------------------------------------
      1 S                    -0.044073       0.000000
      2 S                    -0.009594      -0.000000
      3 C                    -0.191964      -0.000000
      4 C                    -0.330426       0.000000
      5 C                    -0.316777       0.000000
      6 H                     0.115641      -0.000000
      7 H                     0.133292      -0.000000
      8 H                     0.133789       0.000000
      9 H                     0.134111       0.000000
     10 H                     0.129670       0.000000
     11 H                     0.145570      -0.000000
     12 H                     0.056350      -0.000000
     13 H                     0.044413       0.000000
  --------------------------------------------------------
  Sum of atomic charges =    -0.000000
  Sum of spin   charges =     0.000000

 -----------------------------------------------------------------
                    Cartesian Multipole Moments
 -----------------------------------------------------------------
    Charge (ESU x 10^10)
                -0.0000
    Dipole Moment (Debye)
         X       0.4501      Y      -1.9295      Z       0.6966
       Tot       2.1002
    Quadrupole Moments (Debye-Ang)
        XX     -53.5387     XY      -4.0007     YY     -46.3487
        XZ      -1.8808     YZ       1.7224     ZZ     -46.5136
    Octopole Moments (Debye-Ang^2)
       XXX      21.7879    XXY     -15.0537    XYY      -3.7601
       YYY     -13.5612    XXZ       4.0551    XYZ      -4.3427
       YYZ       0.4317    XZZ     -10.0955    YZZ      -6.0286
       ZZZ      -1.0956
    Hexadecapole Moments (Debye-Ang^3)
      XXXX   -1389.7657   XXXY     -56.0315   XXYY    -252.1459
      XYYY      -9.3944   YYYY    -140.8818   XXXZ      -7.1548
      XXYZ      10.5316   XYYZ      -1.8542   YYYZ       0.5362
      XXZZ    -253.6485   XYZZ      -6.3490   YYZZ     -34.9200
      XZZZ       2.2141   YZZZ       0.2654   ZZZZ     -81.8261
 -----------------------------------------------------------------
 Calculating analytic gradient of the SCF energy
 Gradient of SCF Energy
            1           2           3           4           5           6
    1  -0.0018340   0.2112483  -0.0142737   0.0015438  -0.1866727   0.0012298
    2  -0.0025050  -0.1342353   0.0076694   0.0019719   0.1176213  -0.0004415
    3   0.0000470   0.0082729   0.0026296  -0.0004784  -0.0102992  -0.0000477
            7           8           9          10          11          12
    1   0.0011120   0.0000999   0.0000367  -0.0107757  -0.0052643  -0.0003796
    2  -0.0006920  -0.0002069  -0.0003383   0.0097544   0.0048371   0.0004319
    3  -0.0004703   0.0001109   0.0000776   0.0018771  -0.0000789  -0.0000780
           13
    1   0.0039296
    2  -0.0038671
    3  -0.0015624
 Max gradient component =       2.112E-01
 RMS gradient           =       5.361E-02
 Gradient time:  CPU 11.37 s  wall 1.01 s
 Geometry Optimization Parameters
   NAtoms,    NIC,     NZ,  NCons,   NDum,   NFix, NCnnct, MaxDiis
       13      82       0       1       0       0       0       0

 Cartesian Hessian Update
 Hessian Updated using BFGS Update


** CONSTRAINED OPTIMIZATION IN DELOCALIZED INTERNAL COORDINATES **
   Searching for a Minimum

   Optimization Cycle:   3

                       Coordinates (Angstroms)
     ATOM                X               Y               Z
      1  S         2.7532933863    0.4485875543   -0.0042029422
      2  S        -2.5896826230    0.3019192583   -0.0237765289
      3  C        -0.0117591566    0.3032551392    0.0035069076
      4  C         1.2346072616   -0.5883592912    0.0062305726
      5  C        -1.3121441469   -0.5215668547    0.0103759147
      6  H         0.0071304475    0.9546968727    0.8853955834
      7  H        -0.0024169277    0.9495918128   -0.8809429099
      8  H         1.2448369561   -1.2257257116    0.8960572849
      9  H         1.2389599332   -1.2359885659   -0.8761493551
     10  H        -1.3176745042   -1.1807331566    0.8865465036
     11  H        -1.3371498468   -1.1664351449   -0.8746273160
     12  H         3.6421131020   -0.5632075246    0.0005881030
     13  H        -2.4419138814    0.9475656123    1.1498981826
   Point Group: c1    Number of degrees of freedom:    33


   Energy is   -915.464523706

              Constraints and their Current Values
                                        Value     Constraint
   Distance(Angs):        2   5             1.520329     1.100000
 Hessian Updated using BFGS Update
**WARNING** Constraint Gradient Reduced for constraint   1

   Using Lagrange Multiplier Algorithm


 33 Hessian modes will be used to form the next step
  Hessian Eigenvalues:
    -0.742437    0.115062    0.115062    0.115065    0.178943    0.198340
     0.199788    0.201573    0.215447    0.216235    0.257868    0.319725
     0.322493    0.332400    0.365471    0.366132    0.408822    0.410806
     0.547346    0.561261    0.563996    0.633974    0.672451    0.673508
     0.754690    0.758736    0.867050    0.867294    0.876142    0.876234
     0.876300    0.876483    1.377053

 Minimum Search - Taking P-RFO Step
 Searching for Lamda that Maximizes Along the Constraint modes Only
 Value Taken    Lamda =   0.09437075
 Searching for Lamda that Minimizes Along All other modes
 Value Taken    Lamda =  -0.02054192
 Calculated Step too Large.  Step scaled by  0.880029
 Step Taken.  Stepsize is  0.300000

                             Maximum     Tolerance    Cnvgd?
         Gradient            0.300000       0.000300      NO
         Displacement        0.240399       0.001200      NO
         Energy change      0.044176       0.000001      NO


 New Cartesian Coordinates Obtained by Inverse Iteration

 Displacement from previous Coordinates is:  0.247001
 ----------------------------------------------------------------
             Standard Nuclear Orientation (Angstroms)
    I     Atom           X                Y                Z
 ----------------------------------------------------------------
    1      S       2.7609917516     0.4411387290    -0.0098028834
    2      S      -2.5352587421     0.2364923772    -0.0271216997
    3      C      -0.0092119058     0.3109859465     0.0078218549
    4      C       1.2291324444    -0.5940558012     0.0052347987
    5      C      -1.3433230059    -0.4828646053     0.0237276582
    6      H       0.0203194972     0.9617406261     0.8899510597
    7      H       0.0010278347     0.9597176739    -0.8741563461
    8      H       1.2354957151    -1.2312822716     0.8948597503
    9      H       1.2228372413    -1.2401657646    -0.8779706909
   10      H      -1.2877170876    -1.1670549202     0.8854147347
   11      H      -1.3369647955    -1.1355533133    -0.8598446803
   12      H       3.6480437802    -0.5751107850    -0.0075518794
   13      H      -2.4971727277     0.9396121086     1.1283383234
 ----------------------------------------------------------------
 Nuclear Repulsion Energy =   280.6754686112 hartrees
 There are       29 alpha and       29 beta electrons

                       Distance Matrix (Angstroms)
             S (  1)   S (  2)   C (  3)   C (  4)   C (  5)   H (  6)
   S (  2)  5.300231
   C (  3)  2.773315  2.527387
   C (  4)  1.848904  3.855061  1.533820
   C (  5)  4.207173  1.393116  1.552515  2.574924
   H (  6)  2.931189  2.810336  1.096588  2.159735  2.167198
   H (  7)  2.938270  2.770067  1.094917  2.166975  2.166684  1.764214
   H (  8)  2.437734  4.150060  2.171342  1.094317  2.822996  2.507195
   H (  9)  2.438528  4.126469  2.169941  1.094326  2.823428  3.069200
   H ( 10)  4.447442  2.087829  2.142277  2.727192  1.101686  2.498550
   H ( 11)  4.472335  2.002959  2.146683  2.761600  1.098519  3.050024
   H ( 12)  1.348936  6.236370  3.763100  2.419019  4.992317  4.040768
   H ( 13)  5.402975  1.353113  2.800121  4.183163  2.138919  2.528851
             H (  7)   H (  8)   H (  9)   H ( 10)   H ( 11)   H ( 12)
   H (  8)  3.074705
   H (  9)  2.516410  1.772898
   H ( 10)  3.046328  2.524048  3.068836
   H ( 11)  2.486079  3.115398  2.562003  1.746238
   H ( 12)  4.050608  2.658062  2.661119  5.050695  5.088301
   H ( 13)  3.201780  4.324362  4.755542  2.441279  3.099236  6.430266

 
 Applying Cartesian multipole field
    Component          Value
    ---------          -----
     (2,0,0)        1.00000E-11
     (0,2,0)        2.00000E-10
     (0,0,2)       -3.00000E-10
 Nucleus-field energy     =     0.0000000154 hartrees
 Requested basis set is 6-31G(d,p)
 There are 46 shells and 123 basis functions
 A cutoff of  1.0D-14 yielded   1006 shell pairs
 There are      7311 function pairs
 Smallest overlap matrix eigenvalue = 4.56E-03
 Guess from superposition of atomic densities
 Warning:  Energy on first SCF cycle will be non-variational
 SAD guess density has 58.000000 electrons

 -----------------------------------------------------------------------
  General SCF calculation program by
  Eric Jon Sundstrom, Paul Horn, Yuezhi Mao, Dmitri Zuev, Alec White,
  David Stuck, Shaama M.S., Shane Yost, Joonho Lee, David Small,
  Daniel Levine, Susi Lehtola, Hugh Burton, Evgeny Epifanovsky
 -----------------------------------------------------------------------
 Exchange:     0.2000 Hartree-Fock + 0.0800 Slater + 0.7200 B88
 Correlation:  0.1900 VWN1RPA + 0.8100 LYP
 Using SG-1 standard quadrature grid
 using 12 threads for integral computing
 -------------------------------------------------------
 OpenMP Integral computing Module                
 Release: version 1.0, May 2013, Q-Chem Inc. Pittsburgh 
 -------------------------------------------------------
 -------------------------------------------------------
 OpenMP BLAS3 based DFT computing Module                
 Release: version 1.0, May 2013, Q-Chem Inc. Pittsburgh 
 -------------------------------------------------------
 A unrestricted SCF calculation will be
 performed using DIIS
 SCF converges when DIIS error is below 1.0e-06
 Alpha HF Exchange    Energy =  -6.91949685582412
 Beta HF Exchange     Energy =  -6.91949685582412
 DFT Correlation      Energy =  -2.72602047992434
 DFT Exchange         Energy = -54.00120942478984
 One-Electron (alpha) Energy = -906.23133184982089
 One-Electron (beta)  Energy = -906.23133184982089
 Total Coulomb        Energy = 685.61187059797169
 ---------------------------------------
  Cycle       Energy         DIIS error
 ---------------------------------------
    1    -916.7415480915      3.48e-02  
 Alpha HF Exchange    Energy =  -6.89460481851842
 Beta HF Exchange     Energy =  -6.89460481851842
 DFT Correlation      Energy =  -2.75612733544993
 DFT Exchange         Energy = -54.69599104447597
 One-Electron (alpha) Energy = -911.00496171978682
 One-Electron (beta)  Energy = -911.00496171978648
 Total Coulomb        Energy = 697.28789193091905
    2    -915.2878908991      3.37e-03  
 Alpha HF Exchange    Energy =  -6.82597131637478
 Beta HF Exchange     Energy =  -6.82597131637479
 DFT Correlation      Energy =  -2.72406603270486
 DFT Exchange         Energy = -54.12087739683439
 One-Electron (alpha) Energy = -905.14029870823674
 One-Electron (beta)  Energy = -905.14029870823765
 Total Coulomb        Energy = 684.85729821547227
    3    -915.2447166368      4.09e-03  
 Alpha HF Exchange    Energy =  -6.85983315084250
 Beta HF Exchange     Energy =  -6.85983315084251
 DFT Correlation      Energy =  -2.74074761121440
 DFT Exchange         Energy = -54.40272541505723
 One-Electron (alpha) Energy = -908.25514436745971
 One-Electron (beta)  Energy = -908.25514436746050
 Total Coulomb        Energy = 691.31835025548753
    4    -915.3796091809      3.54e-04  
 Alpha HF Exchange    Energy =  -6.86166558133974
 Beta HF Exchange     Energy =  -6.86166558133974
 DFT Correlation      Energy =  -2.74108054467173
 DFT Exchange         Energy = -54.41665875398075
 One-Electron (alpha) Energy = -908.35010034308129
 One-Electron (beta)  Energy = -908.35010034308152
 Total Coulomb        Energy = 691.52516614405340
    5    -915.3806363769      1.22e-04  
 Alpha HF Exchange    Energy =  -6.86091353101778
 Beta HF Exchange     Energy =  -6.86091353101777
 DFT Correlation      Energy =  -2.74084920960361
 DFT Exchange         Energy = -54.41075970758978
 One-Electron (alpha) Energy = -908.28083479647614
 One-Electron (beta)  Energy = -908.28083479647580
 Total Coulomb        Energy = 691.37888365686490
    6    -915.3807532888      4.52e-05  
 Alpha HF Exchange    Energy =  -6.86092150691598
 Beta HF Exchange     Energy =  -6.86092150691597
 DFT Correlation      Energy =  -2.74084292202913
 DFT Exchange         Energy = -54.41072845285637
 One-Electron (alpha) Energy = -908.28626323033382
 One-Electron (beta)  Energy = -908.28626323033359
 Total Coulomb        Energy = 691.38970392731881
    7    -915.3807682955      1.03e-05  
 Alpha HF Exchange    Energy =  -6.86097886098395
 Beta HF Exchange     Energy =  -6.86097886098395
 DFT Correlation      Energy =  -2.74086732990421
 DFT Exchange         Energy = -54.41119328193972
 One-Electron (alpha) Energy = -908.29167491737962
 One-Electron (beta)  Energy = -908.29167491737962
 Total Coulomb        Energy = 691.40113047144405
    8    -915.3807690706      1.74e-06  
 Alpha HF Exchange    Energy =  -6.86097498725056
 Beta HF Exchange     Energy =  -6.86097498725055
 DFT Correlation      Energy =  -2.74086532712165
 DFT Exchange         Energy = -54.41116023576899
 One-Electron (alpha) Energy = -908.29105500464368
 One-Electron (beta)  Energy = -908.29105500464289
 Total Coulomb        Energy = 691.39984782271415
    9    -915.3807690974      3.30e-07  Convergence criterion met
 ---------------------------------------
 SCF time:   CPU 28.62s  wall 2.00s 
<S^2> =         -0.000000000
 Alpha HF Exchange    Energy =  -6.86097498725056
 Beta HF Exchange     Energy =  -6.86097498725055
 DFT Correlation      Energy =  -2.74086532712165
 DFT Exchange         Energy = -54.41116023576899
 One-Electron (alpha) Energy = -908.29105500464368
 One-Electron (beta)  Energy = -908.29105500464289
 Total Coulomb        Energy = 691.39984782271415
 Nuclear repulsion Energy = 280.67546862652756
 SCF   energy in the final basis set =     -915.3807690974
 Total energy in the final basis set =     -915.3807690974
 
 --------------------------------------------------------------
 
                    Orbital Energies (a.u.)
 --------------------------------------------------------------
 
 Alpha MOs
 -- Occupied --
-88.877 -88.856 -10.226 -10.206 -10.200  -7.939  -7.934  -5.904
 -5.900  -5.899  -5.893  -5.893  -5.887  -0.909  -0.802  -0.713
 -0.618  -0.605  -0.522  -0.471  -0.459  -0.438  -0.401  -0.377
 -0.364  -0.331  -0.308  -0.239  -0.218
 -- Virtual --
  0.023   0.039   0.067   0.078   0.103   0.129   0.142   0.147
  0.167   0.180   0.196   0.217   0.333   0.350   0.366   0.375
  0.380   0.388   0.403   0.444   0.503   0.528   0.564   0.568
  0.614   0.634   0.657   0.679   0.722   0.734   0.750   0.771
  0.779   0.817   0.842   0.851   0.861   0.881   0.904   0.920
  0.927   0.966   1.008   1.082   1.118   1.162   1.197   1.365
  1.389   1.442   1.483   1.624   1.667   1.677   1.717   1.822
  1.855   2.016   2.036   2.064   2.072   2.078   2.095   2.116
  2.180   2.186   2.211   2.233   2.299   2.334   2.399   2.434
  2.522   2.592   2.624   2.652   2.721   2.760   2.770   2.788
  2.817   2.835   2.883   3.192   3.247   3.317   3.348   3.452
  3.546   3.982   4.041   4.262   4.466   4.645
 
 Beta MOs
 -- Occupied --
-88.877 -88.856 -10.226 -10.206 -10.200  -7.939  -7.934  -5.904
 -5.900  -5.899  -5.893  -5.893  -5.887  -0.909  -0.802  -0.713
 -0.618  -0.605  -0.522  -0.471  -0.459  -0.438  -0.401  -0.377
 -0.364  -0.331  -0.308  -0.239  -0.218
 -- Virtual --
  0.023   0.039   0.067   0.078   0.103   0.129   0.142   0.147
  0.167   0.180   0.196   0.217   0.333   0.350   0.366   0.375
  0.380   0.388   0.403   0.444   0.503   0.528   0.564   0.568
  0.614   0.634   0.657   0.679   0.722   0.734   0.750   0.771
  0.779   0.817   0.842   0.851   0.861   0.881   0.904   0.920
  0.927   0.966   1.008   1.082   1.118   1.162   1.197   1.365
  1.389   1.442   1.483   1.624   1.667   1.677   1.717   1.822
  1.855   2.016   2.036   2.064   2.072   2.078   2.095   2.116
  2.180   2.186   2.211   2.233   2.299   2.334   2.399   2.434
  2.522   2.592   2.624   2.652   2.721   2.760   2.770   2.788
  2.817   2.835   2.883   3.192   3.247   3.317   3.348   3.452
  3.546   3.982   4.041   4.262   4.466   4.645
 --------------------------------------------------------------
 
          Ground-State Mulliken Net Atomic Charges

     Atom                 Charge (a.u.)    Spin (a.u.)
  --------------------------------------------------------
      1 S                    -0.044632      -0.000000
      2 S                    -0.011212      -0.000000
      3 C                    -0.201087      -0.000000
      4 C                    -0.330157      -0.000000
      5 C                    -0.282924       0.000000
      6 H                     0.115429       0.000000
      7 H                     0.130331      -0.000000
      8 H                     0.134492      -0.000000
      9 H                     0.133449      -0.000000
     10 H                     0.116670       0.000000
     11 H                     0.149893       0.000000
     12 H                     0.056155       0.000000
     13 H                     0.033593      -0.000000
  --------------------------------------------------------
  Sum of atomic charges =    -0.000000
  Sum of spin   charges =     0.000000

 -----------------------------------------------------------------
                    Cartesian Multipole Moments
 -----------------------------------------------------------------
    Charge (ESU x 10^10)
                -0.0000
    Dipole Moment (Debye)
         X       0.4183      Y      -1.9518      Z       0.6476
       Tot       2.0985
    Quadrupole Moments (Debye-Ang)
        XX     -53.3902     XY      -3.9535     YY     -46.1910
        XZ      -1.9151     YZ       1.7207     ZZ     -46.5669
    Octopole Moments (Debye-Ang^2)
       XXX      18.8290    XXY     -14.3503    XYY      -4.5411
       YYY     -11.5252    XXZ       4.5856    XYZ      -4.1681
       YYZ       0.1098    XZZ     -10.6240    YZZ      -5.4878
       ZZZ      -1.1564
    Hexadecapole Moments (Debye-Ang^3)
      XXXX   -1369.7225   XXXY     -61.2662   XXYY    -248.5009
      XYYY     -14.4901   YYYY    -136.4802   XXXZ      -9.1923
      XXYZ      10.0566   XYYZ      -0.8699   YYYZ       0.6715
      XXZZ    -251.7070   XYZZ      -7.6632   YYZZ     -34.3818
      XZZZ       3.2303   YZZZ       0.4501   ZZZZ     -81.9800
 -----------------------------------------------------------------
 Calculating analytic gradient of the SCF energy
 Gradient of SCF Energy
            1           2           3           4           5           6
    1   0.0004642   0.4243082  -0.0155651   0.0019146  -0.3977363   0.0015230
    2   0.0005842  -0.2559941   0.0045768  -0.0004500   0.2396244  -0.0005959
    3   0.0000425   0.0223714   0.0025174  -0.0004135  -0.0231699  -0.0004155
            7           8           9          10          11          12
    1   0.0008731  -0.0004382  -0.0006257  -0.0111216  -0.0061206   0.0004348
    2  -0.0010541  -0.0002190  -0.0003295   0.0113919   0.0055817  -0.0002308
    3   0.0002712   0.0000097   0.0002650   0.0007726  -0.0004943  -0.0000911
           13
    1   0.0020895
    2  -0.0028856
    3  -0.0016656
 Max gradient component =       4.243E-01
 RMS gradient           =       1.089E-01
 Gradient time:  CPU 11.47 s  wall 1.02 s
 Geometry Optimization Parameters
   NAtoms,    NIC,     NZ,  NCons,   NDum,   NFix, NCnnct, MaxDiis
       13      82       0       1       0       0       0       0

 Cartesian Hessian Update
 Hessian Updated using BFGS Update


** CONSTRAINED OPTIMIZATION IN DELOCALIZED INTERNAL COORDINATES **
   Searching for a Minimum

   Optimization Cycle:   4

                       Coordinates (Angstroms)
     ATOM                X               Y               Z
      1  S         2.7609917516    0.4411387290   -0.0098028834
      2  S        -2.5352587421    0.2364923772   -0.0271216997
      3  C        -0.0092119058    0.3109859465    0.0078218549
      4  C         1.2291324444   -0.5940558012    0.0052347987
      5  C        -1.3433230059   -0.4828646053    0.0237276582
      6  H         0.0203194972    0.9617406261    0.8899510597
      7  H         0.0010278347    0.9597176739   -0.8741563461
      8  H         1.2354957151   -1.2312822716    0.8948597503
      9  H         1.2228372413   -1.2401657646   -0.8779706909
     10  H        -1.2877170876   -1.1670549202    0.8854147347
     11  H        -1.3369647955   -1.1355533133   -0.8598446803
     12  H         3.6480437802   -0.5751107850   -0.0075518794
     13  H        -2.4971727277    0.9396121086    1.1283383234
   Point Group: c1    Number of degrees of freedom:    33


   Energy is   -915.380769097

              Constraints and their Current Values
                                        Value     Constraint
   Distance(Angs):        2   5             1.393116     1.100000
 Hessian Updated using BFGS Update
**WARNING** Constraint Gradient Reduced for constraint   1

   Using Lagrange Multiplier Algorithm


 34 Hessian modes will be used to form the next step
  Hessian Eigenvalues:
    -0.587817    0.115060    0.115062    0.115062    0.115064    0.178923
     0.196691    0.199787    0.201565    0.211818    0.215649    0.257766
     0.319073    0.320392    0.332402    0.364739    0.366130    0.406837
     0.409212    0.545604    0.561230    0.563994    0.634271    0.672213
     0.673509    0.752575    0.758648    0.867066    0.867290    0.874736
     0.876231    0.876300    0.876478    1.763688

 Minimum Search - Taking P-RFO Step
 Searching for Lamda that Maximizes Along the Constraint modes Only
 Value Taken    Lamda =   0.13616248


 ********************************************
 ** ERROR IN DETERMINING Lamda IN CONFormD **
 ********************************************


 ** Scaling Hessian by  2.366802 **


 34 Hessian modes will be used to form the next step
  Hessian Eigenvalues:
    -0.347504    0.272316    0.272329    0.272330    0.272330    0.423398
     0.459179    0.472857    0.477039    0.493638    0.510365    0.609863
     0.749509    0.757444    0.786719    0.861365    0.866556    0.954754
     0.968332    1.280513    1.328258    1.334858    1.500816    1.590101
     1.594046    1.772501    1.795418    2.052173    2.052685    2.064731
     2.073865    2.074029    2.074449    3.188392

 Minimum Search - Taking P-RFO Step
 Searching for Lamda that Maximizes Along the Constraint modes Only
 Value Taken    Lamda =   0.18643464
 Searching for Lamda that Minimizes Along All other modes
 Value Taken    Lamda =  -0.00752728
 Step Taken.  Stepsize is  0.280530

                             Maximum     Tolerance    Cnvgd?
         Gradient            0.300000       0.000300      NO
         Displacement        0.533108       0.001200      NO
         Energy change      0.083755       0.000001      NO


 New Cartesian Coordinates Obtained by Inverse Iteration

 Displacement from previous Coordinates is:  0.235517
 ----------------------------------------------------------------
             Standard Nuclear Orientation (Angstroms)
    I     Atom           X                Y                Z
 ----------------------------------------------------------------
    1      S       2.7643666351     0.4303446308    -0.0148753209
    2      S      -2.4930543332     0.1855329584    -0.0271512263
    3      C      -0.0069057168     0.3200460045     0.0114038650
    4      C       1.2210500601    -0.5983509811     0.0038204746
    5      C      -1.3726027933    -0.4481594713     0.0385730854
    6      H       0.0299634469     0.9705539967     0.8938955578
    7      H       0.0026092229     0.9718543939    -0.8684627965
    8      H       1.2245653916    -1.2353299601     0.8933525226
    9      H       1.2063822644    -1.2427653251    -0.8803841605
   10      H      -1.2386473700    -1.1612275815     0.8780215580
   11      H      -1.3219734541    -1.1106599584    -0.8409107606
   12      H       3.6457698674    -0.5923189634    -0.0139723342
   13      H      -2.5533232209     0.9340802566     1.1055895355
 ----------------------------------------------------------------
 Nuclear Repulsion Energy =   284.3163286308 hartrees
 There are       29 alpha and       29 beta electrons

                       Distance Matrix (Angstroms)
             S (  1)   S (  2)   C (  3)   C (  4)   C (  5)   H (  6)
   S (  2)  5.263132
   C (  3)  2.773591  2.490083
   C (  4)  1.854829  3.796051  1.533423
   C (  5)  4.229556  1.288913  1.567165  2.598230
   H (  6)  2.931664  2.798250  1.096956  2.161570  2.170603
   H (  7)  2.940943  2.748535  1.095039  2.170489  2.174939  1.762571
   H (  8)  2.443427  4.084957  2.171071  1.094085  2.845271  2.508585
   H (  9)  2.444528  4.056337  2.170192  1.094213  2.850797  3.070963
   H ( 10)  4.399374  2.051009  2.112436  2.670425  1.109542  2.480750
   H ( 11)  4.444683  1.927110  2.121971  2.728186  1.102253  3.027992
   H ( 12)  1.350079  6.187923  3.764982  2.424793  5.020718  4.042382
   H ( 13)  5.457748  1.359065  2.838754  4.219969  2.107893  2.592203
             H (  7)   H (  8)   H (  9)   H ( 10)   H ( 11)   H ( 12)
   H (  8)  3.077147
   H (  9)  2.520665  1.773845
   H ( 10)  3.023403  2.464375  3.012774
   H ( 11)  2.468227  3.083516  2.532112  1.721694
   H ( 12)  4.055787  2.664382  2.669150  4.997684  5.062705
   H ( 13)  3.229721  4.361631  4.776833  2.484044  3.079943  6.481672

 
 Applying Cartesian multipole field
    Component          Value
    ---------          -----
     (2,0,0)        1.00000E-11
     (0,2,0)        2.00000E-10
     (0,0,2)       -3.00000E-10
 Nucleus-field energy     =     0.0000000149 hartrees
 Requested basis set is 6-31G(d,p)
 There are 46 shells and 123 basis functions
 A cutoff of  1.0D-14 yielded   1006 shell pairs
 There are      7311 function pairs
 Smallest overlap matrix eigenvalue = 4.41E-03
 Guess from superposition of atomic densities
 Warning:  Energy on first SCF cycle will be non-variational
 SAD guess density has 58.000000 electrons

 -----------------------------------------------------------------------
  General SCF calculation program by
  Eric Jon Sundstrom, Paul Horn, Yuezhi Mao, Dmitri Zuev, Alec White,
  David Stuck, Shaama M.S., Shane Yost, Joonho Lee, David Small,
  Daniel Levine, Susi Lehtola, Hugh Burton, Evgeny Epifanovsky
 -----------------------------------------------------------------------
 Exchange:     0.2000 Hartree-Fock + 0.0800 Slater + 0.7200 B88
 Correlation:  0.1900 VWN1RPA + 0.8100 LYP
 Using SG-1 standard quadrature grid
 using 12 threads for integral computing
 -------------------------------------------------------
 OpenMP Integral computing Module                
 Release: version 1.0, May 2013, Q-Chem Inc. Pittsburgh 
 -------------------------------------------------------
[...]
    2      S      -2.4503448334     0.0937850814     0.0510763451
    3      C       0.0284714168     0.3804154103    -0.0597320863
    4      C       1.2110609116    -0.5666771994    -0.0556552132
    5      C      -1.4765284109    -0.4165134029     0.0868155893
    6      H       0.0529667739     1.0595705283     0.8017819579
    7      H      -0.0278859012     0.9845083341    -0.9729172925
    8      H       1.1427237967    -1.2489025274     0.7987606758
    9      H       1.2332564201    -1.1651245391    -0.9722835811
   10      H      -1.1262775705    -1.1915847781     0.8783147170
   11      H      -1.3017877735    -1.1036770804    -0.7633130710
   12      H       3.6271285625    -0.6814727908     0.1415067038
   13      H      -2.6010149871     0.8993658270     1.1719489459
 ----------------------------------------------------------------
 Nuclear Repulsion Energy =   289.8398653842 hartrees
 There are       29 alpha and       29 beta electrons

                       Distance Matrix (Angstroms)
             S (  1)   S (  2)   C (  3)   C (  4)   C (  5)   H (  6)
   S (  2)  5.254616
   C (  3)  2.771122  2.497792
   C (  4)  1.850911  3.722028  1.515097
   C (  5)  4.346570  1.100000  1.709268  2.695549
   H (  6)  2.918947  2.786193  1.097296  2.172801  2.242623
   H (  7)  3.071711  2.776735  1.096363  2.186901  2.276941  1.778125
   H (  8)  2.432095  3.907939  2.152497  1.095503  2.839053  2.552769
   H (  9)  2.433601  4.025051  2.161701  1.094915  3.004171  3.080529
   H ( 10)  4.301908  2.022289  2.164385  2.593446  1.161844  2.542474
   H ( 11)  4.437924  1.848331  2.113562  2.665250  1.106999  2.994081
   H ( 12)  1.349568  6.127388  3.757451  2.426816  5.110823  4.030115
   H ( 13)  5.532707  1.388531  2.949669  4.264765  2.042920  2.684457
             H (  7)   H (  8)   H (  9)   H ( 10)   H ( 11)   H ( 12)
   H (  8)  3.081768
   H (  9)  2.492268  1.775335
   H ( 10)  3.060867  2.271119  2.998802
   H ( 11)  2.455052  2.904617  2.544385  1.653322
   H ( 12)  4.168521  2.631772  2.684226  4.837145  5.029033
   H ( 13)  3.350924  4.332425  4.854018  2.575489  3.073339  6.507736

 
 Applying Cartesian multipole field
    Component          Value
    ---------          -----
     (2,0,0)        1.00000E-11
     (0,2,0)        2.00000E-10
     (0,0,2)       -3.00000E-10
 Nucleus-field energy     =     0.0000000139 hartrees
 Requested basis set is 6-31G(d,p)
 There are 46 shells and 123 basis functions
 A cutoff of  1.0D-14 yielded   1005 shell pairs
 There are      7303 function pairs
 Smallest overlap matrix eigenvalue = 3.55E-03
 Guess from superposition of atomic densities
 Warning:  Energy on first SCF cycle will be non-variational
 SAD guess density has 58.000000 electrons

 -----------------------------------------------------------------------
  General SCF calculation program by
  Eric Jon Sundstrom, Paul Horn, Yuezhi Mao, Dmitri Zuev, Alec White,
  David Stuck, Shaama M.S., Shane Yost, Joonho Lee, David Small,
  Daniel Levine, Susi Lehtola, Hugh Burton, Evgeny Epifanovsky
 -----------------------------------------------------------------------
 Exchange:     0.2000 Hartree-Fock + 0.0800 Slater + 0.7200 B88
 Correlation:  0.1900 VWN1RPA + 0.8100 LYP
 Using SG-1 standard quadrature grid
 using 12 threads for integral computing
 -------------------------------------------------------
 OpenMP Integral computing Module                
 Release: version 1.0, May 2013, Q-Chem Inc. Pittsburgh 
 -------------------------------------------------------
 -------------------------------------------------------
 OpenMP BLAS3 based DFT computing Module                
 Release: version 1.0, May 2013, Q-Chem Inc. Pittsburgh 
 -------------------------------------------------------
 A unrestricted SCF calculation will be
 performed using DIIS
 SCF converges when DIIS error is below 1.0e-06
 Alpha HF Exchange    Energy =  -6.96236722560206
 Beta HF Exchange     Energy =  -6.96236722560206
 DFT Correlation      Energy =  -2.73292958645653
 DFT Exchange         Energy = -54.10595818373826
 One-Electron (alpha) Energy = -914.42200079304189
 One-Electron (beta)  Energy = -914.42200079304189
 Total Coulomb        Energy = 692.56978104218786
 ---------------------------------------
  Cycle       Energy         DIIS error
 ---------------------------------------
    1    -917.1979773672      4.46e-02  
 Alpha HF Exchange    Energy =  -6.92536325479241
 Beta HF Exchange     Energy =  -6.92536325479241
 DFT Correlation      Energy =  -2.76982278430206
 DFT Exchange         Energy = -54.97794544533195
 One-Electron (alpha) Energy = -920.47670343106256
 One-Electron (beta)  Energy = -920.47670343106211
 Total Coulomb        Energy = 708.11851800792454
    2    -914.5935181954      5.12e-03  
 Alpha HF Exchange    Energy =  -6.82650548282348
 Beta HF Exchange     Energy =  -6.82650548282348
 DFT Correlation      Energy =  -2.72535858222489
 DFT Exchange         Energy = -54.15153170252104
 One-Electron (alpha) Energy = -911.69465144967739
 One-Electron (beta)  Energy = -911.69465144967739
 Total Coulomb        Energy = 689.62288573040144
    3    -914.4564530213      6.47e-03  
 Alpha HF Exchange    Energy =  -6.87901115535425
 Beta HF Exchange     Energy =  -6.87901115535425
 DFT Correlation      Energy =  -2.75013484700586
 DFT Exchange         Energy = -54.58758354119909
 One-Electron (alpha) Energy = -916.75848653074013
 One-Electron (beta)  Energy = -916.75848653074047
 Total Coulomb        Energy = 699.99130282378599
    4    -914.7815455385      4.82e-04  
 Alpha HF Exchange    Energy =  -6.88004071671836
 Beta HF Exchange     Energy =  -6.88004071671836
 DFT Correlation      Energy =  -2.75005914065688
 DFT Exchange         Energy = -54.59494934126134
 One-Electron (alpha) Energy = -916.75892610855317
 One-Electron (beta)  Energy = -916.75892610855317
 Total Coulomb        Energy = 699.99981533119740
    5    -914.7832614032      2.36e-04  
 Alpha HF Exchange    Energy =  -6.87895995536263
 Beta HF Exchange     Energy =  -6.87895995536263
 DFT Correlation      Energy =  -2.74976553949514
 DFT Exchange         Energy = -54.58655733806187
 One-Electron (alpha) Energy = -916.66575004775109
 One-Electron (beta)  Energy = -916.66575004775109
 Total Coulomb        Energy = 699.80214736986545
    6    -914.7837301159      8.09e-05  
 Alpha HF Exchange    Energy =  -6.87889859728852
 Beta HF Exchange     Energy =  -6.87889859728852
 DFT Correlation      Energy =  -2.74970274312402
 DFT Exchange         Energy = -54.58585423201143
 One-Electron (alpha) Energy = -916.66803177976692
 One-Electron (beta)  Energy = -916.66803177976669
 Total Coulomb        Energy = 699.80577253837055
    7    -914.7837797928      2.13e-05  
 Alpha HF Exchange    Energy =  -6.87901893148767
 Beta HF Exchange     Energy =  -6.87901893148767
 DFT Correlation      Energy =  -2.74976086028413
 DFT Exchange         Energy = -54.58684566538885
 One-Electron (alpha) Energy = -916.67946176131431
 One-Electron (beta)  Energy = -916.67946176131454
 Total Coulomb        Energy = 699.82991909276188
    8    -914.7837834205      3.17e-06  
 Alpha HF Exchange    Energy =  -6.87901749790638
 Beta HF Exchange     Energy =  -6.87901749790638
 DFT Correlation      Energy =  -2.74975926624139
 DFT Exchange         Energy = -54.58683235100020
 One-Electron (alpha) Energy = -916.67882842263248
 One-Electron (beta)  Energy = -916.67882842263236
 Total Coulomb        Energy = 699.82863454970072
    9    -914.7837835106      6.27e-07  Convergence criterion met
 ---------------------------------------
 SCF time:   CPU 28.15s  wall 2.00s 
<S^2> =         -0.000000000
 Alpha HF Exchange    Energy =  -6.87901749790638
 Beta HF Exchange     Energy =  -6.87901749790638
 DFT Correlation      Energy =  -2.74975926624139
 DFT Exchange         Energy = -54.58683235100020
 One-Electron (alpha) Energy = -916.67882842263248
 One-Electron (beta)  Energy = -916.67882842263236
 Total Coulomb        Energy = 699.82863454970072
 Nuclear repulsion Energy = 289.83986539805943
 SCF   energy in the final basis set =     -914.7837835106
 Total energy in the final basis set =     -914.7837835106
 
 --------------------------------------------------------------
 
                    Orbital Energies (a.u.)
 --------------------------------------------------------------
 
 Alpha MOs
 -- Occupied --
-88.873 -88.838 -10.224 -10.222 -10.191  -7.957  -7.935  -5.925
 -5.908  -5.902  -5.900  -5.897  -5.890  -0.973  -0.799  -0.705
 -0.620  -0.607  -0.543  -0.484  -0.471  -0.454  -0.412  -0.383
 -0.364  -0.327  -0.276  -0.235  -0.192
 -- Virtual --
  0.014   0.027   0.055   0.063   0.086   0.128   0.139   0.146
  0.152   0.188   0.192   0.218   0.320   0.353   0.371   0.385
  0.391   0.399   0.415   0.472   0.507   0.536   0.571   0.580
  0.628   0.639   0.677   0.697   0.722   0.728   0.755   0.761
  0.771   0.784   0.850   0.858   0.863   0.875   0.912   0.934
  0.986   1.004   1.036   1.048   1.119   1.164   1.209   1.382
  1.408   1.491   1.610   1.664   1.682   1.755   1.790   1.872
  1.986   2.010   2.045   2.072   2.080   2.093   2.097   2.130
  2.193   2.201   2.235   2.247   2.301   2.362   2.412   2.490
  2.507   2.584   2.614   2.670   2.721   2.741   2.773   2.805
  2.823   2.858   3.144   3.213   3.260   3.325   3.381   3.459
  3.537   3.984   4.039   4.277   4.541   4.703
 
 Beta MOs
 -- Occupied --
-88.873 -88.838 -10.224 -10.222 -10.191  -7.957  -7.935  -5.925
 -5.908  -5.902  -5.900  -5.897  -5.890  -0.973  -0.799  -0.705
 -0.620  -0.607  -0.543  -0.484  -0.471  -0.454  -0.412  -0.383
 -0.364  -0.327  -0.276  -0.235  -0.192
 -- Virtual --
  0.014   0.027   0.055   0.063   0.086   0.128   0.139   0.146
  0.152   0.188   0.192   0.218   0.320   0.353   0.371   0.385
  0.391   0.399   0.415   0.472   0.507   0.536   0.571   0.580
  0.628   0.639   0.677   0.697   0.722   0.728   0.755   0.761
  0.771   0.784   0.850   0.858   0.863   0.875   0.912   0.934
  0.986   1.004   1.036   1.048   1.119   1.164   1.209   1.382
  1.408   1.491   1.610   1.664   1.682   1.755   1.790   1.872
  1.986   2.010   2.045   2.072   2.080   2.093   2.097   2.130
  2.193   2.201   2.235   2.247   2.301   2.362   2.412   2.490
  2.507   2.584   2.614   2.670   2.721   2.741   2.773   2.805
  2.823   2.858   3.144   3.213   3.260   3.325   3.381   3.459
  3.537   3.984   4.039   4.277   4.541   4.703
 --------------------------------------------------------------
 
          Ground-State Mulliken Net Atomic Charges

     Atom                 Charge (a.u.)    Spin (a.u.)
  --------------------------------------------------------
      1 S                    -0.044687      -0.000000
      2 S                     0.188698      -0.000000
      3 C                    -0.246505      -0.000000
      4 C                    -0.328980       0.000000
      5 C                    -0.341775       0.000000
      6 H                     0.113172      -0.000000
      7 H                     0.115332       0.000000
      8 H                     0.133487       0.000000
      9 H                     0.129908      -0.000000
     10 H                     0.051942      -0.000000
     11 H                     0.180238      -0.000000
     12 H                     0.051076      -0.000000
     13 H                    -0.001906       0.000000
  --------------------------------------------------------
  Sum of atomic charges =     0.000000
  Sum of spin   charges =     0.000000

 -----------------------------------------------------------------
                    Cartesian Multipole Moments
 -----------------------------------------------------------------
    Charge (ESU x 10^10)
                 0.0000
    Dipole Moment (Debye)
         X      -0.2687      Y      -2.0211      Z       0.0754
       Tot       2.0403
    Quadrupole Moments (Debye-Ang)
        XX     -52.8857     XY      -3.7246     YY     -45.6052
        XZ      -0.9937     YZ       1.5557     ZZ     -46.6549
    Octopole Moments (Debye-Ang^2)
       XXX       6.8051    XXY     -14.5041    XYY      -6.4538
       YYY      -6.4484    XXZ       3.3452    XYZ      -3.6047
       YYZ      -2.9041    XZZ     -11.9633    YZZ      -3.5509
       ZZZ      -8.0665
    Hexadecapole Moments (Debye-Ang^3)
      XXXX   -1360.3717   XXXY     -65.6167   XXYY    -243.2993
      XYYY     -20.7635   YYYY    -128.5108   XXXZ       0.8588
      XXYZ       6.5743   XYYZ       2.3274   YYYZ      -0.2147
      XXZZ    -250.5438   XYZZ      -9.3313   YYZZ     -34.0660
      XZZZ       4.6613   YZZZ      -0.9302   ZZZZ     -84.5702
 -----------------------------------------------------------------
 Calculating analytic gradient of the SCF energy
 Gradient of SCF Energy
            1           2           3           4           5           6
    1   0.0000453   1.7716604   0.0000381  -0.0001020  -1.7717735  -0.0000637
    2  -0.0000800  -0.9282009  -0.0002224   0.0000036   0.9284340   0.0001013
    3  -0.0000650   0.0651851   0.0001999  -0.0000281  -0.0651625  -0.0000777
            7           8           9          10          11          12
    1  -0.0000327   0.0000320  -0.0000110   0.0000762   0.0000556   0.0000139
    2   0.0000612  -0.0000201  -0.0000156   0.0000261   0.0000257   0.0000328
    3  -0.0000343  -0.0000167   0.0000296  -0.0000183   0.0000523   0.0000494
           13
    1   0.0000612
    2  -0.0001457
    3  -0.0001138
 Max gradient component =       1.772E+00
 RMS gradient           =       4.532E-01
 Gradient time:  CPU 11.49 s  wall 1.02 s
 Geometry Optimization Parameters
   NAtoms,    NIC,     NZ,  NCons,   NDum,   NFix, NCnnct, MaxDiis
       13      82       0       1       0       0       0       0

 Cartesian Hessian Update
 Hessian Updated using BFGS Update


** CONSTRAINED OPTIMIZATION IN DELOCALIZED INTERNAL COORDINATES **
   Searching for a Minimum

   Optimization Cycle:  36

                       Coordinates (Angstroms)
     ATOM                X               Y               Z
      1  S         2.7964315951    0.3799071371    0.0725963093
      2  S        -2.4503448334    0.0937850814    0.0510763451
      3  C         0.0284714168    0.3804154103   -0.0597320863
      4  C         1.2110609116   -0.5666771994   -0.0556552132
      5  C        -1.4765284109   -0.4165134029    0.0868155893
      6  H         0.0529667739    1.0595705283    0.8017819579
      7  H        -0.0278859012    0.9845083341   -0.9729172925
      8  H         1.1427237967   -1.2489025274    0.7987606758
      9  H         1.2332564201   -1.1651245391   -0.9722835811
     10  H        -1.1262775705   -1.1915847781    0.8783147170
     11  H        -1.3017877735   -1.1036770804   -0.7633130710
     12  H         3.6271285625   -0.6814727908    0.1415067038
     13  H        -2.6010149871    0.8993658270    1.1719489459
   Point Group: c1    Number of degrees of freedom:    33


   Energy is   -914.783783511

              Constraints and their Current Values
                                        Value     Constraint
   Distance(Angs):        2   5             1.100000     1.100000
 Hessian Updated using BFGS Update

 32 Hessian modes will be used to form the next step
  Hessian Eigenvalues:
     0.002144    0.036454    0.045576    0.132157    0.143055    0.239559
     0.271405    0.305210    0.316058    0.404659    0.455302    0.474215
     0.518039    0.538953    0.695736    0.767311    0.799634    0.865542
     0.956308    1.010440    1.123278    1.225559    1.303522    1.369631
     1.527216    1.590305    1.789341    1.952867    2.038059    2.049589
     2.073233    2.073737

 Minimum Search - Taking Simple RFO Step
 Searching for Lamda that Minimizes Along All modes
 Value Taken    Lamda =   0.00000000
 Step Taken.  Stepsize is  0.002482

                             Maximum     Tolerance    Cnvgd?
         Gradient           0.000188      0.000300     YES
         Displacement       0.001233      0.001200      NO
         Energy change     -0.000001      0.000001     YES


                       Distance Matrix (Angstroms)
             S (  1)   S (  2)   C (  3)   C (  4)   C (  5)   H (  6)
   S (  2)  5.254616
   C (  3)  2.771122  2.497792
   C (  4)  1.850911  3.722028  1.515097
   C (  5)  4.346570  1.100000  1.709268  2.695549
   H (  6)  2.918947  2.786193  1.097296  2.172801  2.242623
   H (  7)  3.071711  2.776735  1.096363  2.186901  2.276941  1.778125
   H (  8)  2.432095  3.907939  2.152497  1.095503  2.839053  2.552769
   H (  9)  2.433601  4.025051  2.161701  1.094915  3.004171  3.080529
   H ( 10)  4.301908  2.022289  2.164385  2.593446  1.161844  2.542474
   H ( 11)  4.437924  1.848331  2.113562  2.665250  1.106999  2.994081
   H ( 12)  1.349568  6.127388  3.757451  2.426816  5.110823  4.030115
   H ( 13)  5.532707  1.388531  2.949669  4.264765  2.042920  2.684457
             H (  7)   H (  8)   H (  9)   H ( 10)   H ( 11)   H ( 12)
   H (  8)  3.081768
   H (  9)  2.492268  1.775335
   H ( 10)  3.060867  2.271119  2.998802
   H ( 11)  2.455052  2.904617  2.544385  1.653322
   H ( 12)  4.168521  2.631772  2.684226  4.837145  5.029033
   H ( 13)  3.350924  4.332425  4.854018  2.575489  3.073339  6.507736

 
 Final energy is   -914.783783510559     


 ******************************
 **  OPTIMIZATION CONVERGED  **
 ******************************

                       Coordinates (Angstroms)
     ATOM                X               Y               Z
      1  S         2.7964315951    0.3799071371    0.0725963093
      2  S        -2.4503448334    0.0937850814    0.0510763451
      3  C         0.0284714168    0.3804154103   -0.0597320863
      4  C         1.2110609116   -0.5666771994   -0.0556552132
      5  C        -1.4765284109   -0.4165134029    0.0868155893
      6  H         0.0529667739    1.0595705283    0.8017819579
      7  H        -0.0278859012    0.9845083341   -0.9729172925
      8  H         1.1427237967   -1.2489025274    0.7987606758
      9  H         1.2332564201   -1.1651245391   -0.9722835811
     10  H        -1.1262775705   -1.1915847781    0.8783147170
     11  H        -1.3017877735   -1.1036770804   -0.7633130710
     12  H         3.6271285625   -0.6814727908    0.1415067038
     13  H        -2.6010149871    0.8993658270    1.1719489459

Z-matrix Print:
$molecule
0 1
S 
C  1 1.100000
H  2 1.106999 1 113.750856
H  2 1.161844 1 126.761708 3 -114.366143 0
H  1 1.388531 2 109.814742 3 178.141272 0
C  2 1.709268 1 124.084324 3 114.162629 0
H  6 1.096363 2 106.442229 1 -52.204978 0
H  6 1.097296 2 103.940469 1 62.040542 0
C  6 1.515097 2 113.302105 1 -176.691586 0
H  9 1.094915 6 110.807696 2 69.138596 0
H  9 1.095503 6 110.041008 2 -50.595724 0
S  9 1.850911 6 110.429621 2 -170.393969 0
H  12 1.349568 9 97.385949 6 176.240406 0
$end

PES scan, value:    1.1000 energy: -914.7837835106
------- Summary of potential scan: ------ 
    1.1000      -914.7837835106
----------------------------------------- 
Archival summary:
1\1\hpc0250\JobtypUnspecified\ProcedureUnspecified\6-31G**\238\knomura\ThuMar1405:10:572019ThuMar1405:10:572019\0\\#,JobtypUnspecified,ProcedureUnspecified,6-31G**,\\0,1\S\C,1,1.1\H,2,1.107,1,113.751\H,2,1.16184,1,126.762,3,-114.366,0\H,1,1.38853,2,109.815,3,178.141,0\C,2,1.70927,1,124.084,3,114.163,0\H,6,1.09636,2,106.442,1,-52.205,0\H,6,1.0973,2,103.94,1,62.0405,0\C,6,1.5151,2,113.302,1,-176.692,0\H,9,1.09492,6,110.808,2,69.1386,0\H,9,1.0955,6,110.041,2,-50.5957,0\S,9,1.85091,6,110.43,2,-170.394,0\H,12,1.34957,9,97.3859,6,176.24,0\\\@

 Total job time:  140.93s(wall), 1628.35s(cpu) 
 Thu Mar 14 05:10:57 2019

        *************************************************************
        *                                                           *
        *  Thank you very much for using Q-Chem.  Have a nice day.  *
        *                                                           *
        *************************************************************


