
Running Job 1 of 1 thiol/04/C-S.xyz.data/inputs/bond_singlet_2.3.in
qchem thiol/04/C-S.xyz.data/inputs/bond_singlet_2.3.in_4327.0 /staging/scratch/2868767/qchem4327/ 1
/usr/usc/qchem/5.1.1/exe/qcprog.exe_s thiol/04/C-S.xyz.data/inputs/bond_singlet_2.3.in_4327.0 /staging/scratch/2868767/qchem4327/
Check license passed

                  Welcome to Q-Chem
     A Quantum Leap Into The Future Of Chemistry


 Q-Chem 5.1, Q-Chem, Inc., Pleasanton, CA (2018)

 Yihan Shao,  Zhengting Gan,  E. Epifanovsky,  A. T. B. Gilbert,  M. Wormit,  
 J. Kussmann,  A. W. Lange,  A. Behn,  Jia Deng,  Xintian Feng,  D. Ghosh,  
 M. Goldey,  P. R. Horn,  L. D. Jacobson,  I. Kaliman,  T. Kus,  A. Landau,  
 Jie Liu,  E. I. Proynov,  R. M. Richard,  R. P. Steele,  E. J. Sundstrom,  
 H. L. Woodcock III,  P. M. Zimmerman,  D. Zuev,  B. Albrecht,  E. Alguire,  
 S. A. Baeppler,  D. Barton,  Z. Benda,  Y. A. Bernard,  E. J. Berquist,  
 K. B. Bravaya,  H. Burton,  D. Casanova,  Chun-Min Chang,  Yunqing Chen,  
 A. Chien,  K. D. Closser,  M. P. Coons,  S. Coriani,  S. Dasgupta,  
 A. L. Dempwolff,  M. Diedenhofen,  Hainam Do,  R. G. Edgar,  Po-Tung Fang,  
 S. Faraji,  S. Fatehi,  Qingguo Feng,  K. D. Fenk,  J. Fosso-Tande,  
 Qinghui Ge,  A. Ghysels,  G. Gidofalvi,  J. Gomes,  J. Gonthier,  A. Gunina,  
 D. Hait,  M. W. D. Hanson-Heine,  P. H. P. Harbach,  A. W. Hauser,  
 J. E. Herr,  E. G. Hohenstein,  Z. C. Holden,  Kerwin Hui,  B. C. Huynh,  
 T.-C. Jagau,  Hyunjun Ji,  B. Kaduk,  K. Khistyaev,  Jaehoon Kim,  
 P. Klunzinger,  K. Koh,  D. Kosenkov,  L. Koulias,  T. Kowalczyk,  
 C. M. Krauter,  A. Kunitsa,  Ka Un Lao,  A. Laurent,  K. V. Lawler,  
 Joonho Lee,  D. Lefrancois,  S. Lehtola,  D. S. Levine,  Yi-Pei Li,  
 You-Sheng Lin,  Fenglai Liu,  E. Livshits,  A. Luenser,  P. Manohar,  
 E. Mansoor,  S. F. Manzer,  Shan-Ping Mao,  Yuezhi Mao,  N. Mardirossian,  
 A. V. Marenich,  T. Markovich,  L. A. Martinez-Martinez,  S. A. Maurer,  
 N. J. Mayhall,  S. C. McKenzie,  J.-M. Mewes,  A. F. Morrison,  
 J. W. Mullinax,  K. Nanda,  T. S. Nguyen-Beck,  R. Olivares-Amaya,  
 J. A. Parkhill,  T. M. Perrine,  F. Plasser,  P. Pokhilko,  S. Prager,  
 A. Prociuk,  E. Ramos,  D. R. Rehn,  F. Rob,  M. Schneider,  N. Sergueev,  
 S. M. Sharada,  S. Sharma,  D. W. Small,  T. Stauch,  T. Stein,  
 Yu-Chuan Su,  A. J. W. Thom,  A. Tkatchenko,  T. Tsuchimochi,  N. M. Tubman,  
 L. Vogt,  M. L. Vidal,  O. Vydrov,  M. A. Watson,  J. Wenzel,  
 M. de Wergifosse,  T. A. Wesolowski,  A. White,  J. Witte,  A. Yamada,  
 Jun Yang,  K. Yao,  S. Yeganeh,  S. R. Yost,  Zhi-Qiang You,  A. Zech,  
 Igor Ying Zhang,  Xing Zhang,  Yan Zhao,  Ying Zhu,  B. R. Brooks,  
 G. K. L. Chan,  C. J. Cramer,  M. S. Gordon,  W. J. Hehre,  A. Klamt,  
 M. W. Schmidt,  C. D. Sherrill,  D. G. Truhlar,  A. Aspuru-Guzik,  R. Baer,  
 A. T. Bell,  N. A. Besley,  Jeng-Da Chai,  A. E. DePrince, III,  
 R. A. DiStasio Jr.,  A. Dreuw,  B. D. Dunietz,  T. R. Furlani,  
 Chao-Ping Hsu,  Yousung Jung,  Jing Kong,  D. S. Lambrecht,  WanZhen Liang,  
 C. Ochsenfeld,  V. A. Rassolov,  L. V. Slipchenko,  J. E. Subotnik,  
 T. Van Voorhis,  J. M. Herbert,  A. I. Krylov,  P. M. W. Gill,  M. Head-Gordon

 Contributors to earlier versions of Q-Chem not listed above: 
 R. D. Adamson,  B. Austin,  J. Baker,  G. J. O. Beran,  K. Brandhorst,  
 S. T. Brown,  E. F. C. Byrd,  A. K. Chakraborty,  C.-L. Cheng,  
 Siu Hung Chien,  D. M. Chipman,  D. L. Crittenden,  H. Dachsel,  
 R. J. Doerksen,  A. D. Dutoi,  L. Fusti-Molnar,  W. A. Goddard III,  
 A. Golubeva-Zadorozhnaya,  S. R. Gwaltney,  G. Hawkins,  A. Heyden,  
 S. Hirata,  G. Kedziora,  F. J. Keil,  C. Kelley,  Jihan Kim,  R. A. King,  
 R. Z. Khaliullin,  P. P. Korambath,  W. Kurlancheek,  A. M. Lee,  M. S. Lee,  
 S. V. Levchenko,  Ching Yeh Lin,  D. Liotard,  R. C. Lochan,  I. Lotan,  
 P. E. Maslen,  N. Nair,  D. P. O'Neill,  D. Neuhauser,  E. Neuscamman,  
 C. M. Oana,  R. Olson,  B. Peters,  R. Peverati,  P. A. Pieniazek,  
 Y. M. Rhee,  J. Ritchie,  M. A. Rohrdanz,  E. Rosta,  N. J. Russ,  
 H. F. Schaefer III,  N. E. Schultz,  N. Shenvi,  A. C. Simmonett,  A. Sodt,  
 D. Stuck,  K. S. Thanthiriwatte,  V. Vanovschi,  Tao Wang,  A. Warshel,  
 C. F. Williams,  Q. Wu,  X. Xu,  W. Zhang

 Please cite Q-Chem as follows:
 Y. Shao et al., Mol. Phys. 113, 184-215 (2015)
 DOI: 10.1080/00268976.2014.952696

 Q-Chem 5.1.1 for Intel X86 EM64T Linux

 Parts of Q-Chem use Armadillo 8.300.2 (Tropical Shenanigans).
 http://arma.sourceforge.net/

 Q-Chem begins on Thu Mar 14 05:38:10 2019  

Host: 
0

     Scratch files written to /staging/scratch/2868767/qchem4327//
 Aug318 |scratch|qcdevops|jenkins|workspace|build_RNUM 6013   
Processing $rem in /usr/usc/qchem/5.1.1/config/preferences.
 MEM_TOTAL  2000 
Input Ideriv = 2
Curr. Ideriv = -1
Max.  Ideriv = 2

Checking the input file for inconsistencies... 	...done.

--------------------------------------------------------------
User input:
--------------------------------------------------------------

$comment
potential surface scanner
$end

$rem
JOBTYPE  PES_SCAN
UNRESTRICTED TRUE
SYM_IGNORE  TRUE
GEOM_OPT_MAX_CYCLES 400
SCF_MAX_CYCLES 400
METHOD   B3LYP
BASIS   6-31G**
PDB_PRINT 2
SCF_CONVERGENCE 6
THRESH 14
SCF_PRINT 1
$end
$molecule
0 1
S 2.797687 0.480841 -0.006339
S -3.001966 0.590557 -0.009451
C 0.045814 0.232640 0.009751
C 1.319269 -0.629220 -0.010798
C -1.182936 -0.646589 0.015011
H 0.056884 0.872760 0.898153
H 0.029273 0.889350 -0.865036
H 1.358360 -1.278969 0.868152
H 1.343882 -1.254230 -0.907875
H -1.323688 -1.254107 0.907173
H -1.336723 -1.228526 -0.892499
H 3.726061 -0.496342 -0.014990
H -2.723719 1.145435 1.187647
$end
$scan
stre 2 5 2.300000 2.301000 0.100000
$end
--------------------------------------------------------------
 ----------------------------------------------------------------
             Standard Nuclear Orientation (Angstroms)
    I     Atom           X                Y                Z
 ----------------------------------------------------------------
    1      S       2.7976870000     0.4808410000    -0.0063390000
    2      S      -3.0019660000     0.5905570000    -0.0094510000
    3      C       0.0458140000     0.2326400000     0.0097510000
    4      C       1.3192690000    -0.6292200000    -0.0107980000
    5      C      -1.1829360000    -0.6465890000     0.0150110000
    6      H       0.0568840000     0.8727600000     0.8981530000
    7      H       0.0292730000     0.8893500000    -0.8650360000
    8      H       1.3583600000    -1.2789690000     0.8681520000
    9      H       1.3438820000    -1.2542300000    -0.9078750000
   10      H      -1.3236880000    -1.2541070000     0.9071730000
   11      H      -1.3367230000    -1.2285260000    -0.8924990000
   12      H       3.7260610000    -0.4963420000    -0.0149900000
   13      H      -2.7237190000     1.1454350000     1.1876470000
 ----------------------------------------------------------------
 Nuclear Repulsion Energy =   256.4168140095 hartrees
 There are       29 alpha and       29 beta electrons
 Requested basis set is 6-31G(d,p)
 There are 46 shells and 123 basis functions

 Total QAlloc Memory Limit   2000 MB
 Mega-Array Size       188 MB
 MEM_STATIC part       192 MB
A total of 1 constraints
  
            1
    1   1.0100000
    2   2.0100000
    3   5.0100000
    4   2.3000000
    5   2.3010000
    6   0.1000000
    7   0.0000000
    8   0.0000000
    9   0.0000000
   10   0.0000000

                       Distance Matrix (Angstroms)
             S (  1)   S (  2)   C (  3)   C (  4)   C (  5)   H (  6)
   S (  2)  5.800692
   C (  3)  2.763090  3.068784
   C (  4)  1.848777  4.490092  1.537827
   C (  5)  4.137259  2.200000  1.510926  2.502398
   H (  6)  2.912680  3.203115  1.095050  2.162349  2.150701
   H (  7)  2.927175  3.163813  1.093981  2.167918  2.145470  1.763483
   H (  8)  2.435842  4.824703  2.178208  1.093734  2.754258  2.514891
   H (  9)  2.436552  4.805913  2.176649  1.093613  2.757853  3.072814
   H ( 10)  4.564020  2.656991  2.211633  2.866771  1.088505  2.535670
   H ( 11)  4.560763  2.619517  2.204647  2.861967  1.088979  3.092568
   H ( 12)  1.347902  6.815257  3.751832  2.410461  4.911387  4.021334
   H ( 13)  5.687988  1.348464  3.144988  4.575087  2.638264  2.808899
             H (  7)   H (  8)   H (  9)   H ( 10)   H ( 11)   H ( 12)
   H (  8)  3.077665
   H (  9)  2.514949  1.776258
   H ( 10)  3.092836  2.682447  3.226504
   H ( 11)  2.520337  3.219613  2.680772  1.799901
   H ( 12)  4.038436  2.645459  2.654508  5.188888  5.190173
   H ( 13)  3.443552  4.758485  5.166719  2.792231  3.447674  6.763241

 
 A cutoff of  1.0D-14 yielded    990 shell pairs
 There are      7185 function pairs
 
 -------------------------------------------------------
 OpenMP Integral Computing Module                       
 Release: version 1.0, May 2013, Q-Chem Inc. Pittsburgh 
 -------------------------------------------------------
 Integral Job Info:
 Integral job number is                      11
 Integral operator is                         1
 short-range coefficients                     0
 long-range coefficients              100000000
 Omega coefficients                           0
 if combine SR and LR in K                    0
 Integral screening is                        0
 Integral computing path is                   2
 max size of driver memory is            800000
 size of driver memory is                593474
 size of scratch memory is             15267112
 max col of scratch BK array               1296
 max len of scratch array in speh3          155
 max len of scratch index in speh4           18
 max int batch size is                      520
 min int batch size is                       52
 fixed nKL is                                52
 max L of basis functions is                  2
 order of int derivative is                   0
 number of shells is                         46
 number of basis is                         123
 number of cartesian basis is               123
 number of contracted shell pairs           990
 number of primitive shell pairs           3742
 maxK2 (contraction) of shell pair           36
 max number of K2 of shell pair               1
 max number of CS2 of shell pair             83
 max number of PS2 of shell pair            330
 mem total for path MDJ                  516588
 -------------------------------------------------------
 Smallest overlap matrix eigenvalue = 5.27E-03

 Scale SEOQF with 1.000000e-01/1.000000e+00/1.000000e+00

 Standard Electronic Orientation quadrupole field applied
 Nucleus-field energy     =     0.0000000218 hartrees
 Guess from superposition of atomic densities
 Warning:  Energy on first SCF cycle will be non-variational
 SAD guess density has 58.000000 electrons

 -----------------------------------------------------------------------
  General SCF calculation program by
  Eric Jon Sundstrom, Paul Horn, Yuezhi Mao, Dmitri Zuev, Alec White,
  David Stuck, Shaama M.S., Shane Yost, Joonho Lee, David Small,
  Daniel Levine, Susi Lehtola, Hugh Burton, Evgeny Epifanovsky
 -----------------------------------------------------------------------
 Exchange:     0.2000 Hartree-Fock + 0.0800 Slater + 0.7200 B88
 Correlation:  0.1900 VWN1RPA + 0.8100 LYP
 Using SG-1 standard quadrature grid
 using 12 threads for integral computing
 -------------------------------------------------------
 OpenMP Integral computing Module                
 Release: version 1.0, May 2013, Q-Chem Inc. Pittsburgh 
 -------------------------------------------------------
 -------------------------------------------------------
 OpenMP BLAS3 based DFT computing Module                
 Release: version 1.0, May 2013, Q-Chem Inc. Pittsburgh 
 -------------------------------------------------------
 A unrestricted SCF calculation will be
 performed using DIIS
 SCF converges when DIIS error is below 1.0e-06
 Alpha HF Exchange    Energy =  -6.84011597550094
 Beta HF Exchange     Energy =  -6.84011597550094
 DFT Correlation      Energy =  -2.70601210968690
 DFT Exchange         Energy = -53.83970562670032
 One-Electron (alpha) Energy = -882.37169729723223
 One-Electron (beta)  Energy = -882.37169729723223
 Total Coulomb        Energy = 662.62716752482800
 ---------------------------------------
  Cycle       Energy         DIIS error
 ---------------------------------------
    1    -915.9253627258      2.67e-02  
 Alpha HF Exchange    Energy =  -6.85698997674886
 Beta HF Exchange     Energy =  -6.85698997674885
 DFT Correlation      Energy =  -2.73200730785111
 DFT Exchange         Energy = -54.41825261669551
 One-Electron (alpha) Energy = -886.22408380441846
 One-Electron (beta)  Energy = -886.22408380441811
 Total Coulomb        Energy = 671.44834770433829
    2    -915.4472457513      2.47e-03  
 Alpha HF Exchange    Energy =  -6.80713190731576
 Beta HF Exchange     Energy =  -6.80713190731576
 DFT Correlation      Energy =  -2.70850240372467
 DFT Exchange         Energy = -53.99277704096644
 One-Electron (alpha) Energy = -882.32652757662720
 One-Electron (beta)  Energy = -882.32652757662731
 Total Coulomb        Energy = 663.12148465153871
    3    -915.4302997298      2.89e-03  
 Alpha HF Exchange    Energy =  -6.82898874590833
 Beta HF Exchange     Energy =  -6.82898874590833
 DFT Correlation      Energy =  -2.72013320741275
 DFT Exchange         Energy = -54.18065880298452
 One-Electron (alpha) Energy = -884.19425762579999
 One-Electron (beta)  Energy = -884.19425762580022
 Total Coulomb        Energy = 667.03267592720601
    4    -915.4977947954      5.74e-04  
 Alpha HF Exchange    Energy =  -6.83150170595318
 Beta HF Exchange     Energy =  -6.83150170595319
 DFT Correlation      Energy =  -2.72045267810119
 DFT Exchange         Energy = -54.19868846462920
 One-Electron (alpha) Energy = -884.35402217763624
 One-Electron (beta)  Energy = -884.35402217763624
 Total Coulomb        Energy = 667.37265541562033
    5    -915.5007194631      1.89e-04  
 Alpha HF Exchange    Energy =  -6.83097380421218
 Beta HF Exchange     Energy =  -6.83097380421218
 DFT Correlation      Energy =  -2.72033521471863
 DFT Exchange         Energy = -54.19496772533087
 One-Electron (alpha) Energy = -884.29780896715295
 One-Electron (beta)  Energy = -884.29780896715226
 Total Coulomb        Energy = 667.25504116814773
    6    -915.5010132834      6.27e-05  
 Alpha HF Exchange    Energy =  -6.83082626137162
 Beta HF Exchange     Energy =  -6.83082626137161
 DFT Correlation      Energy =  -2.72027532958967
 DFT Exchange         Energy = -54.19363419635005
 One-Electron (alpha) Energy = -884.28921524184364
 One-Electron (beta)  Energy = -884.28921524184375
 Total Coulomb        Energy = 667.23613507709638
    7    -915.5010434240      1.53e-05  
 Alpha HF Exchange    Energy =  -6.83086950474481
 Beta HF Exchange     Energy =  -6.83086950474480
 DFT Correlation      Energy =  -2.72029348107247
 DFT Exchange         Energy = -54.19397749235001
 One-Electron (alpha) Energy = -884.29416710304474
 One-Electron (beta)  Energy = -884.29416710304463
 Total Coulomb        Energy = 667.24648497362352
    8    -915.5010451842      3.44e-06  
 Alpha HF Exchange    Energy =  -6.83087943418091
 Beta HF Exchange     Energy =  -6.83087943418091
 DFT Correlation      Energy =  -2.72029688563827
 DFT Exchange         Energy = -54.19405587358134
 One-Electron (alpha) Energy = -884.29477360161093
 One-Electron (beta)  Energy = -884.29477360161104
 Total Coulomb        Energy = 667.24779952955339
    9    -915.5010452700      7.51e-07  Convergence criterion met
 ---------------------------------------
 SCF time:   CPU 28.43s  wall 2.00s 
<S^2> =         -0.000000000
 Alpha HF Exchange    Energy =  -6.83087943418091
 Beta HF Exchange     Energy =  -6.83087943418091
 DFT Correlation      Energy =  -2.72029688563827
 DFT Exchange         Energy = -54.19405587358134
 One-Electron (alpha) Energy = -884.29477360161093
 One-Electron (beta)  Energy = -884.29477360161104
 Total Coulomb        Energy = 667.24779952955339
 Nuclear repulsion Energy = 256.41681403122629
 SCF   energy in the final basis set =     -915.5010452700
 Total energy in the final basis set =     -915.5010452700
 
 --------------------------------------------------------------
 
                    Orbital Energies (a.u.)
 --------------------------------------------------------------
 
 Alpha MOs
 -- Occupied --
-88.882 -88.875 -10.249 -10.234 -10.212  -7.944  -7.935  -5.909
 -5.906  -5.900  -5.899  -5.897  -5.889  -0.827  -0.759  -0.700
 -0.647  -0.605  -0.497  -0.459  -0.433  -0.415  -0.388  -0.379
 -0.363  -0.337  -0.301  -0.245  -0.238
 -- Virtual --
 -0.044   0.022   0.052   0.069   0.096   0.116   0.136   0.141
  0.159   0.183   0.195   0.232   0.327   0.349   0.359   0.365
  0.379   0.383   0.391   0.408   0.499   0.511   0.521   0.549
  0.577   0.615   0.649   0.674   0.693   0.730   0.744   0.766
  0.779   0.830   0.835   0.845   0.861   0.874   0.878   0.894
  0.904   0.917   0.935   0.999   1.110   1.117   1.147   1.159
  1.316   1.361   1.379   1.580   1.620   1.654   1.658   1.809
  1.838   1.912   2.007   2.020   2.059   2.081   2.086   2.092
  2.103   2.116   2.201   2.217   2.224   2.287   2.299   2.409
  2.479   2.539   2.611   2.618   2.693   2.738   2.750   2.786
  2.801   2.805   2.863   3.192   3.238   3.326   3.337   3.470
  3.517   3.968   3.978   4.232   4.410   4.608
 
 Beta MOs
 -- Occupied --
-88.882 -88.875 -10.249 -10.234 -10.212  -7.944  -7.935  -5.909
 -5.906  -5.900  -5.899  -5.897  -5.889  -0.827  -0.759  -0.700
 -0.647  -0.605  -0.497  -0.459  -0.433  -0.415  -0.388  -0.379
 -0.363  -0.337  -0.301  -0.245  -0.238
 -- Virtual --
 -0.044   0.022   0.052   0.069   0.096   0.116   0.136   0.141
  0.159   0.183   0.195   0.232   0.327   0.349   0.359   0.365
  0.379   0.383   0.391   0.408   0.499   0.511   0.521   0.549
  0.577   0.615   0.649   0.674   0.693   0.730   0.744   0.766
  0.779   0.830   0.835   0.845   0.861   0.874   0.878   0.894
  0.904   0.917   0.935   0.999   1.110   1.117   1.147   1.159
  1.316   1.361   1.379   1.580   1.620   1.654   1.658   1.809
  1.838   1.912   2.007   2.020   2.059   2.081   2.086   2.092
  2.103   2.116   2.201   2.217   2.224   2.287   2.299   2.409
  2.479   2.539   2.611   2.618   2.693   2.738   2.750   2.786
  2.801   2.805   2.863   3.192   3.238   3.326   3.337   3.470
  3.517   3.968   3.978   4.232   4.410   4.608
 --------------------------------------------------------------
 
          Ground-State Mulliken Net Atomic Charges

     Atom                 Charge (a.u.)    Spin (a.u.)
  --------------------------------------------------------
      1 S                    -0.036878       0.000000
      2 S                    -0.150606      -0.000000
      3 C                    -0.174270       0.000000
      4 C                    -0.333280      -0.000000
      5 C                    -0.278163      -0.000000
      6 H                     0.128544      -0.000000
      7 H                     0.145142      -0.000000
      8 H                     0.138243      -0.000000
      9 H                     0.140274      -0.000000
     10 H                     0.150432      -0.000000
     11 H                     0.150378      -0.000000
     12 H                     0.059341      -0.000000
     13 H                     0.060844       0.000000
  --------------------------------------------------------
  Sum of atomic charges =    -0.000000
  Sum of spin   charges =    -0.000000

 -----------------------------------------------------------------
                    Cartesian Multipole Moments
 -----------------------------------------------------------------
    Charge (ESU x 10^10)
                -0.0000
    Dipole Moment (Debye)
         X       1.4562      Y      -2.2077      Z       0.7529
       Tot       2.7498
    Quadrupole Moments (Debye-Ang)
        XX     -55.6020     XY      -3.6532     YY     -46.5194
        XZ      -2.0031     YZ       1.9013     ZZ     -46.6529
    Octopole Moments (Debye-Ang^2)
       XXX      47.6824    XXY     -18.2387    XYY       0.6346
       YYY     -23.0504    XXZ       3.5554    XYZ      -5.3063
       YYZ       1.5455    XZZ      -6.2307    YZZ      -8.6979
       ZZZ      -1.2830
    Hexadecapole Moments (Debye-Ang^3)
      XXXX   -1633.3660   XXXY     -19.3479   XXYY    -293.5855
      XYYY      28.0396   YYYY    -171.1134   XXXZ      -2.5114
      XXYZ      14.8530   XYYZ      -3.9518   YYYZ       0.7599
      XXZZ    -288.1281   XYZZ       4.0858   YYZZ     -39.0641
      XZZZ       4.9319   YZZZ      -0.0535   ZZZZ     -82.0552
 -----------------------------------------------------------------
 Calculating analytic gradient of the SCF energy
 Gradient of SCF Energy
            1           2           3           4           5           6
    1   0.0000092  -0.0410237  -0.0000389   0.0000096   0.0410553  -0.0000020
    2  -0.0000124   0.0278636   0.0000076  -0.0000116  -0.0279002   0.0000140
    3   0.0000028  -0.0005251   0.0000183   0.0000186   0.0005567  -0.0000107
            7           8           9          10          11          12
    1   0.0000262  -0.0000042  -0.0000026  -0.0000254  -0.0000218  -0.0000042
    2  -0.0000193   0.0000082  -0.0000117  -0.0000117   0.0000378  -0.0000162
    3  -0.0000175   0.0000120   0.0000087  -0.0000180  -0.0000217   0.0000054
           13
    1   0.0000225
    2   0.0000519
    3  -0.0000294
 Max gradient component =       4.106E-02
 RMS gradient           =       1.124E-02
 Gradient time:  CPU 11.09 s  wall 0.98 s
 Geometry Optimization Parameters
   NAtoms,    NIC,     NZ,  NCons,   NDum,   NFix, NCnnct, MaxDiis
       13      82       0       1       0       0       0       0


** CONSTRAINED OPTIMIZATION IN DELOCALIZED INTERNAL COORDINATES **
   Searching for a Minimum

   Optimization Cycle:   1

                       Coordinates (Angstroms)
     ATOM                X               Y               Z
      1  S         2.7976870000    0.4808410000   -0.0063390000
      2  S        -3.0019660000    0.5905570000   -0.0094510000
      3  C         0.0458140000    0.2326400000    0.0097510000
      4  C         1.3192690000   -0.6292200000   -0.0107980000
      5  C        -1.1829360000   -0.6465890000    0.0150110000
      6  H         0.0568840000    0.8727600000    0.8981530000
      7  H         0.0292730000    0.8893500000   -0.8650360000
      8  H         1.3583600000   -1.2789690000    0.8681520000
      9  H         1.3438820000   -1.2542300000   -0.9078750000
     10  H        -1.3236880000   -1.2541070000    0.9071730000
     11  H        -1.3367230000   -1.2285260000   -0.8924990000
     12  H         3.7260610000   -0.4963420000   -0.0149900000
     13  H        -2.7237190000    1.1454350000    1.1876470000
   Point Group: c1    Number of degrees of freedom:    33


   Energy is   -915.501045270

              Constraints and their Current Values
                                        Value     Constraint
   Distance(Angs):        2   5             2.200000     2.300000

 Attempting to Generate Delocalized Internal Coordinates

   Using Lagrange Multiplier Algorithm


 34 Hessian modes will be used to form the next step
  Hessian Eigenvalues:
    -0.953754    0.045000    0.045000    0.045000    0.045000    0.070041
     0.076394    0.078826    0.079469    0.079577    0.084731    0.100692
     0.123562    0.129862    0.129867    0.142214    0.142434    0.160000
     0.160000    0.219141    0.220569    0.220574    0.226224    0.257565
     0.258000    0.287123    0.312576    0.342355    0.343566    0.343846
     0.343984    0.349309    0.349860    1.048489

 Minimum Search - Taking P-RFO Step
 Searching for Lamda that Maximizes Along the Constraint modes Only
 Value Taken    Lamda =   0.02972441
 Searching for Lamda that Minimizes Along All other modes
 Value Taken    Lamda =  -0.00845575
 Step Taken.  Stepsize is  0.184718

                             Maximum     Tolerance    Cnvgd?
         Gradient            0.188973       0.000300      NO
         Displacement        0.184712       0.001200      NO
         Energy change     *********       0.000001      NO


 New Cartesian Coordinates Obtained by Inverse Iteration

 Displacement from previous Coordinates is:  0.235853
 ----------------------------------------------------------------
             Standard Nuclear Orientation (Angstroms)
    I     Atom           X                Y                Z
 ----------------------------------------------------------------
    1      S       2.8083592113     0.4792141316    -0.0083515819
    2      S      -3.0724800194     0.6296996343    -0.0042116851
    3      C       0.0571686625     0.2243833381     0.0110501268
    4      C       1.3326132001    -0.6343852566    -0.0135416727
    5      C      -1.1694555121    -0.6578265924     0.0159303440
    6      H       0.0679643924     0.8623063692     0.9010321739
    7      H       0.0377243921     0.8832540646    -0.8620496199
    8      H       1.3745234563    -1.2863109744     0.8636692512
    9      H       1.3574096162    -1.2570384555    -0.9122512718
   10      H      -1.3073974150    -1.2677405205     0.9068988605
   11      H      -1.3229284808    -1.2381080868    -0.8926870734
   12      H       3.7391024642    -0.4956775286    -0.0207792201
   13      H      -2.7944059677     1.1818298769     1.1941903684
 ----------------------------------------------------------------
 Nuclear Repulsion Energy =   253.8874971062 hartrees
 There are       29 alpha and       29 beta electrons

                       Distance Matrix (Angstroms)
             S (  1)   S (  2)   C (  3)   C (  4)   C (  5)   H (  6)
   S (  2)  5.882766
   C (  3)  2.763035  3.155822
   C (  4)  1.848772  4.582886  1.537806
   C (  5)  4.137205  2.297745  1.510935  2.502352
   H (  6)  2.912645  3.276578  1.095048  2.162375  2.150678
   H (  7)  2.927194  3.236286  1.093980  2.167933  2.145475  1.763466
   H (  8)  2.435854  4.919365  2.178206  1.093738  2.754176  2.514965
   H (  9)  2.436568  4.899820  2.176631  1.093614  2.757829  3.072831
   H ( 10)  4.563878  2.746983  2.211565  2.866706  1.088507  2.535499
   H ( 11)  4.560568  2.709063  2.204607  2.861692  1.088975  3.092532
   H ( 12)  1.347906  6.903941  3.751818  2.410494  4.911373  4.021332
   H ( 13)  5.773279  1.348459  3.232337  4.667927  2.722700  2.895030
             H (  7)   H (  8)   H (  9)   H ( 10)   H ( 11)   H ( 12)
   H (  8)  3.077686
   H (  9)  2.514944  1.776244
   H ( 10)  3.092783  2.682334  3.226549
   H ( 11)  2.520415  3.219217  2.680476  1.799897
   H ( 12)  4.038488  2.645484  2.654591  5.188818  5.189950
   H ( 13)  3.512582  4.856021  5.255735  2.879952  3.518011  6.853971

 
 Applying Cartesian multipole field
    Component          Value
    ---------          -----
     (2,0,0)        1.00000E-11
     (0,2,0)        2.00000E-10
     (0,0,2)       -3.00000E-10
 Nucleus-field energy     =     0.0000000227 hartrees
 Requested basis set is 6-31G(d,p)
 There are 46 shells and 123 basis functions
 A cutoff of  1.0D-14 yielded    989 shell pairs
 There are      7169 function pairs
 Smallest overlap matrix eigenvalue = 5.35E-03
 Guess from superposition of atomic densities
 Warning:  Energy on first SCF cycle will be non-variational
 SAD guess density has 58.000000 electrons

 -----------------------------------------------------------------------
  General SCF calculation program by
  Eric Jon Sundstrom, Paul Horn, Yuezhi Mao, Dmitri Zuev, Alec White,
  David Stuck, Shaama M.S., Shane Yost, Joonho Lee, David Small,
  Daniel Levine, Susi Lehtola, Hugh Burton, Evgeny Epifanovsky
 -----------------------------------------------------------------------
 Exchange:     0.2000 Hartree-Fock + 0.0800 Slater + 0.7200 B88
 Correlation:  0.1900 VWN1RPA + 0.8100 LYP
 Using SG-1 standard quadrature grid
 using 12 threads for integral computing
 -------------------------------------------------------
 OpenMP Integral computing Module                
 Release: version 1.0, May 2013, Q-Chem Inc. Pittsburgh 
 -------------------------------------------------------
 -------------------------------------------------------
 OpenMP BLAS3 based DFT computing Module                
 Release: version 1.0, May 2013, Q-Chem Inc. Pittsburgh 
 -------------------------------------------------------
 A unrestricted SCF calculation will be
 performed using DIIS
 SCF converges when DIIS error is below 1.0e-06
 Alpha HF Exchange    Energy =  -6.83604361026546
 Beta HF Exchange     Energy =  -6.83604361026546
 DFT Correlation      Energy =  -2.70424384161546
 DFT Exchange         Energy = -53.83197563185270
 One-Electron (alpha) Energy = -879.84738946191521
 One-Electron (beta)  Energy = -879.84738946191521
 Total Coulomb        Energy = 660.12500592319634
 ---------------------------------------
  Cycle       Energy         DIIS error
 ---------------------------------------
    1    -915.8905825657      2.65e-02  
 Alpha HF Exchange    Energy =  -6.85475753835713
 Beta HF Exchange     Energy =  -6.85475753835714
 DFT Correlation      Energy =  -2.73013213514600
 DFT Exchange         Energy = -54.40503023879184
 One-Electron (alpha) Energy = -883.65823367732014
 One-Electron (beta)  Energy = -883.65823367732037
 Total Coulomb        Energy = 668.83420965420146
    2    -915.4394380222      2.42e-03  
 Alpha HF Exchange    Energy =  -6.80533496023894
 Beta HF Exchange     Energy =  -6.80533496023893
 DFT Correlation      Energy =  -2.70699918800823
 DFT Exchange         Energy = -53.98331577958723
 One-Electron (alpha) Energy = -879.81437938708211
 One-Electron (beta)  Energy = -879.81437938708143
 Total Coulomb        Energy = 660.61662419756567
    3    -915.4256223357      2.79e-03  
 Alpha HF Exchange    Energy =  -6.82702166909047
 Beta HF Exchange     Energy =  -6.82702166909046
 DFT Correlation      Energy =  -2.71847338449886
 DFT Exchange         Energy = -54.16988062321121
 One-Electron (alpha) Energy = -881.65789262759404
 One-Electron (beta)  Energy = -881.65789262759313
 Total Coulomb        Energy = 664.48284794536403
    4    -915.4878375268      6.01e-04  
 Alpha HF Exchange    Energy =  -6.82944370602734
 Beta HF Exchange     Energy =  -6.82944370602734
 DFT Correlation      Energy =  -2.71868931024883
 DFT Exchange         Energy = -54.18670573455392
 One-Electron (alpha) Energy = -881.80766273611960
 One-Electron (beta)  Energy = -881.80766273611960
 Total Coulomb        Energy = 664.80107808396053
    5    -915.4910327162      2.21e-04  
 Alpha HF Exchange    Energy =  -6.82897165389122
 Beta HF Exchange     Energy =  -6.82897165389120
 DFT Correlation      Energy =  -2.71862880213613
 DFT Exchange         Energy = -54.18369736007924
 One-Electron (alpha) Energy = -881.75764715629043
 One-Electron (beta)  Energy = -881.75764715629009
 Total Coulomb        Energy = 664.69661496454489
    6    -915.4914516891      7.18e-05  
 Alpha HF Exchange    Energy =  -6.82878532642200
 Beta HF Exchange     Energy =  -6.82878532642199
 DFT Correlation      Energy =  -2.71854814702156
 DFT Exchange         Energy = -54.18199880256656
 One-Electron (alpha) Energy = -881.74512379431997
 One-Electron (beta)  Energy = -881.74512379431985
 Total Coulomb        Energy = 664.66937583716754
    7    -915.4914922250      1.65e-05  
 Alpha HF Exchange    Energy =  -6.82882300793401
 Beta HF Exchange     Energy =  -6.82882300793400
 DFT Correlation      Energy =  -2.71856475469122
 DFT Exchange         Energy = -54.18229713848767
 One-Electron (alpha) Energy = -881.74983507668264
 One-Electron (beta)  Energy = -881.74983507668207
 Total Coulomb        Energy = 664.67918666372475
    8    -915.4914942698      3.71e-06  
 Alpha HF Exchange    Energy =  -6.82883616674090
 Beta HF Exchange     Energy =  -6.82883616674091
 DFT Correlation      Energy =  -2.71856939792078
 DFT Exchange         Energy = -54.18240159185585
 One-Electron (alpha) Energy = -881.75071701906427
 One-Electron (beta)  Energy = -881.75071701906484
 Total Coulomb        Energy = 664.68108586377821
    9    -915.4914943687      8.06e-07  Convergence criterion met
 ---------------------------------------
 SCF time:   CPU 27.90s  wall 2.00s 
<S^2> =          0.000000000
 Alpha HF Exchange    Energy =  -6.82883616674090
 Beta HF Exchange     Energy =  -6.82883616674091
 DFT Correlation      Energy =  -2.71856939792078
 DFT Exchange         Energy = -54.18240159185585
 One-Electron (alpha) Energy = -881.75071701906427
 One-Electron (beta)  Energy = -881.75071701906484
 Total Coulomb        Energy = 664.68108586377821
 Nuclear repulsion Energy = 253.88749712892962
 SCF   energy in the final basis set =     -915.4914943687
 Total energy in the final basis set =     -915.4914943687
 
 --------------------------------------------------------------
 
                    Orbital Energies (a.u.)
 --------------------------------------------------------------
 
 Alpha MOs
 -- Occupied --
-88.884 -88.875 -10.253 -10.236 -10.214  -7.946  -7.934  -5.911
 -5.907  -5.900  -5.899  -5.896  -5.888  -0.829  -0.758  -0.697
 -0.650  -0.606  -0.498  -0.460  -0.433  -0.415  -0.388  -0.378
 -0.364  -0.338  -0.295  -0.246  -0.237
 -- Virtual --
 -0.060   0.021   0.053   0.067   0.095   0.115   0.135   0.140
  0.158   0.183   0.193   0.233   0.325   0.347   0.358   0.364
  0.379   0.382   0.389   0.411   0.501   0.511   0.523   0.551
  0.575   0.614   0.650   0.669   0.690   0.729   0.742   0.764
  0.771   0.827   0.831   0.841   0.857   0.867   0.874   0.891
  0.899   0.914   0.935   0.993   1.102   1.115   1.144   1.155
  1.311   1.345   1.374   1.561   1.619   1.652   1.657   1.805
  1.834   1.904   2.005   2.018   2.057   2.080   2.084   2.094
  2.101   2.113   2.200   2.215   2.222   2.284   2.292   2.407
  2.474   2.535   2.609   2.614   2.691   2.739   2.748   2.784
  2.799   2.803   2.861   3.190   3.236   3.324   3.335   3.467
  3.515   3.969   3.976   4.229   4.406   4.603
 
 Beta MOs
 -- Occupied --
-88.884 -88.875 -10.253 -10.236 -10.214  -7.946  -7.934  -5.911
 -5.907  -5.900  -5.899  -5.896  -5.888  -0.829  -0.758  -0.697
 -0.650  -0.606  -0.498  -0.460  -0.433  -0.415  -0.388  -0.378
 -0.364  -0.338  -0.295  -0.246  -0.237
 -- Virtual --
 -0.060   0.021   0.053   0.067   0.095   0.115   0.135   0.140
  0.158   0.183   0.193   0.233   0.325   0.347   0.358   0.364
  0.379   0.382   0.389   0.411   0.501   0.511   0.523   0.551
  0.575   0.614   0.650   0.669   0.690   0.729   0.742   0.764
  0.771   0.827   0.831   0.841   0.857   0.867   0.874   0.891
  0.899   0.914   0.935   0.993   1.102   1.115   1.144   1.155
  1.311   1.345   1.374   1.561   1.619   1.652   1.657   1.805
  1.834   1.904   2.005   2.018   2.057   2.080   2.084   2.094
  2.101   2.113   2.200   2.215   2.222   2.284   2.292   2.407
  2.474   2.535   2.609   2.614   2.691   2.739   2.748   2.784
  2.799   2.803   2.861   3.190   3.236   3.324   3.335   3.467
  3.515   3.969   3.976   4.229   4.406   4.603
 --------------------------------------------------------------
 
          Ground-State Mulliken Net Atomic Charges

     Atom                 Charge (a.u.)    Spin (a.u.)
  --------------------------------------------------------
      1 S                    -0.034524       0.000000
      2 S                    -0.178789      -0.000000
      3 C                    -0.178545      -0.000000
      4 C                    -0.334347      -0.000000
      5 C                    -0.253271       0.000000
      6 H                     0.131133      -0.000000
      7 H                     0.146901       0.000000
      8 H                     0.139078       0.000000
      9 H                     0.141066      -0.000000
     10 H                     0.150324      -0.000000
     11 H                     0.150715      -0.000000
     12 H                     0.059937      -0.000000
     13 H                     0.060323       0.000000
  --------------------------------------------------------
  Sum of atomic charges =     0.000000
  Sum of spin   charges =    -0.000000

 -----------------------------------------------------------------
                    Cartesian Multipole Moments
 -----------------------------------------------------------------
    Charge (ESU x 10^10)
                -0.0000
    Dipole Moment (Debye)
         X       1.6962      Y      -2.2897      Z       0.7523
       Tot       2.9471
    Quadrupole Moments (Debye-Ang)
        XX     -56.1909     XY      -3.5262     YY     -46.4764
        XZ      -2.0541     YZ       1.9408     ZZ     -46.6669
    Octopole Moments (Debye-Ang^2)
       XXX      53.0886    XXY     -18.9039    XYY       1.4716
       YYY     -24.4140    XXZ       3.6263    XYZ      -5.4830
       YYZ       1.6593    XZZ      -5.5360    YZZ      -9.0358
       ZZZ      -1.3814
    Hexadecapole Moments (Debye-Ang^3)
      XXXX   -1684.0217   XXXY     -11.8133   XXYY    -301.5818
      XYYY      35.6056   YYYY    -175.8547   XXXZ      -2.0962
      XXYZ      15.7269   XYYZ      -4.0780   YYYZ       0.7751
      XXZZ    -294.9598   XYZZ       6.2118   YYZZ     -39.6950
      XZZZ       6.0565   YZZZ      -0.1907   ZZZZ     -82.1124
 -----------------------------------------------------------------
 Calculating analytic gradient of the SCF energy
 Gradient of SCF Energy
            1           2           3           4           5           6
    1   0.0000950  -0.0433958   0.0029077   0.0000700   0.0370680  -0.0001075
    2  -0.0002722   0.0297000  -0.0018506   0.0009234  -0.0262107   0.0000893
    3  -0.0000016   0.0001295  -0.0002220   0.0000877   0.0004693   0.0000325
            7           8           9          10          11          12
    1  -0.0000944  -0.0000204  -0.0000340   0.0020270   0.0020041   0.0000893
    2   0.0000384   0.0000074   0.0000003  -0.0014450  -0.0014173   0.0000655
    3   0.0000040   0.0000219  -0.0000036  -0.0004967   0.0002008   0.0000108
           13
    1  -0.0006091
    2   0.0003714
    3  -0.0002326
 Max gradient component =       4.340E-02
 RMS gradient           =       1.115E-02
 Gradient time:  CPU 11.00 s  wall 0.97 s
 Geometry Optimization Parameters
   NAtoms,    NIC,     NZ,  NCons,   NDum,   NFix, NCnnct, MaxDiis
       13      82       0       1       0       0       0       0

 Cartesian Hessian Update
 Hessian Updated using BFGS Update


** CONSTRAINED OPTIMIZATION IN DELOCALIZED INTERNAL COORDINATES **
   Searching for a Minimum

   Optimization Cycle:   2

                       Coordinates (Angstroms)
     ATOM                X               Y               Z
      1  S         2.8083592113    0.4792141316   -0.0083515819
      2  S        -3.0724800194    0.6296996343   -0.0042116851
      3  C         0.0571686625    0.2243833381    0.0110501268
      4  C         1.3326132001   -0.6343852566   -0.0135416727
      5  C        -1.1694555121   -0.6578265924    0.0159303440
      6  H         0.0679643924    0.8623063692    0.9010321739
      7  H         0.0377243921    0.8832540646   -0.8620496199
      8  H         1.3745234563   -1.2863109744    0.8636692512
      9  H         1.3574096162   -1.2570384555   -0.9122512718
     10  H        -1.3073974150   -1.2677405205    0.9068988605
     11  H        -1.3229284808   -1.2381080868   -0.8926870734
     12  H         3.7391024642   -0.4956775286   -0.0207792201
     13  H        -2.7944059677    1.1818298769    1.1941903684
   Point Group: c1    Number of degrees of freedom:    33


   Energy is   -915.491494369

              Constraints and their Current Values
                                        Value     Constraint
   Distance(Angs):        2   5             2.297745     2.300000
 Hessian Updated using BFGS Update

   Using Lagrange Multiplier Algorithm


 32 Hessian modes will be used to form the next step
  Hessian Eigenvalues:
    -0.990374    0.044999    0.045001    0.070042    0.078799    0.079297
     0.079577    0.084719    0.089089    0.100764    0.123562    0.129867
     0.135705    0.142215    0.142443    0.160000    0.166451    0.220014
     0.220570    0.224592    0.226233    0.257623    0.258000    0.287232
     0.318273    0.342367    0.343567    0.343846    0.343984    0.349475
     0.349925    1.010468

 Minimum Search - Taking P-RFO Step
 Searching for Lamda that Maximizes Along the Constraint modes Only
 Value Taken    Lamda =   0.00002176
 Searching for Lamda that Minimizes Along All other modes
 Value Taken    Lamda =  -0.00028445
 Step Taken.  Stepsize is  0.037327

                             Maximum     Tolerance    Cnvgd?
         Gradient            0.010788       0.000300      NO
         Displacement        0.025533       0.001200      NO
         Energy change      0.009551       0.000001      NO


 New Cartesian Coordinates Obtained by Inverse Iteration

 Displacement from previous Coordinates is:  0.040687
 ----------------------------------------------------------------
             Standard Nuclear Orientation (Angstroms)
    I     Atom           X                Y                Z
 ----------------------------------------------------------------
    1      S       2.8055711831     0.4817196895    -0.0076856190
    2      S      -3.0672363478     0.6309824086    -0.0063229015
    3      C       0.0558757713     0.2246330286     0.0110930215
    4      C       1.3316979823    -0.6342393873    -0.0131148970
    5      C      -1.1649309406    -0.6615923798     0.0155632273
    6      H       0.0654353050     0.8626770420     0.9008851450
    7      H       0.0358889990     0.8830934818    -0.8622733858
    8      H       1.3740072141    -1.2860201938     0.8641776959
    9      H       1.3573783244    -1.2570016014    -0.9117206184
   10      H      -1.3140453779    -1.2659868012     0.9082782242
   11      H      -1.3287753786    -1.2376988448    -0.8934655103
   12      H       3.7364438456    -0.4930473225    -0.0197556694
   13      H      -2.7791125799     1.1760808803     1.1932402873
 ----------------------------------------------------------------
 Nuclear Repulsion Energy =   254.0489084896 hartrees
 There are       29 alpha and       29 beta electrons

                       Distance Matrix (Angstroms)
             S (  1)   S (  2)   C (  3)   C (  4)   C (  5)   H (  6)
   S (  2)  5.874704
   C (  3)  2.761751  3.149484
   C (  4)  1.848701  4.577276  1.538171
   C (  5)  4.131899  2.299999  1.508570  2.496943
   H (  6)  2.911868  3.269609  1.094953  2.163233  2.149650
   H (  7)  2.926185  3.228869  1.093955  2.168523  2.144439  1.763524
   H (  8)  2.436068  4.915009  2.178829  1.093732  2.748866  2.516070
   H (  9)  2.436738  4.895043  2.177323  1.093611  2.752528  3.073710
   H ( 10)  4.567790  2.740195  2.214401  2.871938  1.088333  2.536579
   H ( 11)  4.564409  2.702080  2.207691  2.866583  1.088612  3.094365
   H ( 12)  1.347902  6.895918  3.750013  2.408896  4.904399  4.020183
   H ( 13)  5.754394  1.348740  3.215569  4.650948  2.714691  2.876655
             H (  7)   H (  8)   H (  9)   H ( 10)   H ( 11)   H ( 12)
   H (  8)  3.078351
   H (  9)  2.515708  1.776213
   H ( 10)  3.094466  2.688489  3.232488
   H ( 11)  2.522111  3.224388  2.686285  1.802026
   H ( 12)  4.037042  2.644097  2.653145  5.192892  5.193681
   H ( 13)  3.497887  4.839280  5.240354  2.862048  3.504875  6.834459

 
 Applying Cartesian multipole field
    Component          Value
    ---------          -----
     (2,0,0)        1.00000E-11
     (0,2,0)        2.00000E-10
     (0,0,2)       -3.00000E-10
 Nucleus-field energy     =     0.0000000228 hartrees
 Requested basis set is 6-31G(d,p)
 There are 46 shells and 123 basis functions
 A cutoff of  1.0D-14 yielded    989 shell pairs
 There are      7169 function pairs
 Smallest overlap matrix eigenvalue = 5.34E-03
 Guess from superposition of atomic densities
 Warning:  Energy on first SCF cycle will be non-variational
 SAD guess density has 58.000000 electrons

 -----------------------------------------------------------------------
  General SCF calculation program by
  Eric Jon Sundstrom, Paul Horn, Yuezhi Mao, Dmitri Zuev, Alec White,
  David Stuck, Shaama M.S., Shane Yost, Joonho Lee, David Small,
  Daniel Levine, Susi Lehtola, Hugh Burton, Evgeny Epifanovsky
 -----------------------------------------------------------------------
 Exchange:     0.2000 Hartree-Fock + 0.0800 Slater + 0.7200 B88
 Correlation:  0.1900 VWN1RPA + 0.8100 LYP
 Using SG-1 standard quadrature grid
 using 12 threads for integral computing
 -------------------------------------------------------
 OpenMP Integral computing Module                
 Release: version 1.0, May 2013, Q-Chem Inc. Pittsburgh 
 -------------------------------------------------------
 -------------------------------------------------------
 OpenMP BLAS3 based DFT computing Module                
 Release: version 1.0, May 2013, Q-Chem Inc. Pittsburgh 
 -------------------------------------------------------
 A unrestricted SCF calculation will be
 performed using DIIS
 SCF converges when DIIS error is below 1.0e-06
 Alpha HF Exchange    Energy =  -6.83627803758044
 Beta HF Exchange     Energy =  -6.83627803758044
 DFT Correlation      Energy =  -2.70432750781043
 DFT Exchange         Energy = -53.83241639455514
 One-Electron (alpha) Energy = -880.00779030354147
 One-Electron (beta)  Energy = -880.00779030354147
 Total Coulomb        Energy = 660.28337541634244
 ---------------------------------------
  Cycle       Energy         DIIS error
 ---------------------------------------
    1    -915.8925966559      2.65e-02  
 Alpha HF Exchange    Energy =  -6.85487768930115
 Beta HF Exchange     Energy =  -6.85487768930115
 DFT Correlation      Energy =  -2.73022126598959
 DFT Exchange         Energy = -54.40602776656334
 One-Electron (alpha) Energy = -883.82341696055755
 One-Electron (beta)  Energy = -883.82341696055744
 Total Coulomb        Energy = 669.00450652714426
    2    -915.4394232928      2.42e-03  
 Alpha HF Exchange    Energy =  -6.80539082066368
 Beta HF Exchange     Energy =  -6.80539082066367
 DFT Correlation      Energy =  -2.70709153093381
 DFT Exchange         Energy = -53.98385992467484
 One-Electron (alpha) Energy = -879.97346440874958
 One-Electron (beta)  Energy = -879.97346440874867
 Total Coulomb        Energy = 660.77371611511603
    3    -915.4260372870      2.79e-03  
 Alpha HF Exchange    Energy =  -6.82712254858469
 Beta HF Exchange     Energy =  -6.82712254858469
 DFT Correlation      Energy =  -2.71856790441074
 DFT Exchange         Energy = -54.17074898114299
 One-Electron (alpha) Energy = -881.82143289946907
 One-Electron (beta)  Energy = -881.82143289946941
 Total Coulomb        Energy = 664.64976724814869
    4    -915.4877520212      6.00e-04  
 Alpha HF Exchange    Energy =  -6.82952773980529
 Beta HF Exchange     Energy =  -6.82952773980530
 DFT Correlation      Energy =  -2.71877141450233
 DFT Exchange         Energy = -54.18740297944490
 One-Electron (alpha) Energy = -881.96913738123374
 One-Electron (beta)  Energy = -881.96913738123408
 Total Coulomb        Energy = 664.96366444093599
    5    -915.4909316828      2.22e-04  
 Alpha HF Exchange    Energy =  -6.82905733311104
 Beta HF Exchange     Energy =  -6.82905733311106
 DFT Correlation      Energy =  -2.71871532543019
 DFT Exchange         Energy = -54.18443009090456
 One-Electron (alpha) Energy = -881.91954381669132
 One-Electron (beta)  Energy = -881.91954381669223
 Total Coulomb        Energy = 664.86008258067341
    6    -915.4913566229      7.20e-05  
 Alpha HF Exchange    Energy =  -6.82887206030014
 Beta HF Exchange     Energy =  -6.82887206030015
 DFT Correlation      Energy =  -2.71863441831315
 DFT Exchange         Energy = -54.18273618564284
 One-Electron (alpha) Energy = -881.90704645464837
 One-Electron (beta)  Energy = -881.90704645464859
 Total Coulomb        Energy = 664.83290174899662
    7    -915.4913973725      1.66e-05  
 Alpha HF Exchange    Energy =  -6.82890916043071
 Beta HF Exchange     Energy =  -6.82890916043071
 DFT Correlation      Energy =  -2.71865083813252
 DFT Exchange         Energy = -54.18302995833751
 One-Electron (alpha) Energy = -881.91171290489706
 One-Electron (beta)  Energy = -881.91171290489729
 Total Coulomb        Energy = 664.84261698588728
    8    -915.4913994289      3.72e-06  
 Alpha HF Exchange    Energy =  -6.82892244650803
 Beta HF Exchange     Energy =  -6.82892244650802
 DFT Correlation      Energy =  -2.71865551799813
 DFT Exchange         Energy = -54.18313536642408
 One-Electron (alpha) Energy = -881.91260470744066
 One-Electron (beta)  Energy = -881.91260470743987
 Total Coulomb        Energy = 664.84453715167240
    9    -915.4913995283      8.06e-07  Convergence criterion met
 ---------------------------------------
 SCF time:   CPU 28.34s  wall 3.00s 
<S^2> =          0.000000000
 Alpha HF Exchange    Energy =  -6.82892244650803
 Beta HF Exchange     Energy =  -6.82892244650802
 DFT Correlation      Energy =  -2.71865551799813
 DFT Exchange         Energy = -54.18313536642408
 One-Electron (alpha) Energy = -881.91260470744066
 One-Electron (beta)  Energy = -881.91260470743987
 Total Coulomb        Energy = 664.84453715167240
 Nuclear repulsion Energy = 254.04890851233930
 SCF   energy in the final basis set =     -915.4913995283
 Total energy in the final basis set =     -915.4913995283
 
 --------------------------------------------------------------
 
                    Orbital Energies (a.u.)
 --------------------------------------------------------------
 
 Alpha MOs
 -- Occupied --
-88.884 -88.874 -10.253 -10.237 -10.214  -7.946  -7.933  -5.911
 -5.907  -5.900  -5.898  -5.896  -5.888  -0.829  -0.758  -0.696
 -0.650  -0.606  -0.499  -0.460  -0.434  -0.416  -0.389  -0.377
 -0.365  -0.338  -0.294  -0.246  -0.236
 -- Virtual --
 -0.060   0.020   0.053   0.067   0.095   0.114   0.134   0.140
  0.158   0.184   0.193   0.233   0.326   0.347   0.358   0.364
  0.379   0.381   0.390   0.412   0.500   0.511   0.524   0.551
  0.576   0.613   0.652   0.669   0.689   0.729   0.742   0.764
  0.772   0.828   0.831   0.840   0.857   0.868   0.873   0.891
  0.899   0.914   0.934   0.993   1.104   1.115   1.146   1.156
  1.311   1.344   1.376   1.561   1.614   1.653   1.656   1.805
  1.835   1.907   2.001   2.018   2.057   2.080   2.084   2.094
  2.101   2.114   2.199   2.216   2.222   2.286   2.294   2.410
  2.474   2.532   2.610   2.613   2.692   2.739   2.748   2.782
  2.800   2.802   2.861   3.191   3.236   3.326   3.335   3.468
  3.514   3.970   3.976   4.230   4.406   4.603
 
 Beta MOs
 -- Occupied --
-88.884 -88.874 -10.253 -10.237 -10.214  -7.946  -7.933  -5.911
 -5.907  -5.900  -5.898  -5.896  -5.888  -0.829  -0.758  -0.696
 -0.650  -0.606  -0.499  -0.460  -0.434  -0.416  -0.389  -0.377
 -0.365  -0.338  -0.294  -0.246  -0.236
 -- Virtual --
 -0.060   0.020   0.053   0.067   0.095   0.114   0.134   0.140
  0.158   0.184   0.193   0.233   0.326   0.347   0.358   0.364
  0.379   0.381   0.390   0.412   0.500   0.511   0.524   0.551
  0.576   0.613   0.652   0.669   0.689   0.729   0.742   0.764
  0.772   0.828   0.831   0.840   0.857   0.868   0.873   0.891
  0.899   0.914   0.934   0.993   1.104   1.115   1.146   1.156
  1.311   1.344   1.376   1.561   1.614   1.653   1.656   1.805
  1.835   1.907   2.001   2.018   2.057   2.080   2.084   2.094
  2.101   2.114   2.199   2.216   2.222   2.286   2.294   2.410
  2.474   2.532   2.610   2.613   2.692   2.739   2.748   2.782
  2.800   2.802   2.861   3.191   3.236   3.326   3.335   3.468
  3.514   3.970   3.976   4.230   4.406   4.603
 --------------------------------------------------------------
 
          Ground-State Mulliken Net Atomic Charges

     Atom                 Charge (a.u.)    Spin (a.u.)
  --------------------------------------------------------
      1 S                    -0.034472      -0.000000
      2 S                    -0.181364      -0.000000
      3 C                    -0.178188      -0.000000
      4 C                    -0.334570       0.000000
      5 C                    -0.253419       0.000000
      6 H                     0.131454       0.000000
      7 H                     0.147447       0.000000
      8 H                     0.139192      -0.000000
      9 H                     0.141235      -0.000000
     10 H                     0.151234      -0.000000
     11 H                     0.151607       0.000000
     12 H                     0.059915       0.000000
     13 H                     0.059928       0.000000
  --------------------------------------------------------
  Sum of atomic charges =     0.000000
  Sum of spin   charges =     0.000000

 -----------------------------------------------------------------
                    Cartesian Multipole Moments
 -----------------------------------------------------------------
    Charge (ESU x 10^10)
                -0.0000
    Dipole Moment (Debye)
         X       1.7182      Y      -2.3081      Z       0.7498
       Tot       2.9736
    Quadrupole Moments (Debye-Ang)
        XX     -56.2810     XY      -3.4413     YY     -46.4933
        XZ      -2.0257     YZ       1.9268     ZZ     -46.6529
    Octopole Moments (Debye-Ang^2)
       XXX      53.3397    XXY     -19.1738    XYY       1.4923
       YYY     -24.5545    XXZ       3.5066    XYZ      -5.4247
       YYZ       1.6601    XZZ      -5.5722    YZZ      -9.1014
       ZZZ      -1.3446
    Hexadecapole Moments (Debye-Ang^3)
      XXXX   -1681.3281   XXXY     -11.0009   XXYY    -301.1610
      XYYY      35.4653   YYYY    -176.2987   XXXZ      -1.8558
      XXYZ      15.4833   XYYZ      -4.1339   YYYZ       0.8081
      XXZZ    -294.2448   XYZZ       6.1982   YYZZ     -39.7758
      XZZZ       5.7181   YZZZ      -0.1611   ZZZZ     -82.0844
 -----------------------------------------------------------------
 Calculating analytic gradient of the SCF energy
 Gradient of SCF Energy
            1           2           3           4           5           6
    1  -0.0000564  -0.0431516   0.0018952  -0.0002164   0.0395951  -0.0000969
    2  -0.0000212   0.0294216  -0.0010618   0.0003970  -0.0269139   0.0001674
    3  -0.0000007  -0.0003765  -0.0000713   0.0000482   0.0006150  -0.0000253
            7           8           9          10          11          12
    1  -0.0000562   0.0000064   0.0000148   0.0012398   0.0010646  -0.0000364
    2   0.0001264  -0.0000379  -0.0000570  -0.0011720  -0.0010113  -0.0000411
    3   0.0000152   0.0000112   0.0000005  -0.0003399   0.0001724   0.0000097
           13
    1  -0.0002021
    2   0.0002038
    3  -0.0000585
 Max gradient component =       4.315E-02
 RMS gradient           =       1.136E-02
 Gradient time:  CPU 11.11 s  wall 0.99 s
 Geometry Optimization Parameters
   NAtoms,    NIC,     NZ,  NCons,   NDum,   NFix, NCnnct, MaxDiis
       13      82       0       1       0       0       0       0

 Cartesian Hessian Update
 Hessian Updated using BFGS Update


** CONSTRAINED OPTIMIZATION IN DELOCALIZED INTERNAL COORDINATES **
   Searching for a Minimum

   Optimization Cycle:   3

                       Coordinates (Angstroms)
     ATOM                X               Y               Z
      1  S         2.8055711831    0.4817196895   -0.0076856190
      2  S        -3.0672363478    0.6309824086   -0.0063229015
      3  C         0.0558757713    0.2246330286    0.0110930215
      4  C         1.3316979823   -0.6342393873   -0.0131148970
      5  C        -1.1649309406   -0.6615923798    0.0155632273
      6  H         0.0654353050    0.8626770420    0.9008851450
      7  H         0.0358889990    0.8830934818   -0.8622733858
      8  H         1.3740072141   -1.2860201938    0.8641776959
      9  H         1.3573783244   -1.2570016014   -0.9117206184
     10  H        -1.3140453779   -1.2659868012    0.9082782242
     11  H        -1.3287753786   -1.2376988448   -0.8934655103
     12  H         3.7364438456   -0.4930473225   -0.0197556694
     13  H        -2.7791125799    1.1760808803    1.1932402873
   Point Group: c1    Number of degrees of freedom:    33


   Energy is   -915.491399528

              Constraints and their Current Values
                                        Value     Constraint
   Distance(Angs):        2   5             2.299999     2.300000
 Hessian Updated using BFGS Update

   Using Lagrange Multiplier Algorithm


 33 Hessian modes will be used to form the next step
  Hessian Eigenvalues:
    -0.988153    0.041157    0.045000    0.045000    0.046257    0.070044
     0.078807    0.079576    0.079652    0.084749    0.100638    0.123540
     0.128661    0.129880    0.142217    0.142623    0.158769    0.165383
     0.220013    0.220169    0.225782    0.234022    0.257944    0.258024
     0.287286    0.310650    0.342349    0.343621    0.343858    0.344014
     0.349059    0.350037    1.012976

 Minimum Search - Taking P-RFO Step
 Searching for Lamda that Maximizes Along the Constraint modes Only
 Value Taken    Lamda =   0.00000000
 Searching for Lamda that Minimizes Along All other modes
 Value Taken    Lamda =  -0.00013906
 Step Taken.  Stepsize is  0.056125

                             Maximum     Tolerance    Cnvgd?
         Gradient            0.001652       0.000300      NO
         Displacement        0.039684       0.001200      NO
         Energy change      0.000095       0.000001      NO


 New Cartesian Coordinates Obtained by Inverse Iteration

 Displacement from previous Coordinates is:  0.061672
 ----------------------------------------------------------------
             Standard Nuclear Orientation (Angstroms)
    I     Atom           X                Y                Z
 ----------------------------------------------------------------
    1      S       2.8042822609     0.4852207023    -0.0066322023
    2      S      -3.0581202773     0.6337865663    -0.0078696301
    3      C       0.0530298625     0.2221337804     0.0107024753
    4      C       1.3323991142    -0.6342266574    -0.0126384064
    5      C      -1.1618152106    -0.6675682672     0.0145432622
    6      H       0.0610038068     0.8595992262     0.9006211566
    7      H       0.0324319306     0.8792206389    -0.8634132270
    8      H       1.3755760467    -1.2855240101     0.8648661098
    9      H       1.3596430217    -1.2567285486    -0.9112412583
   10      H      -1.3287941179    -1.2609312131     0.9106908476
   11      H      -1.3400702476    -1.2358102691    -0.8958822286
   12      H       3.7391844213    -0.4857361161    -0.0181317656
   13      H      -2.7605526113     1.1701641675     1.1932838668
 ----------------------------------------------------------------
 Nuclear Repulsion Energy =   254.2200382538 hartrees
 There are       29 alpha and       29 beta electrons

                       Distance Matrix (Angstroms)
             S (  1)   S (  2)   C (  3)   C (  4)   C (  5)   H (  6)
   S (  2)  5.864285
   C (  3)  2.763857  3.138321
   C (  4)  1.849226  4.569961  1.539702
   C (  5)  4.130291  2.300000  1.505800  2.494585
   H (  6)  2.913562  3.256575  1.094706  2.163794  2.147711
   H (  7)  2.927877  3.216163  1.093739  2.168930  2.142333  1.764375
   H (  8)  2.436442  4.909489  2.179852  1.093648  2.746502  2.516134
   H (  9)  2.437147  4.889454  2.178130  1.093498  2.749898  3.073785
   H ( 10)  4.579612  2.724753  2.217859  2.885697  1.087677  2.535407
   H ( 11)  4.574754  2.689917  2.210933  2.878214  1.087910  3.095347
   H ( 12)  1.347936  6.888889  3.753618  2.411368  4.904480  4.022816
   H ( 13)  5.733789  1.348709  3.195858  4.632745  2.706040  2.853644
             H (  7)   H (  8)   H (  9)   H ( 10)   H ( 11)   H ( 12)
   H (  8)  3.078491
   H (  9)  2.515165  1.776412
   H ( 10)  3.095260  2.704870  3.247637
   H ( 11)  2.521542  3.236888  2.699838  1.806783
   H ( 12)  4.039508  2.646883  2.655992  5.210379  5.208828
   H ( 13)  3.480720  4.821392  5.224447  2.835492  3.488710  6.815872

 
 Applying Cartesian multipole field
    Component          Value
    ---------          -----
     (2,0,0)        1.00000E-11
     (0,2,0)        2.00000E-10
     (0,0,2)       -3.00000E-10
 Nucleus-field energy     =     0.0000000228 hartrees
 Requested basis set is 6-31G(d,p)
 There are 46 shells and 123 basis functions
 A cutoff of  1.0D-14 yielded    989 shell pairs
 There are      7169 function pairs
 Smallest overlap matrix eigenvalue = 5.33E-03
 Guess from superposition of atomic densities
 Warning:  Energy on first SCF cycle will be non-variational
 SAD guess density has 58.000000 electrons

 -----------------------------------------------------------------------
  General SCF calculation program by
  Eric Jon Sundstrom, Paul Horn, Yuezhi Mao, Dmitri Zuev, Alec White,
  David Stuck, Shaama M.S., Shane Yost, Joonho Lee, David Small,
  Daniel Levine, Susi Lehtola, Hugh Burton, Evgeny Epifanovsky
 -----------------------------------------------------------------------
 Exchange:     0.2000 Hartree-Fock + 0.0800 Slater + 0.7200 B88
 Correlation:  0.1900 VWN1RPA + 0.8100 LYP
 Using SG-1 standard quadrature grid
 using 12 threads for integral computing
 -------------------------------------------------------
 OpenMP Integral computing Module                
 Release: version 1.0, May 2013, Q-Chem Inc. Pittsburgh 
 -------------------------------------------------------
 -------------------------------------------------------
 OpenMP BLAS3 based DFT computing Module                
 Release: version 1.0, May 2013, Q-Chem Inc. Pittsburgh 
 -------------------------------------------------------
 A unrestricted SCF calculation will be
 performed using DIIS
 SCF converges when DIIS error is below 1.0e-06
 Alpha HF Exchange    Energy =  -6.83651080284198
 Beta HF Exchange     Energy =  -6.83651080284198
 DFT Correlation      Energy =  -2.70441977063823
 DFT Exchange         Energy = -53.83290835549370
 One-Electron (alpha) Energy = -880.17743818434610
 One-Electron (beta)  Energy = -880.17743818434610
 Total Coulomb        Energy = 660.45077092489100
 ---------------------------------------
  Cycle       Energy         DIIS error
 ---------------------------------------
    1    -915.8944168990      2.65e-02  
 Alpha HF Exchange    Energy =  -6.85505699545206
 Beta HF Exchange     Energy =  -6.85505699545206
 DFT Correlation      Energy =  -2.73032669264035
 DFT Exchange         Energy = -54.40740115453245
 One-Electron (alpha) Energy = -883.99902848907595
 One-Electron (beta)  Energy = -883.99902848907607
 Total Coulomb        Energy = 669.18625834637805
    2    -915.4396021932      2.42e-03  
 Alpha HF Exchange    Energy =  -6.80550740141485
 Beta HF Exchange     Energy =  -6.80550740141485
 DFT Correlation      Energy =  -2.70721551629905
 DFT Exchange         Energy = -53.98482041106217
 One-Electron (alpha) Energy = -880.14510753929198
 One-Electron (beta)  Energy = -880.14510753929198
 Total Coulomb        Energy = 660.94638791620730
    3    -915.4268396159      2.77e-03  
 Alpha HF Exchange    Energy =  -6.82727796515557
 Beta HF Exchange     Energy =  -6.82727796515557
 DFT Correlation      Energy =  -2.71868249283202
 DFT Exchange         Energy = -54.17196554875071
 One-Electron (alpha) Energy = -881.99595669521318
 One-Electron (beta)  Energy = -881.99595669521364
 Total Coulomb        Energy = 664.82922336457568
    4    -915.4878557211      5.98e-04  
 Alpha HF Exchange    Energy =  -6.82966300418549
 Beta HF Exchange     Energy =  -6.82966300418549
 DFT Correlation      Energy =  -2.71887202155926
 DFT Exchange         Energy = -54.18841887454319
 One-Electron (alpha) Energy = -882.14130701221870
 One-Electron (beta)  Energy = -882.14130701221836
 Total Coulomb        Energy = 665.13819218981303
    5    -915.4910004625      2.23e-04  
 Alpha HF Exchange    Energy =  -6.82919081408105
 Beta HF Exchange     Energy =  -6.82919081408104
 DFT Correlation      Energy =  -2.71881955512641
 DFT Exchange         Energy = -54.18545434603361
 One-Electron (alpha) Energy = -882.09187298788993
 One-Electron (beta)  Energy = -882.09187298788959
 Total Coulomb        Energy = 665.03493359988659
    6    -915.4914296286      7.20e-05  
 Alpha HF Exchange    Energy =  -6.82900829157006
 Beta HF Exchange     Energy =  -6.82900829157005
 DFT Correlation      Energy =  -2.71873899339628
 DFT Exchange         Energy = -54.18377905256631
 One-Electron (alpha) Energy = -882.07955371342166
 One-Electron (beta)  Energy = -882.07955371342121
 Total Coulomb        Energy = 665.00813340366608
    7    -915.4914703757      1.66e-05  
 Alpha HF Exchange    Energy =  -6.82904493748187
 Beta HF Exchange     Energy =  -6.82904493748186
 DFT Correlation      Energy =  -2.71875526434318
 DFT Exchange         Energy = -54.18406937483131
 One-Electron (alpha) Energy = -882.08417784765800
 One-Electron (beta)  Energy = -882.08417784765754
 Total Coulomb        Energy = 665.01775948682814
    8    -915.4914724460      3.73e-06  
 Alpha HF Exchange    Energy =  -6.82905838929523
 Beta HF Exchange     Energy =  -6.82905838929523
 DFT Correlation      Energy =  -2.71875999540393
 DFT Exchange         Energy = -54.18417604109209
 One-Electron (alpha) Energy = -882.08508364045747
 One-Electron (beta)  Energy = -882.08508364045792
 Total Coulomb        Energy = 665.01970927340813
    9    -915.4914725460      8.06e-07  Convergence criterion met
 ---------------------------------------
 SCF time:   CPU 28.00s  wall 3.00s 
<S^2> =         -0.000000000
 Alpha HF Exchange    Energy =  -6.82905838929523
 Beta HF Exchange     Energy =  -6.82905838929523
 DFT Correlation      Energy =  -2.71875999540393
 DFT Exchange         Energy = -54.18417604109209
 One-Electron (alpha) Energy = -882.08508364045747
 One-Electron (beta)  Energy = -882.08508364045792
 Total Coulomb        Energy = 665.01970927340813
 Nuclear repulsion Energy = 254.22003827662692
 SCF   energy in the final basis set =     -915.4914725460
 Total energy in the final basis set =     -915.4914725460
 
 --------------------------------------------------------------
 
                    Orbital Energies (a.u.)
 --------------------------------------------------------------
 
 Alpha MOs
 -- Occupied --
-88.884 -88.873 -10.254 -10.237 -10.215  -7.946  -7.933  -5.911
 -5.907  -5.900  -5.897  -5.895  -5.887  -0.829  -0.758  -0.696
 -0.650  -0.607  -0.499  -0.461  -0.435  -0.416  -0.389  -0.377
 -0.365  -0.338  -0.293  -0.246  -0.236
 -- Virtual --
 -0.060   0.021   0.053   0.067   0.095   0.115   0.134   0.140
  0.157   0.185   0.192   0.234   0.326   0.347   0.359   0.364
  0.379   0.382   0.391   0.413   0.500   0.510   0.524   0.551
  0.576   0.613   0.654   0.668   0.688   0.729   0.742   0.765
  0.772   0.828   0.831   0.840   0.857   0.869   0.873   0.890
  0.899   0.914   0.932   0.994   1.108   1.116   1.149   1.156
  1.311   1.343   1.379   1.561   1.608   1.654   1.657   1.805
  1.836   1.911   1.995   2.016   2.056   2.080   2.084   2.094
  2.101   2.114   2.199   2.217   2.221   2.290   2.297   2.415
  2.474   2.527   2.611   2.613   2.694   2.739   2.748   2.780
  2.799   2.803   2.861   3.191   3.238   3.329   3.337   3.469
  3.512   3.970   3.977   4.230   4.406   4.603
 
 Beta MOs
 -- Occupied --
-88.884 -88.873 -10.254 -10.237 -10.215  -7.946  -7.933  -5.911
 -5.907  -5.900  -5.897  -5.895  -5.887  -0.829  -0.758  -0.696
 -0.650  -0.607  -0.499  -0.461  -0.435  -0.416  -0.389  -0.377
 -0.365  -0.338  -0.293  -0.246  -0.236
 -- Virtual --
 -0.060   0.021   0.053   0.067   0.095   0.115   0.134   0.140
  0.157   0.185   0.192   0.234   0.326   0.347   0.359   0.364
  0.379   0.382   0.391   0.413   0.500   0.510   0.524   0.551
  0.576   0.613   0.654   0.668   0.688   0.729   0.742   0.765
  0.772   0.828   0.831   0.840   0.857   0.869   0.873   0.890
  0.899   0.914   0.932   0.994   1.108   1.116   1.149   1.156
  1.311   1.343   1.379   1.561   1.608   1.654   1.657   1.805
  1.836   1.911   1.995   2.016   2.056   2.080   2.084   2.094
  2.101   2.114   2.199   2.217   2.221   2.290   2.297   2.415
  2.474   2.527   2.611   2.613   2.694   2.739   2.748   2.780
  2.799   2.803   2.861   3.191   3.238   3.329   3.337   3.469
  3.512   3.970   3.977   4.230   4.406   4.603
 --------------------------------------------------------------
 
          Ground-State Mulliken Net Atomic Charges

     Atom                 Charge (a.u.)    Spin (a.u.)
  --------------------------------------------------------
      1 S                    -0.034966       0.000000
      2 S                    -0.184100       0.000000
      3 C                    -0.177655      -0.000000
      4 C                    -0.334640       0.000000
      5 C                    -0.254225      -0.000000
      6 H                     0.131732       0.000000
      7 H                     0.148055       0.000000
      8 H                     0.139283      -0.000000
      9 H                     0.141354       0.000000
     10 H                     0.152787       0.000000
     11 H                     0.152927      -0.000000
     12 H                     0.059986      -0.000000
     13 H                     0.059464      -0.000000
  --------------------------------------------------------
  Sum of atomic charges =    -0.000000
  Sum of spin   charges =    -0.000000

 -----------------------------------------------------------------
                    Cartesian Multipole Moments
 -----------------------------------------------------------------
    Charge (ESU x 10^10)
                -0.0000
    Dipole Moment (Debye)
         X       1.7336      Y      -2.3353      Z       0.7478
       Tot       3.0031
    Quadrupole Moments (Debye-Ang)
        XX     -56.3406     XY      -3.3340     YY     -46.5437
        XZ      -1.9991     YZ       1.9114     ZZ     -46.6204
    Octopole Moments (Debye-Ang^2)
       XXX      53.5625    XXY     -19.5500    XYY       1.4170
       YYY     -24.7269    XXZ       3.3893    XYZ      -5.3570
       YYZ       1.6539    XZZ      -5.7092    YZZ      -9.1879
       ZZZ      -1.3282
    Hexadecapole Moments (Debye-Ang^3)
      XXXX   -1677.3049   XXXY     -10.0530   XXYY    -300.7586
      XYYY      35.1985   YYYY    -177.0074   XXXZ      -1.5946
      XXYZ      15.1749   XYYZ      -4.1854   YYYZ       0.8229
      XXZZ    -293.3775   XYZZ       6.1543   YYZZ     -39.8914
      XZZZ       5.3775   YZZZ      -0.1634   ZZZZ     -82.0419
 -----------------------------------------------------------------
 Calculating analytic gradient of the SCF energy
 Gradient of SCF Energy
            1           2           3           4           5           6
    1   0.0001340  -0.0424602  -0.0001349  -0.0002303   0.0424588  -0.0000364
    2  -0.0001045   0.0290596  -0.0001717  -0.0000034  -0.0284410   0.0000576
    3  -0.0000007  -0.0005918   0.0000127   0.0000161   0.0006529  -0.0000494
            7           8           9          10          11          12
    1   0.0000103   0.0000157   0.0000103   0.0000808  -0.0000540   0.0000786
    2   0.0000171  -0.0000051  -0.0000112  -0.0003132  -0.0001277   0.0000536
    3   0.0000129   0.0000099   0.0000156  -0.0001178   0.0000667   0.0000089
           13
    1   0.0001274
    2  -0.0000104
    3  -0.0000361
 Max gradient component =       4.246E-02
 RMS gradient           =       1.161E-02
 Gradient time:  CPU 11.06 s  wall 0.98 s
 Geometry Optimization Parameters
   NAtoms,    NIC,     NZ,  NCons,   NDum,   NFix, NCnnct, MaxDiis
       13      82       0       1       0       0       0       0

 Cartesian Hessian Update
 Hessian Updated using BFGS Update


** CONSTRAINED OPTIMIZATION IN DELOCALIZED INTERNAL COORDINATES **
   Searching for a Minimum

   Optimization Cycle:   4

                       Coordinates (Angstroms)
     ATOM                X               Y               Z
      1  S         2.8042822609    0.4852207023   -0.0066322023
      2  S        -3.0581202773    0.6337865663   -0.0078696301
      3  C         0.0530298625    0.2221337804    0.0107024753
      4  C         1.3323991142   -0.6342266574   -0.0126384064
      5  C        -1.1618152106   -0.6675682672    0.0145432622
      6  H         0.0610038068    0.8595992262    0.9006211566
      7  H         0.0324319306    0.8792206389   -0.8634132270
      8  H         1.3755760467   -1.2855240101    0.8648661098
      9  H         1.3596430217   -1.2567285486   -0.9112412583
     10  H        -1.3287941179   -1.2609312131    0.9106908476
     11  H        -1.3400702476   -1.2358102691   -0.8958822286
     12  H         3.7391844213   -0.4857361161   -0.0181317656
     13  H        -2.7605526113    1.1701641675    1.1932838668
   Point Group: c1    Number of degrees of freedom:    33


   Energy is   -915.491472546

              Constraints and their Current Values
                                        Value     Constraint
   Distance(Angs):        2   5             2.300000     2.300000
 Hessian Updated using BFGS Update

 32 Hessian modes will be used to form the next step
  Hessian Eigenvalues:
     0.036275    0.045000    0.045000    0.045000    0.046549    0.070044
     0.078808    0.079577    0.079804    0.084751    0.100629    0.123522
     0.129854    0.130711    0.142218    0.142589    0.162275    0.166429
     0.220005    0.221238    0.226539    0.234403    0.257948    0.258024
     0.287646    0.313693    0.342351    0.343620    0.343857    0.344016
     0.348971    0.349987

 Minimum Search - Taking Simple RFO Step
 Searching for Lamda that Minimizes Along All modes
 Value Taken    Lamda =  -0.00000358
 Step Taken.  Stepsize is  0.007548

                             Maximum     Tolerance    Cnvgd?
         Gradient           0.000335      0.000300      NO
         Displacement       0.004680      0.001200      NO
         Energy change     -0.000073      0.000001      NO


 New Cartesian Coordinates Obtained by Inverse Iteration

 Displacement from previous Coordinates is:  0.008877
 ----------------------------------------------------------------
             Standard Nuclear Orientation (Angstroms)
    I     Atom           X                Y                Z
 ----------------------------------------------------------------
    1      S       2.8033482064     0.4865073703    -0.0064805070
    2      S      -3.0568500003     0.6345890099    -0.0077887027
    3      C       0.0533565034     0.2212618139     0.0105839884
    4      C       1.3331301158    -0.6345243246    -0.0127571393
    5      C      -1.1617097419    -0.6684669059     0.0143094322
    6      H       0.0613750985     0.8585041854     0.9006590163
    7      H       0.0328442024     0.8781995906    -0.8636368197
    8      H       1.3765835120    -1.2858487403     0.8646990599
    9      H       1.3608034651    -1.2568499687    -0.9114762505
   10      H      -1.3306214116    -1.2597248764     0.9113234581
   11      H      -1.3407382779    -1.2357804973    -0.8964598926
   12      H       3.7377405563    -0.4849278767    -0.0180395959
   13      H      -2.7610642283     1.1706612198     1.1939629527
 ----------------------------------------------------------------
 Nuclear Repulsion Energy =   254.2488173056 hartrees
 There are       29 alpha and       29 beta electrons

                       Distance Matrix (Angstroms)
             S (  1)   S (  2)   C (  3)   C (  4)   C (  5)   H (  6)
   S (  2)  5.862069
   C (  3)  2.762807  3.137604
   C (  4)  1.848863  4.569748  1.539719
   C (  5)  4.129901  2.300000  1.505994  2.495218
   H (  6)  2.911992  3.255571  1.094703  2.163521  2.147834
   H (  7)  2.926403  3.215281  1.093732  2.168657  2.142411  1.764636
   H (  8)  2.436362  4.909649  2.179868  1.093637  2.747227  2.515813
   H (  9)  2.437057  4.889770  2.178171  1.093504  2.750699  3.073609
   H ( 10)  4.580545  2.722693  2.218118  2.887970  1.087544  2.534692
   H ( 11)  4.575127  2.689435  2.211154  2.879585  1.087840  3.095414
   H ( 12)  1.347928  6.886210  3.751561  2.409265  4.902994  4.020507
   H ( 13)  5.733395  1.348729  3.197297  4.634360  2.707750  2.854756
             H (  7)   H (  8)   H (  9)   H ( 10)   H ( 11)   H ( 12)
   H (  8)  3.078293
   H (  9)  2.514796  1.776482
   H ( 10)  3.095197  2.707732  3.250596
   H ( 11)  2.521253  3.238522  2.701666  1.807970
   H ( 12)  4.037253  2.644951  2.654039  5.210789  5.208296
   H ( 13)  3.482122  4.823172  5.226421  2.834224  3.489721  6.815012

 
 Applying Cartesian multipole field
    Component          Value
    ---------          -----
     (2,0,0)        1.00000E-11
     (0,2,0)        2.00000E-10
     (0,0,2)       -3.00000E-10
 Nucleus-field energy     =     0.0000000228 hartrees
 Requested basis set is 6-31G(d,p)
 There are 46 shells and 123 basis functions
 A cutoff of  1.0D-14 yielded    989 shell pairs
 There are      7169 function pairs
 Smallest overlap matrix eigenvalue = 5.32E-03
 Guess from superposition of atomic densities
 Warning:  Energy on first SCF cycle will be non-variational
 SAD guess density has 58.000000 electrons

 -----------------------------------------------------------------------
  General SCF calculation program by
  Eric Jon Sundstrom, Paul Horn, Yuezhi Mao, Dmitri Zuev, Alec White,
  David Stuck, Shaama M.S., Shane Yost, Joonho Lee, David Small,
  Daniel Levine, Susi Lehtola, Hugh Burton, Evgeny Epifanovsky
 -----------------------------------------------------------------------
 Exchange:     0.2000 Hartree-Fock + 0.0800 Slater + 0.7200 B88
 Correlation:  0.1900 VWN1RPA + 0.8100 LYP
 Using SG-1 standard quadrature grid
 using 12 threads for integral computing
 -------------------------------------------------------
 OpenMP Integral computing Module                
 Release: version 1.0, May 2013, Q-Chem Inc. Pittsburgh 
 -------------------------------------------------------
 -------------------------------------------------------
 OpenMP BLAS3 based DFT computing Module                
 Release: version 1.0, May 2013, Q-Chem Inc. Pittsburgh 
 -------------------------------------------------------
 A unrestricted SCF calculation will be
 performed using DIIS
 SCF converges when DIIS error is below 1.0e-06
 Alpha HF Exchange    Energy =  -6.83654150308954
 Beta HF Exchange     Energy =  -6.83654150308954
 DFT Correlation      Energy =  -2.70443168119100
 DFT Exchange         Energy = -53.83296908046879
 One-Electron (alpha) Energy = -880.20609721503331
 One-Electron (beta)  Energy = -880.20609721503331
 Total Coulomb        Energy = 660.47919646072432
 ---------------------------------------
  Cycle       Energy         DIIS error
 ---------------------------------------
    1    -915.8946644088      2.65e-02  
 Alpha HF Exchange    Energy =  -6.85508272364786
 Beta HF Exchange     Energy =  -6.85508272364786
 DFT Correlation      Energy =  -2.73034226858073
 DFT Exchange         Energy = -54.40758304583135
 One-Electron (alpha) Energy = -884.02881990571666
 One-Electron (beta)  Energy = -884.02881990571643
 Total Coulomb        Energy = 669.21731698592544
    2    -915.4395962588      2.42e-03  
 Alpha HF Exchange    Energy =  -6.80552141969570
 Beta HF Exchange     Energy =  -6.80552141969570
 DFT Correlation      Energy =  -2.70723087061983
 DFT Exchange         Energy = -53.98492238555486
 One-Electron (alpha) Energy = -880.17398315288199
 One-Electron (beta)  Energy = -880.17398315288256
 Total Coulomb        Energy = 660.97544149320254
    3    -915.4269035797      2.77e-03  
 Alpha HF Exchange    Energy =  -6.82730027915227
 Beta HF Exchange     Energy =  -6.82730027915227
 DFT Correlation      Energy =  -2.71869710469385
 DFT Exchange         Energy = -54.17212107004573
 One-Electron (alpha) Energy = -882.02539638999178
 One-Electron (beta)  Energy = -882.02539638999224
 Total Coulomb        Energy = 664.85952309148604
    4    -915.4878710932      5.97e-04  
 Alpha HF Exchange    Energy =  -6.82968246530140
 Beta HF Exchange     Energy =  -6.82968246530140
[...]
    2      S      -3.0565193646     0.6352222920    -0.0081418711
    3      C       0.0534992372     0.2208151112     0.0106273649
    4      C       1.3335082549    -0.6347362978    -0.0129086902
    5      C      -1.1619642856    -0.6686778742     0.0143315723
    6      H       0.0615604190     0.8578805918     0.9008196234
    7      H       0.0329256812     0.8777628059    -0.8635849381
    8      H       1.3770573856    -1.2862223382     0.8644264080
    9      H       1.3612533516    -1.2568860591    -0.9117597349
   10      H      -1.3315931688    -1.2587039698     0.9119463210
   11      H      -1.3409290613    -1.2358566238    -0.8964905299
   12      H       3.7385023661    -0.4842583853    -0.0182456502
   13      H      -2.7625628266     1.1707103031     1.1943386128
 ----------------------------------------------------------------
 Nuclear Repulsion Energy =   254.2413685371 hartrees
 There are       29 alpha and       29 beta electrons

                       Distance Matrix (Angstroms)
             S (  1)   S (  2)   C (  3)   C (  4)   C (  5)   H (  6)
   S (  2)  5.861865
   C (  3)  2.762823  3.137563
   C (  4)  1.848806  4.570028  1.539787
   C (  5)  4.130324  2.300000  1.506175  2.495852
   H (  6)  2.911882  3.255489  1.094696  2.163482  2.147849
   H (  7)  2.926358  3.214853  1.093732  2.168598  2.142423  1.764749
   H (  8)  2.436348  4.910186  2.179895  1.093640  2.747845  2.515757
   H (  9)  2.437027  4.890124  2.178215  1.093514  2.751411  3.073578
   H ( 10)  4.581271  2.721928  2.218070  2.889197  1.087482  2.533956
   H ( 11)  4.575456  2.689489  2.211150  2.880048  1.087804  3.095325
   H ( 12)  1.347929  6.886629  3.751961  2.409703  4.904044  4.020687
   H ( 13)  5.735033  1.348747  3.199012  4.636257  2.708815  2.856517
             H (  7)   H (  8)   H (  9)   H ( 10)   H ( 11)   H ( 12)
   H (  8)  3.078237
   H (  9)  2.514657  1.776499
   H ( 10)  3.094982  2.709207  3.252281
   H ( 11)  2.521100  3.238953  2.702307  1.808605
   H ( 12)  4.037450  2.645502  2.654550  5.212571  5.209303
   H ( 13)  3.483622  4.825123  5.228263  2.833633  3.490584  6.817120

 
 Applying Cartesian multipole field
    Component          Value
    ---------          -----
     (2,0,0)        1.00000E-11
     (0,2,0)        2.00000E-10
     (0,0,2)       -3.00000E-10
 Nucleus-field energy     =     0.0000000228 hartrees
 Requested basis set is 6-31G(d,p)
 There are 46 shells and 123 basis functions
 A cutoff of  1.0D-14 yielded    989 shell pairs
 There are      7169 function pairs
 Smallest overlap matrix eigenvalue = 5.33E-03
 Guess from superposition of atomic densities
 Warning:  Energy on first SCF cycle will be non-variational
 SAD guess density has 58.000000 electrons

 -----------------------------------------------------------------------
  General SCF calculation program by
  Eric Jon Sundstrom, Paul Horn, Yuezhi Mao, Dmitri Zuev, Alec White,
  David Stuck, Shaama M.S., Shane Yost, Joonho Lee, David Small,
  Daniel Levine, Susi Lehtola, Hugh Burton, Evgeny Epifanovsky
 -----------------------------------------------------------------------
 Exchange:     0.2000 Hartree-Fock + 0.0800 Slater + 0.7200 B88
 Correlation:  0.1900 VWN1RPA + 0.8100 LYP
 Using SG-1 standard quadrature grid
 using 12 threads for integral computing
 -------------------------------------------------------
 OpenMP Integral computing Module                
 Release: version 1.0, May 2013, Q-Chem Inc. Pittsburgh 
 -------------------------------------------------------
 -------------------------------------------------------
 OpenMP BLAS3 based DFT computing Module                
 Release: version 1.0, May 2013, Q-Chem Inc. Pittsburgh 
 -------------------------------------------------------
 A unrestricted SCF calculation will be
 performed using DIIS
 SCF converges when DIIS error is below 1.0e-06
 Alpha HF Exchange    Energy =  -6.83651577689617
 Beta HF Exchange     Energy =  -6.83651577689617
 DFT Correlation      Energy =  -2.70442334865728
 DFT Exchange         Energy = -53.83292517971615
 One-Electron (alpha) Energy = -880.19869957863750
 One-Electron (beta)  Energy = -880.19869957863750
 Total Coulomb        Energy = 660.47197603981658
 ---------------------------------------
  Cycle       Energy         DIIS error
 ---------------------------------------
    1    -915.8944346398      2.65e-02  
 Alpha HF Exchange    Energy =  -6.85507683016338
 Beta HF Exchange     Energy =  -6.85507683016338
 DFT Correlation      Energy =  -2.73033466874396
 DFT Exchange         Energy = -54.40753327230497
 One-Electron (alpha) Energy = -884.02153317023124
 One-Electron (beta)  Energy = -884.02153317023146
 Total Coulomb        Energy = 669.21011670820485
    2    -915.4396026738      2.42e-03  
 Alpha HF Exchange    Energy =  -6.80551727209278
 Beta HF Exchange     Energy =  -6.80551727209278
 DFT Correlation      Energy =  -2.70722597215054
 DFT Exchange         Energy = -53.98489451448376
 One-Electron (alpha) Energy = -880.16692093229142
 One-Electron (beta)  Energy = -880.16692093229108
 Total Coulomb        Energy = 660.96868589851078
    3    -915.4269424370      2.77e-03  
 Alpha HF Exchange    Energy =  -6.82729630323108
 Beta HF Exchange     Energy =  -6.82729630323109
 DFT Correlation      Energy =  -2.71869050350304
 DFT Exchange         Energy = -54.17208830930519
 One-Electron (alpha) Energy = -882.01826373495999
 One-Electron (beta)  Energy = -882.01826373496010
 Total Coulomb        Energy = 664.85265301968150
    4    -915.4878773096      5.96e-04  
 Alpha HF Exchange    Energy =  -6.82967732076229
 Beta HF Exchange     Energy =  -6.82967732076229
 DFT Correlation      Energy =  -2.71887862605506
 DFT Exchange         Energy = -54.18850679419577
 One-Electron (alpha) Energy = -882.16328980947526
 One-Electron (beta)  Energy = -882.16328980947515
 Total Coulomb        Energy = 665.16094895195079
    5    -915.4910021689      2.23e-04  
 Alpha HF Exchange    Energy =  -6.82920443922886
 Beta HF Exchange     Energy =  -6.82920443922885
 DFT Correlation      Energy =  -2.71882685736813
 DFT Exchange         Energy = -54.18554169857919
 One-Electron (alpha) Energy = -882.11382734686322
 One-Electron (beta)  Energy = -882.11382734686276
 Total Coulomb        Energy = 665.05763133016103
    6    -915.4914322381      7.20e-05  
 Alpha HF Exchange    Energy =  -6.82902217168081
 Beta HF Exchange     Energy =  -6.82902217168080
 DFT Correlation      Energy =  -2.71874615768645
 DFT Exchange         Energy = -54.18386718806553
 One-Electron (alpha) Energy = -882.10152542662399
 One-Electron (beta)  Energy = -882.10152542662365
 Total Coulomb        Energy = 665.03086693087789
    7    -915.4914730516      1.66e-05  
 Alpha HF Exchange    Energy =  -6.82905891133130
 Beta HF Exchange     Energy =  -6.82905891133129
 DFT Correlation      Energy =  -2.71876248994678
 DFT Exchange         Energy = -54.18415843264667
 One-Electron (alpha) Energy = -882.10616022996294
 One-Electron (beta)  Energy = -882.10616022996260
 Total Coulomb        Energy = 665.04051552397664
    8    -915.4914751213      3.73e-06  
 Alpha HF Exchange    Energy =  -6.82907234054985
 Beta HF Exchange     Energy =  -6.82907234054984
 DFT Correlation      Energy =  -2.71876720945819
 DFT Exchange         Energy = -54.18426489624834
 One-Electron (alpha) Energy = -882.10706312924617
 One-Electron (beta)  Energy = -882.10706312924617
 Total Coulomb        Energy = 665.04245926420981
    9    -915.4914752212      8.06e-07  Convergence criterion met
 ---------------------------------------
 SCF time:   CPU 27.76s  wall 2.00s 
<S^2> =         -0.000000000
 Alpha HF Exchange    Energy =  -6.82907234054985
 Beta HF Exchange     Energy =  -6.82907234054984
 DFT Correlation      Energy =  -2.71876720945819
 DFT Exchange         Energy = -54.18426489624834
 One-Electron (alpha) Energy = -882.10706312924617
 One-Electron (beta)  Energy = -882.10706312924617
 Total Coulomb        Energy = 665.04245926420981
 Nuclear repulsion Energy = 254.24136855986109
 SCF   energy in the final basis set =     -915.4914752212
 Total energy in the final basis set =     -915.4914752212
 
 --------------------------------------------------------------
 
                    Orbital Energies (a.u.)
 --------------------------------------------------------------
 
 Alpha MOs
 -- Occupied --
-88.884 -88.873 -10.254 -10.237 -10.214  -7.946  -7.933  -5.911
 -5.907  -5.900  -5.897  -5.895  -5.887  -0.829  -0.758  -0.696
 -0.650  -0.607  -0.500  -0.461  -0.435  -0.416  -0.389  -0.377
 -0.365  -0.338  -0.292  -0.246  -0.236
 -- Virtual --
 -0.060   0.021   0.053   0.067   0.095   0.115   0.134   0.140
  0.157   0.185   0.192   0.234   0.326   0.347   0.359   0.364
  0.379   0.382   0.391   0.413   0.500   0.510   0.524   0.551
  0.576   0.613   0.654   0.669   0.688   0.729   0.742   0.765
  0.772   0.828   0.831   0.840   0.857   0.869   0.873   0.890
  0.899   0.914   0.931   0.994   1.108   1.116   1.149   1.156
  1.311   1.343   1.379   1.562   1.608   1.654   1.657   1.806
  1.837   1.911   1.994   2.016   2.056   2.079   2.084   2.094
  2.101   2.114   2.200   2.218   2.221   2.290   2.297   2.416
  2.474   2.526   2.611   2.613   2.693   2.739   2.748   2.780
  2.799   2.803   2.860   3.191   3.238   3.329   3.338   3.469
  3.512   3.970   3.977   4.230   4.407   4.603
 
 Beta MOs
 -- Occupied --
-88.884 -88.873 -10.254 -10.237 -10.214  -7.946  -7.933  -5.911
 -5.907  -5.900  -5.897  -5.895  -5.887  -0.829  -0.758  -0.696
 -0.650  -0.607  -0.500  -0.461  -0.435  -0.416  -0.389  -0.377
 -0.365  -0.338  -0.292  -0.246  -0.236
 -- Virtual --
 -0.060   0.021   0.053   0.067   0.095   0.115   0.134   0.140
  0.157   0.185   0.192   0.234   0.326   0.347   0.359   0.364
  0.379   0.382   0.391   0.413   0.500   0.510   0.524   0.551
  0.576   0.613   0.654   0.669   0.688   0.729   0.742   0.765
  0.772   0.828   0.831   0.840   0.857   0.869   0.873   0.890
  0.899   0.914   0.931   0.994   1.108   1.116   1.149   1.156
  1.311   1.343   1.379   1.562   1.608   1.654   1.657   1.806
  1.837   1.911   1.994   2.016   2.056   2.079   2.084   2.094
  2.101   2.114   2.200   2.218   2.221   2.290   2.297   2.416
  2.474   2.526   2.611   2.613   2.693   2.739   2.748   2.780
  2.799   2.803   2.860   3.191   3.238   3.329   3.338   3.469
  3.512   3.970   3.977   4.230   4.407   4.603
 --------------------------------------------------------------
 
          Ground-State Mulliken Net Atomic Charges

     Atom                 Charge (a.u.)    Spin (a.u.)
  --------------------------------------------------------
      1 S                    -0.034725      -0.000000
      2 S                    -0.184586      -0.000000
      3 C                    -0.177747       0.000000
      4 C                    -0.334635      -0.000000
      5 C                    -0.254131      -0.000000
      6 H                     0.131734      -0.000000
      7 H                     0.148073      -0.000000
      8 H                     0.139238      -0.000000
      9 H                     0.141293       0.000000
     10 H                     0.153042      -0.000000
     11 H                     0.153062       0.000000
     12 H                     0.059958      -0.000000
     13 H                     0.059425       0.000000
  --------------------------------------------------------
  Sum of atomic charges =    -0.000000
  Sum of spin   charges =    -0.000000

 -----------------------------------------------------------------
                    Cartesian Multipole Moments
 -----------------------------------------------------------------
    Charge (ESU x 10^10)
                -0.0000
    Dipole Moment (Debye)
         X       1.7354      Y      -2.3393      Z       0.7498
       Tot       3.0077
    Quadrupole Moments (Debye-Ang)
        XX     -56.3355     XY      -3.3197     YY     -46.5558
        XZ      -2.0133     YZ       1.9129     ZZ     -46.6073
    Octopole Moments (Debye-Ang^2)
       XXX      53.5543    XXY     -19.5704    XYY       1.4096
       YYY     -24.7939    XXZ       3.4416    XYZ      -5.3553
       YYZ       1.6589    XZZ      -5.7468    YZZ      -9.2151
       ZZZ      -1.3138
    Hexadecapole Moments (Debye-Ang^3)
      XXXX   -1676.6156   XXXY      -9.8874   XXYY    -300.6530
      XYYY      35.2278   YYYY    -177.3062   XXXZ      -1.8343
      XXYZ      15.1741   XYYZ      -4.2029   YYYZ       0.8294
      XXZZ    -293.1450   XYZZ       6.1513   YYZZ     -39.9351
      XZZZ       5.3238   YZZZ      -0.1696   ZZZZ     -82.0355
 -----------------------------------------------------------------
 Calculating analytic gradient of the SCF energy
 Gradient of SCF Energy
            1           2           3           4           5           6
    1   0.0000020  -0.0422286  -0.0000408   0.0000168   0.0422618  -0.0000035
    2  -0.0000071   0.0290185   0.0000225  -0.0000175  -0.0290816   0.0000168
    3   0.0000001  -0.0004675   0.0000203   0.0000258   0.0005146  -0.0000104
            7           8           9          10          11          12
    1   0.0000305  -0.0000042  -0.0000032  -0.0000231  -0.0000282  -0.0000076
    2  -0.0000260   0.0000047  -0.0000084  -0.0000160   0.0000567  -0.0000207
    3  -0.0000215   0.0000086   0.0000048  -0.0000222  -0.0000298   0.0000086
           13
    1   0.0000282
    2   0.0000582
    3  -0.0000313
 Max gradient component =       4.226E-02
 RMS gradient           =       1.161E-02
 Gradient time:  CPU 11.05 s  wall 0.98 s
 Geometry Optimization Parameters
   NAtoms,    NIC,     NZ,  NCons,   NDum,   NFix, NCnnct, MaxDiis
       13      82       0       1       0       0       0       0

 Cartesian Hessian Update
 Hessian Updated using BFGS Update


** CONSTRAINED OPTIMIZATION IN DELOCALIZED INTERNAL COORDINATES **
   Searching for a Minimum

   Optimization Cycle:   6

                       Coordinates (Angstroms)
     ATOM                X               Y               Z
      1  S         2.8034600113    0.4865504440   -0.0064594879
      2  S        -3.0565193646    0.6352222920   -0.0081418711
      3  C         0.0534992372    0.2208151112    0.0106273649
      4  C         1.3335082549   -0.6347362978   -0.0129086902
      5  C        -1.1619642856   -0.6686778742    0.0143315723
      6  H         0.0615604190    0.8578805918    0.9008196234
      7  H         0.0329256812    0.8777628059   -0.8635849381
      8  H         1.3770573856   -1.2862223382    0.8644264080
      9  H         1.3612533516   -1.2568860591   -0.9117597349
     10  H        -1.3315931688   -1.2587039698    0.9119463210
     11  H        -1.3409290613   -1.2358566238   -0.8964905299
     12  H         3.7385023661   -0.4842583853   -0.0182456502
     13  H        -2.7625628266    1.1707103031    1.1943386128
   Point Group: c1    Number of degrees of freedom:    33


   Energy is   -915.491475221

              Constraints and their Current Values
                                        Value     Constraint
   Distance(Angs):        2   5             2.300000     2.300000
 Hessian Updated using BFGS Update

 32 Hessian modes will be used to form the next step
  Hessian Eigenvalues:
     0.015943    0.045000    0.045000    0.045002    0.047379    0.070044
     0.078770    0.079563    0.079700    0.084794    0.100458    0.123634
     0.126663    0.129977    0.142240    0.142749    0.166890    0.182399
     0.220039    0.222322    0.227526    0.253778    0.257977    0.258141
     0.293811    0.314326    0.342364    0.343628    0.343875    0.344019
     0.348833    0.350069

 Minimum Search - Taking Simple RFO Step
 Searching for Lamda that Minimizes Along All modes
 Value Taken    Lamda =   0.00000000
 Step Taken.  Stepsize is  0.005031

                             Maximum     Tolerance    Cnvgd?
         Gradient           0.000076      0.000300     YES
         Displacement       0.003182      0.001200      NO
         Energy change     -0.000001      0.000001     YES


                       Distance Matrix (Angstroms)
             S (  1)   S (  2)   C (  3)   C (  4)   C (  5)   H (  6)
   S (  2)  5.861865
   C (  3)  2.762823  3.137563
   C (  4)  1.848806  4.570028  1.539787
   C (  5)  4.130324  2.300000  1.506175  2.495852
   H (  6)  2.911882  3.255489  1.094696  2.163482  2.147849
   H (  7)  2.926358  3.214853  1.093732  2.168598  2.142423  1.764749
   H (  8)  2.436348  4.910186  2.179895  1.093640  2.747845  2.515757
   H (  9)  2.437027  4.890124  2.178215  1.093514  2.751411  3.073578
   H ( 10)  4.581271  2.721928  2.218070  2.889197  1.087482  2.533956
   H ( 11)  4.575456  2.689489  2.211150  2.880048  1.087804  3.095325
   H ( 12)  1.347929  6.886629  3.751961  2.409703  4.904044  4.020687
   H ( 13)  5.735033  1.348747  3.199012  4.636257  2.708815  2.856517
             H (  7)   H (  8)   H (  9)   H ( 10)   H ( 11)   H ( 12)
   H (  8)  3.078237
   H (  9)  2.514657  1.776499
   H ( 10)  3.094982  2.709207  3.252281
   H ( 11)  2.521100  3.238953  2.702307  1.808605
   H ( 12)  4.037450  2.645502  2.654550  5.212571  5.209303
   H ( 13)  3.483622  4.825123  5.228263  2.833633  3.490584  6.817120

 
 Final energy is   -915.491475221228     


 ******************************
 **  OPTIMIZATION CONVERGED  **
 ******************************

                       Coordinates (Angstroms)
     ATOM                X               Y               Z
      1  S         2.8034600113    0.4865504440   -0.0064594879
      2  S        -3.0565193646    0.6352222920   -0.0081418711
      3  C         0.0534992372    0.2208151112    0.0106273649
      4  C         1.3335082549   -0.6347362978   -0.0129086902
      5  C        -1.1619642856   -0.6686778742    0.0143315723
      6  H         0.0615604190    0.8578805918    0.9008196234
      7  H         0.0329256812    0.8777628059   -0.8635849381
      8  H         1.3770573856   -1.2862223382    0.8644264080
      9  H         1.3612533516   -1.2568860591   -0.9117597349
     10  H        -1.3315931688   -1.2587039698    0.9119463210
     11  H        -1.3409290613   -1.2358566238   -0.8964905299
     12  H         3.7385023661   -0.4842583853   -0.0182456502
     13  H        -2.7625628266    1.1707103031    1.1943386128

Z-matrix Print:
$molecule
0 1
S 
H  1 1.347929
C  1 1.848806 2 96.586249
H  3 1.093514 1 109.132580 2 -59.796462 0
H  3 1.093640 1 109.076569 2 58.743756 0
C  3 1.539787 1 108.899222 2 179.533237 0
H  6 1.093732 3 109.703759 1 59.224188 0
H  6 1.094696 3 109.248170 1 -58.370137 0
C  6 1.506175 3 110.044044 1 -179.658391 0
H  9 1.087482 6 116.636196 3 68.127163 0
H  9 1.087804 6 116.016168 3 -68.013336 0
S  9 2.300000 6 109.263213 3 -178.476821 0
H  12 1.348747 9 92.111258 6 -63.541978 0
$end

PES scan, value:    2.3000 energy: -915.4914752212
------- Summary of potential scan: ------ 
    2.3000      -915.4914752212
----------------------------------------- 
Archival summary:
1\1\hpc0250\JobtypUnspecified\ProcedureUnspecified\6-31G**\238\knomura\ThuMar1405:38:332019ThuMar1405:38:332019\0\\#,JobtypUnspecified,ProcedureUnspecified,6-31G**,\\0,1\S\H,1,1.34793\C,1,1.84881,2,96.5862\H,3,1.09351,1,109.133,2,-59.7965,0\H,3,1.09364,1,109.077,2,58.7438,0\C,3,1.53979,1,108.899,2,179.533,0\H,6,1.09373,3,109.704,1,59.2242,0\H,6,1.0947,3,109.248,1,-58.3701,0\C,6,1.50617,3,110.044,1,-179.658,0\H,9,1.08748,6,116.636,3,68.1272,0\H,9,1.0878,6,116.016,3,-68.0133,0\S,9,2.3,6,109.263,3,-178.477,0\H,12,1.34875,9,92.1113,6,-63.542,0\\\@

 Total job time:  23.63s(wall), 268.49s(cpu) 
 Thu Mar 14 05:38:33 2019

        *************************************************************
        *                                                           *
        *  Thank you very much for using Q-Chem.  Have a nice day.  *
        *                                                           *
        *************************************************************


