
Running Job 1 of 1 thiol/04/C-S.xyz.data/inputs/bond_singlet_2.7.in
qchem thiol/04/C-S.xyz.data/inputs/bond_singlet_2.7.in_4450.0 /staging/scratch/2868767/qchem4450/ 1
/usr/usc/qchem/5.1.1/exe/qcprog.exe_s thiol/04/C-S.xyz.data/inputs/bond_singlet_2.7.in_4450.0 /staging/scratch/2868767/qchem4450/
Check license passed

                  Welcome to Q-Chem
     A Quantum Leap Into The Future Of Chemistry


 Q-Chem 5.1, Q-Chem, Inc., Pleasanton, CA (2018)

 Yihan Shao,  Zhengting Gan,  E. Epifanovsky,  A. T. B. Gilbert,  M. Wormit,  
 J. Kussmann,  A. W. Lange,  A. Behn,  Jia Deng,  Xintian Feng,  D. Ghosh,  
 M. Goldey,  P. R. Horn,  L. D. Jacobson,  I. Kaliman,  T. Kus,  A. Landau,  
 Jie Liu,  E. I. Proynov,  R. M. Richard,  R. P. Steele,  E. J. Sundstrom,  
 H. L. Woodcock III,  P. M. Zimmerman,  D. Zuev,  B. Albrecht,  E. Alguire,  
 S. A. Baeppler,  D. Barton,  Z. Benda,  Y. A. Bernard,  E. J. Berquist,  
 K. B. Bravaya,  H. Burton,  D. Casanova,  Chun-Min Chang,  Yunqing Chen,  
 A. Chien,  K. D. Closser,  M. P. Coons,  S. Coriani,  S. Dasgupta,  
 A. L. Dempwolff,  M. Diedenhofen,  Hainam Do,  R. G. Edgar,  Po-Tung Fang,  
 S. Faraji,  S. Fatehi,  Qingguo Feng,  K. D. Fenk,  J. Fosso-Tande,  
 Qinghui Ge,  A. Ghysels,  G. Gidofalvi,  J. Gomes,  J. Gonthier,  A. Gunina,  
 D. Hait,  M. W. D. Hanson-Heine,  P. H. P. Harbach,  A. W. Hauser,  
 J. E. Herr,  E. G. Hohenstein,  Z. C. Holden,  Kerwin Hui,  B. C. Huynh,  
 T.-C. Jagau,  Hyunjun Ji,  B. Kaduk,  K. Khistyaev,  Jaehoon Kim,  
 P. Klunzinger,  K. Koh,  D. Kosenkov,  L. Koulias,  T. Kowalczyk,  
 C. M. Krauter,  A. Kunitsa,  Ka Un Lao,  A. Laurent,  K. V. Lawler,  
 Joonho Lee,  D. Lefrancois,  S. Lehtola,  D. S. Levine,  Yi-Pei Li,  
 You-Sheng Lin,  Fenglai Liu,  E. Livshits,  A. Luenser,  P. Manohar,  
 E. Mansoor,  S. F. Manzer,  Shan-Ping Mao,  Yuezhi Mao,  N. Mardirossian,  
 A. V. Marenich,  T. Markovich,  L. A. Martinez-Martinez,  S. A. Maurer,  
 N. J. Mayhall,  S. C. McKenzie,  J.-M. Mewes,  A. F. Morrison,  
 J. W. Mullinax,  K. Nanda,  T. S. Nguyen-Beck,  R. Olivares-Amaya,  
 J. A. Parkhill,  T. M. Perrine,  F. Plasser,  P. Pokhilko,  S. Prager,  
 A. Prociuk,  E. Ramos,  D. R. Rehn,  F. Rob,  M. Schneider,  N. Sergueev,  
 S. M. Sharada,  S. Sharma,  D. W. Small,  T. Stauch,  T. Stein,  
 Yu-Chuan Su,  A. J. W. Thom,  A. Tkatchenko,  T. Tsuchimochi,  N. M. Tubman,  
 L. Vogt,  M. L. Vidal,  O. Vydrov,  M. A. Watson,  J. Wenzel,  
 M. de Wergifosse,  T. A. Wesolowski,  A. White,  J. Witte,  A. Yamada,  
 Jun Yang,  K. Yao,  S. Yeganeh,  S. R. Yost,  Zhi-Qiang You,  A. Zech,  
 Igor Ying Zhang,  Xing Zhang,  Yan Zhao,  Ying Zhu,  B. R. Brooks,  
 G. K. L. Chan,  C. J. Cramer,  M. S. Gordon,  W. J. Hehre,  A. Klamt,  
 M. W. Schmidt,  C. D. Sherrill,  D. G. Truhlar,  A. Aspuru-Guzik,  R. Baer,  
 A. T. Bell,  N. A. Besley,  Jeng-Da Chai,  A. E. DePrince, III,  
 R. A. DiStasio Jr.,  A. Dreuw,  B. D. Dunietz,  T. R. Furlani,  
 Chao-Ping Hsu,  Yousung Jung,  Jing Kong,  D. S. Lambrecht,  WanZhen Liang,  
 C. Ochsenfeld,  V. A. Rassolov,  L. V. Slipchenko,  J. E. Subotnik,  
 T. Van Voorhis,  J. M. Herbert,  A. I. Krylov,  P. M. W. Gill,  M. Head-Gordon

 Contributors to earlier versions of Q-Chem not listed above: 
 R. D. Adamson,  B. Austin,  J. Baker,  G. J. O. Beran,  K. Brandhorst,  
 S. T. Brown,  E. F. C. Byrd,  A. K. Chakraborty,  C.-L. Cheng,  
 Siu Hung Chien,  D. M. Chipman,  D. L. Crittenden,  H. Dachsel,  
 R. J. Doerksen,  A. D. Dutoi,  L. Fusti-Molnar,  W. A. Goddard III,  
 A. Golubeva-Zadorozhnaya,  S. R. Gwaltney,  G. Hawkins,  A. Heyden,  
 S. Hirata,  G. Kedziora,  F. J. Keil,  C. Kelley,  Jihan Kim,  R. A. King,  
 R. Z. Khaliullin,  P. P. Korambath,  W. Kurlancheek,  A. M. Lee,  M. S. Lee,  
 S. V. Levchenko,  Ching Yeh Lin,  D. Liotard,  R. C. Lochan,  I. Lotan,  
 P. E. Maslen,  N. Nair,  D. P. O'Neill,  D. Neuhauser,  E. Neuscamman,  
 C. M. Oana,  R. Olson,  B. Peters,  R. Peverati,  P. A. Pieniazek,  
 Y. M. Rhee,  J. Ritchie,  M. A. Rohrdanz,  E. Rosta,  N. J. Russ,  
 H. F. Schaefer III,  N. E. Schultz,  N. Shenvi,  A. C. Simmonett,  A. Sodt,  
 D. Stuck,  K. S. Thanthiriwatte,  V. Vanovschi,  Tao Wang,  A. Warshel,  
 C. F. Williams,  Q. Wu,  X. Xu,  W. Zhang

 Please cite Q-Chem as follows:
 Y. Shao et al., Mol. Phys. 113, 184-215 (2015)
 DOI: 10.1080/00268976.2014.952696

 Q-Chem 5.1.1 for Intel X86 EM64T Linux

 Parts of Q-Chem use Armadillo 8.300.2 (Tropical Shenanigans).
 http://arma.sourceforge.net/

 Q-Chem begins on Thu Mar 14 05:39:49 2019  

Host: 
0

     Scratch files written to /staging/scratch/2868767/qchem4450//
 Aug318 |scratch|qcdevops|jenkins|workspace|build_RNUM 6013   
Processing $rem in /usr/usc/qchem/5.1.1/config/preferences.
 MEM_TOTAL  2000 
Input Ideriv = 2
Curr. Ideriv = -1
Max.  Ideriv = 2

Checking the input file for inconsistencies... 	...done.

--------------------------------------------------------------
User input:
--------------------------------------------------------------

$comment
potential surface scanner
$end

$rem
JOBTYPE  PES_SCAN
UNRESTRICTED TRUE
SYM_IGNORE  TRUE
GEOM_OPT_MAX_CYCLES 400
SCF_MAX_CYCLES 400
METHOD   B3LYP
BASIS   6-31G**
PDB_PRINT 2
SCF_CONVERGENCE 6
THRESH 14
SCF_PRINT 1
$end
$molecule
0 1
S 2.828411 0.496204 -0.008456
S -3.220999 0.774178 -0.033678
C 0.083022 0.186809 0.025008
C 1.379925 -0.652884 -0.022773
C -1.098961 -0.726927 0.026658
H 0.090269 0.809239 0.924571
H 0.046976 0.850378 -0.843089
H 1.440041 -1.317821 0.843056
H 1.408700 -1.257739 -0.932896
H -1.351670 -1.257236 0.939501
H -1.338410 -1.260797 -0.887653
H 3.779222 -0.458148 -0.053019
H -2.938333 1.238344 1.201667
$end
$scan
stre 2 5 2.700000 2.701000 0.100000
$end
--------------------------------------------------------------
 ----------------------------------------------------------------
             Standard Nuclear Orientation (Angstroms)
    I     Atom           X                Y                Z
 ----------------------------------------------------------------
    1      S       2.8284110000     0.4962040000    -0.0084560000
    2      S      -3.2209990000     0.7741780000    -0.0336780000
    3      C       0.0830220000     0.1868090000     0.0250080000
    4      C       1.3799250000    -0.6528840000    -0.0227730000
    5      C      -1.0989610000    -0.7269270000     0.0266580000
    6      H       0.0902690000     0.8092390000     0.9245710000
    7      H       0.0469760000     0.8503780000    -0.8430890000
    8      H       1.4400410000    -1.3178210000     0.8430560000
    9      H       1.4087000000    -1.2577390000    -0.9328960000
   10      H      -1.3516700000    -1.2572360000     0.9395010000
   11      H      -1.3384100000    -1.2607970000    -0.8876530000
   12      H       3.7792220000    -0.4581480000    -0.0530190000
   13      H      -2.9383330000     1.2383440000     1.2016670000
 ----------------------------------------------------------------
 Nuclear Repulsion Energy =   248.1895960330 hartrees
 There are       29 alpha and       29 beta electrons
 Requested basis set is 6-31G(d,p)
 There are 46 shells and 123 basis functions

 Total QAlloc Memory Limit   2000 MB
 Mega-Array Size       188 MB
 MEM_STATIC part       192 MB
A total of 1 constraints
  
            1
    1   1.0100000
    2   2.0100000
    3   5.0100000
    4   2.7000000
    5   2.7010000
    6   0.1000000
    7   0.0000000
    8   0.0000000
    9   0.0000000
   10   0.0000000

                       Distance Matrix (Angstroms)
             S (  1)   S (  2)   C (  3)   C (  4)   C (  5)   H (  6)
   S (  2)  6.055846
   C (  3)  2.762970  3.356337
   C (  4)  1.848978  4.817170  1.545744
   C (  5)  4.113579  2.600000  1.493988  2.480484
   H (  6)  2.909631  3.447313  1.093931  2.167597  2.140169
   H (  7)  2.925480  3.367583  1.093259  2.170131  2.134835  1.768669
   H (  8)  2.437895  5.183668  2.185089  1.093350  2.731701  2.520499
   H (  9)  2.438542  5.135308  2.182137  1.093161  2.736945  3.075848
   H ( 10)  4.631010  2.927134  2.231570  2.958517  1.085528  2.519867
   H ( 11)  4.606782  2.900782  2.224631  2.916663  1.085503  3.100053
   H ( 12)  1.347893  7.107890  3.752859  2.407377  4.886232  4.021234
   H ( 13)  5.938898  1.349603  3.408642  4.870662  2.937044  3.071375
             H (  7)   H (  8)   H (  9)   H ( 10)   H ( 11)   H ( 12)
   H (  8)  3.079741
   H (  9)  2.511278  1.777244
   H ( 10)  3.094491  2.794033  3.335493
   H ( 11)  2.525538  3.273896  2.747484  1.827206
   H ( 12)  4.033127  2.648350  2.651962  5.286747  5.247001
   H ( 13)  3.639178  5.082592  5.448255  2.968863  3.629148  7.041155

 
 A cutoff of  1.0D-14 yielded    987 shell pairs
 There are      7154 function pairs
 
 -------------------------------------------------------
 OpenMP Integral Computing Module                       
 Release: version 1.0, May 2013, Q-Chem Inc. Pittsburgh 
 -------------------------------------------------------
 Integral Job Info:
 Integral job number is                      11
 Integral operator is                         1
 short-range coefficients                     0
 long-range coefficients              100000000
 Omega coefficients                           0
 if combine SR and LR in K                    0
 Integral screening is                        0
 Integral computing path is                   2
 max size of driver memory is            800000
 size of driver memory is                593474
 size of scratch memory is             15267112
 max col of scratch BK array               1296
 max len of scratch array in speh3          155
 max len of scratch index in speh4           18
 max int batch size is                      520
 min int batch size is                       52
 fixed nKL is                                52
 max L of basis functions is                  2
 order of int derivative is                   0
 number of shells is                         46
 number of basis is                         123
 number of cartesian basis is               123
 number of contracted shell pairs           987
 number of primitive shell pairs           3697
 maxK2 (contraction) of shell pair           36
 max number of K2 of shell pair               1
 max number of CS2 of shell pair             80
 max number of PS2 of shell pair            342
 mem total for path MDJ                  516588
 -------------------------------------------------------
 Smallest overlap matrix eigenvalue = 5.44E-03

 Scale SEOQF with 1.000000e-01/1.000000e+00/1.000000e+00

 Standard Electronic Orientation quadrupole field applied
 Nucleus-field energy     =     0.0000000263 hartrees
 Guess from superposition of atomic densities
 Warning:  Energy on first SCF cycle will be non-variational
 SAD guess density has 58.000000 electrons

 -----------------------------------------------------------------------
  General SCF calculation program by
  Eric Jon Sundstrom, Paul Horn, Yuezhi Mao, Dmitri Zuev, Alec White,
  David Stuck, Shaama M.S., Shane Yost, Joonho Lee, David Small,
  Daniel Levine, Susi Lehtola, Hugh Burton, Evgeny Epifanovsky
 -----------------------------------------------------------------------
 Exchange:     0.2000 Hartree-Fock + 0.0800 Slater + 0.7200 B88
 Correlation:  0.1900 VWN1RPA + 0.8100 LYP
 Using SG-1 standard quadrature grid
 using 12 threads for integral computing
 -------------------------------------------------------
 OpenMP Integral computing Module                
 Release: version 1.0, May 2013, Q-Chem Inc. Pittsburgh 
 -------------------------------------------------------
 -------------------------------------------------------
 OpenMP BLAS3 based DFT computing Module                
 Release: version 1.0, May 2013, Q-Chem Inc. Pittsburgh 
 -------------------------------------------------------
 A unrestricted SCF calculation will be
 performed using DIIS
 SCF converges when DIIS error is below 1.0e-06
 Alpha HF Exchange    Energy =  -6.82954775528764
 Beta HF Exchange     Energy =  -6.82954775528764
 DFT Correlation      Energy =  -2.70046403351353
 DFT Exchange         Energy = -53.82019243197472
 One-Electron (alpha) Energy = -874.14780948428381
 One-Electron (beta)  Energy = -874.14780948428381
 Total Coulomb        Energy = 654.44786060507988
 ---------------------------------------
  Cycle       Energy         DIIS error
 ---------------------------------------
    1    -915.8379142802      2.63e-02  
 Alpha HF Exchange    Energy =  -6.85138893239165
 Beta HF Exchange     Energy =  -6.85138893239166
 DFT Correlation      Energy =  -2.72614718834142
 DFT Exchange         Energy = -54.38790522058271
 One-Electron (alpha) Energy = -877.90949233045740
 One-Electron (beta)  Energy = -877.90949233045785
 Total Coulomb        Energy = 663.03322323079362
    2    -915.4129956445      2.32e-03  
 Alpha HF Exchange    Energy =  -6.80076961791061
 Beta HF Exchange     Energy =  -6.80076961791062
 DFT Correlation      Energy =  -2.70452405905417
 DFT Exchange         Energy = -53.96621124530493
 One-Electron (alpha) Energy = -874.09273883867729
 One-Electron (beta)  Energy = -874.09273883867763
 Total Coulomb        Energy = 654.85797883987823
    3    -915.4101773183      2.48e-03  
 Alpha HF Exchange    Energy =  -6.82409381721778
 Beta HF Exchange     Energy =  -6.82409381721778
 DFT Correlation      Energy =  -2.71457287209346
 DFT Exchange         Energy = -54.15576049714049
 One-Electron (alpha) Energy = -875.97597777015062
 One-Electron (beta)  Energy = -875.97597777015039
 Total Coulomb        Energy = 658.81955336121860
    4    -915.4613271234      4.57e-04  
 Alpha HF Exchange    Energy =  -6.82506047377281
 Beta HF Exchange     Energy =  -6.82506047377280
 DFT Correlation      Energy =  -2.71531637964673
 DFT Exchange         Energy = -54.16695931060724
 One-Electron (alpha) Energy = -876.03838078101762
 One-Electron (beta)  Energy = -876.03838078101728
 Total Coulomb        Energy = 658.95727517241085
    5    -915.4622869681      2.89e-04  
 Alpha HF Exchange    Energy =  -6.82522749177606
 Beta HF Exchange     Energy =  -6.82522749177605
 DFT Correlation      Energy =  -2.71497692966565
 DFT Exchange         Energy = -54.16599104928675
 One-Electron (alpha) Energy = -876.02639323116057
 One-Electron (beta)  Energy = -876.02639323115966
 Total Coulomb        Energy = 658.93162095530192
    6    -915.4629924102      1.20e-04  
 Alpha HF Exchange    Energy =  -6.82486948410155
 Beta HF Exchange     Energy =  -6.82486948410155
 DFT Correlation      Energy =  -2.71497731447682
 DFT Exchange         Energy = -54.16373966614432
 One-Electron (alpha) Energy = -876.00578461206271
 One-Electron (beta)  Energy = -876.00578461206260
 Total Coulomb        Energy = 658.88728574468803
    7    -915.4631433689      2.05e-05  
 Alpha HF Exchange    Energy =  -6.82489543805545
 Beta HF Exchange     Energy =  -6.82489543805544
 DFT Correlation      Energy =  -2.71497883981593
 DFT Exchange         Energy = -54.16387263853215
 One-Electron (alpha) Energy = -876.00922498774673
 One-Electron (beta)  Energy = -876.00922498774628
 Total Coulomb        Energy = 658.89434955169338
    8    -915.4631467189      4.63e-06  
 Alpha HF Exchange    Energy =  -6.82491631775853
 Beta HF Exchange     Energy =  -6.82491631775853
 DFT Correlation      Energy =  -2.71498701797863
 DFT Exchange         Energy = -54.16404278183565
 One-Electron (alpha) Energy = -876.01079368017417
 One-Electron (beta)  Energy = -876.01079368017395
 Total Coulomb        Energy = 658.89770686723227
    9    -915.4631468691      9.69e-07  Convergence criterion met
 ---------------------------------------
 SCF time:   CPU 28.11s  wall 2.00s 
<S^2> =          0.000000000
 Alpha HF Exchange    Energy =  -6.82491631775853
 Beta HF Exchange     Energy =  -6.82491631775853
 DFT Correlation      Energy =  -2.71498701797863
 DFT Exchange         Energy = -54.16404278183565
 One-Electron (alpha) Energy = -876.01079368017417
 One-Electron (beta)  Energy = -876.01079368017395
 Total Coulomb        Energy = 658.89770686723227
 Nuclear repulsion Energy = 248.18959605932224
 SCF   energy in the final basis set =     -915.4631468691
 Total energy in the final basis set =     -915.4631468691
 
 --------------------------------------------------------------
 
                    Orbital Energies (a.u.)
 --------------------------------------------------------------
 
 Alpha MOs
 -- Occupied --
-88.888 -88.865 -10.266 -10.243 -10.222  -7.950  -7.924  -5.915
 -5.912  -5.905  -5.889  -5.887  -5.879  -0.835  -0.761  -0.683
 -0.658  -0.612  -0.507  -0.468  -0.442  -0.420  -0.395  -0.374
 -0.368  -0.343  -0.268  -0.250  -0.227
 -- Virtual --
 -0.098   0.016   0.058   0.063   0.092   0.111   0.128   0.136
  0.150   0.182   0.188   0.236   0.325   0.344   0.358   0.362
  0.376   0.379   0.392   0.423   0.501   0.506   0.523   0.558
  0.572   0.611   0.647   0.678   0.690   0.726   0.738   0.756
  0.774   0.808   0.824   0.827   0.846   0.849   0.863   0.873
  0.890   0.906   0.921   0.978   1.093   1.115   1.141   1.154
  1.275   1.300   1.382   1.526   1.566   1.646   1.661   1.796
  1.835   1.927   1.956   2.003   2.049   2.071   2.079   2.092
  2.103   2.115   2.193   2.206   2.217   2.299   2.304   2.436
  2.462   2.483   2.593   2.607   2.689   2.742   2.745   2.761
  2.780   2.811   2.853   3.187   3.238   3.336   3.340   3.458
  3.504   3.970   3.984   4.219   4.388   4.586
 
 Beta MOs
 -- Occupied --
-88.888 -88.865 -10.266 -10.243 -10.222  -7.950  -7.924  -5.915
 -5.912  -5.905  -5.889  -5.887  -5.879  -0.835  -0.761  -0.683
 -0.658  -0.612  -0.507  -0.468  -0.442  -0.420  -0.395  -0.374
 -0.368  -0.343  -0.268  -0.250  -0.227
 -- Virtual --
 -0.098   0.016   0.058   0.063   0.092   0.111   0.128   0.136
  0.150   0.182   0.188   0.236   0.325   0.344   0.358   0.362
  0.376   0.379   0.392   0.423   0.501   0.506   0.523   0.558
  0.572   0.611   0.647   0.678   0.690   0.726   0.738   0.756
  0.774   0.808   0.824   0.827   0.846   0.849   0.863   0.873
  0.890   0.906   0.921   0.978   1.093   1.115   1.141   1.154
  1.275   1.300   1.382   1.526   1.566   1.646   1.661   1.796
  1.835   1.927   1.956   2.003   2.049   2.071   2.079   2.092
  2.103   2.115   2.193   2.206   2.217   2.299   2.304   2.436
  2.462   2.483   2.593   2.607   2.689   2.742   2.745   2.761
  2.780   2.811   2.853   3.187   3.238   3.336   3.340   3.458
  3.504   3.970   3.984   4.219   4.388   4.586
 --------------------------------------------------------------
 
          Ground-State Mulliken Net Atomic Charges

     Atom                 Charge (a.u.)    Spin (a.u.)
  --------------------------------------------------------
      1 S                    -0.028216       0.000000
      2 S                    -0.270586      -0.000000
      3 C                    -0.191771      -0.000000
      4 C                    -0.338610      -0.000000
      5 C                    -0.191170      -0.000000
      6 H                     0.140749       0.000000
      7 H                     0.157412       0.000000
      8 H                     0.142321       0.000000
      9 H                     0.144479       0.000000
     10 H                     0.159139       0.000000
     11 H                     0.160233      -0.000000
     12 H                     0.061772      -0.000000
     13 H                     0.054248       0.000000
  --------------------------------------------------------
  Sum of atomic charges =    -0.000000
  Sum of spin   charges =    -0.000000

 -----------------------------------------------------------------
                    Cartesian Multipole Moments
 -----------------------------------------------------------------
    Charge (ESU x 10^10)
                 0.0000
    Dipole Moment (Debye)
         X       2.5854      Y      -2.7804      Z       0.7855
       Tot       3.8771
    Quadrupole Moments (Debye-Ang)
        XX     -58.6868     XY      -2.1978     YY     -46.7542
        XZ      -2.4182     YZ       1.9442     ZZ     -46.4235
    Octopole Moments (Debye-Ang^2)
       XXX      71.7357    XXY     -24.0819    XYY       4.0377
       YYY     -30.4078    XXZ       4.1523    XYZ      -5.3370
       YYZ       2.2675    XZZ      -4.5951    YZZ     -10.8091
       ZZZ      -0.5049
    Hexadecapole Moments (Debye-Ang^3)
      XXXX   -1822.1577   XXXY      22.8772   XXYY    -324.6230
      XYYY      60.9272   YYYY    -198.5243   XXXZ      -8.9199
      XXYZ      16.5761   XYYZ      -5.7889   YYYZ       2.1090
      XXZZ    -308.9880   XYZZ      13.4661   YYZZ     -42.9765
      XZZZ       3.4637   YZZZ       0.4169   ZZZZ     -81.8346
 -----------------------------------------------------------------
 Calculating analytic gradient of the SCF energy
 Gradient of SCF Energy
            1           2           3           4           5           6
    1   0.0000333  -0.0387058  -0.0000624   0.0000162   0.0386572   0.0000303
    2  -0.0000068   0.0274151   0.0000438  -0.0000328  -0.0273227  -0.0000133
    3   0.0000002  -0.0011186  -0.0000151  -0.0000008   0.0011311  -0.0000013
            7           8           9          10          11          12
    1   0.0000308  -0.0000021  -0.0000113   0.0000045  -0.0000153  -0.0000016
    2  -0.0000054   0.0000062   0.0000063  -0.0000398  -0.0000247  -0.0000223
    3   0.0000133   0.0000097   0.0000061  -0.0000361   0.0000290   0.0000133
           13
    1   0.0000261
    2  -0.0000034
    3  -0.0000308
 Max gradient component =       3.871E-02
 RMS gradient           =       1.073E-02
 Gradient time:  CPU 10.88 s  wall 0.97 s
 Geometry Optimization Parameters
   NAtoms,    NIC,     NZ,  NCons,   NDum,   NFix, NCnnct, MaxDiis
       13      82       0       1       0       0       0       0


** CONSTRAINED OPTIMIZATION IN DELOCALIZED INTERNAL COORDINATES **
   Searching for a Minimum

   Optimization Cycle:   1

                       Coordinates (Angstroms)
     ATOM                X               Y               Z
      1  S         2.8284110000    0.4962040000   -0.0084560000
      2  S        -3.2209990000    0.7741780000   -0.0336780000
      3  C         0.0830220000    0.1868090000    0.0250080000
      4  C         1.3799250000   -0.6528840000   -0.0227730000
      5  C        -1.0989610000   -0.7269270000    0.0266580000
      6  H         0.0902690000    0.8092390000    0.9245710000
      7  H         0.0469760000    0.8503780000   -0.8430890000
      8  H         1.4400410000   -1.3178210000    0.8430560000
      9  H         1.4087000000   -1.2577390000   -0.9328960000
     10  H        -1.3516700000   -1.2572360000    0.9395010000
     11  H        -1.3384100000   -1.2607970000   -0.8876530000
     12  H         3.7792220000   -0.4581480000   -0.0530190000
     13  H        -2.9383330000    1.2383440000    1.2016670000
   Point Group: c1    Number of degrees of freedom:    33


   Energy is   -915.463146869

              Constraints and their Current Values
                                        Value     Constraint
   Distance(Angs):        2   5             2.600000     2.700000

 Attempting to Generate Delocalized Internal Coordinates

   Using Lagrange Multiplier Algorithm


 34 Hessian modes will be used to form the next step
  Hessian Eigenvalues:
    -0.978018    0.045000    0.045000    0.045000    0.045000    0.069456
     0.070875    0.079095    0.079931    0.083367    0.084839    0.099437
     0.123170    0.128862    0.131715    0.139377    0.141973    0.160000
     0.160000    0.219149    0.220314    0.220575    0.226093    0.256686
     0.258007    0.280161    0.330163    0.343623    0.344283    0.344387
     0.344499    0.353346    0.353375    1.022476

 Minimum Search - Taking P-RFO Step
 Searching for Lamda that Maximizes Along the Constraint modes Only
 Value Taken    Lamda =   0.02813459
 Searching for Lamda that Minimizes Along All other modes
 Value Taken    Lamda =  -0.00935281
 Step Taken.  Stepsize is  0.184989

                             Maximum     Tolerance    Cnvgd?
         Gradient            0.188972       0.000300      NO
         Displacement        0.184986       0.001200      NO
         Energy change     *********       0.000001      NO


 New Cartesian Coordinates Obtained by Inverse Iteration

 Displacement from previous Coordinates is:  0.235922
 ----------------------------------------------------------------
             Standard Nuclear Orientation (Angstroms)
    I     Atom           X                Y                Z
 ----------------------------------------------------------------
    1      S       2.8387336325     0.4945502139    -0.0101852084
    2      S      -3.2912893452     0.8137656210    -0.0282293486
    3      C       0.0944073164     0.1782748667     0.0261506468
    4      C       1.3932062964    -0.6581497848    -0.0253654456
    5      C      -1.0852653107    -0.7383289409     0.0272185124
    6      H       0.1011878785     0.7986077592     0.9271792745
    7      H       0.0554256626     0.8438207274    -0.8403332387
    8      H       1.4560834969    -1.3250397191     0.8387703760
    9      H       1.4223124387    -1.2608004901    -0.9369564825
   10      H      -1.3354455536    -1.2712648535     0.9392409000
   11      H      -1.3246055788    -1.2704626564    -0.8881466208
   12      H       3.7919288300    -0.4572432635    -0.0583528637
   13      H      -3.0084867637     1.2758705201     1.2079064986
 ----------------------------------------------------------------
 Nuclear Repulsion Energy =   246.1282310709 hartrees
 There are       29 alpha and       29 beta electrons

                       Distance Matrix (Angstroms)
             S (  1)   S (  2)   C (  3)   C (  4)   C (  5)   H (  6)
   S (  2)  6.138355
   C (  3)  2.762730  3.445250
   C (  4)  1.848918  4.910300  1.545684
   C (  5)  4.113290  2.697891  1.493918  2.480326
   H (  6)  2.909512  3.524477  1.093943  2.167671  2.140041
   H (  7)  2.925396  3.443968  1.093282  2.170195  2.134718  1.768683
   H (  8)  2.437900  5.278610  2.185056  1.093356  2.731538  2.520602
   H (  9)  2.438526  5.229498  2.182165  1.093176  2.736888  3.075961
   H ( 10)  4.630689  3.018058  2.231452  2.958364  1.085539  2.519610
   H ( 11)  4.606461  2.991874  2.224495  2.916474  1.085515  3.099895
   H ( 12)  1.347892  7.196412  3.752691  2.407347  4.886037  4.021194
   H ( 13)  6.023636  1.349648  3.497029  4.963496  3.024864  3.158586
             H (  7)   H (  8)   H (  9)   H ( 10)   H ( 11)   H ( 12)
   H (  8)  3.079803
   H (  9)  2.511403  1.777209
   H ( 10)  3.094349  2.793854  3.335484
   H ( 11)  2.525266  3.273752  2.747369  1.827420
   H ( 12)  4.033078  2.648410  2.651930  5.286567  5.246790
   H ( 13)  3.710729  5.180095  5.537790  3.059272  3.703067  7.131111

 
 Applying Cartesian multipole field
    Component          Value
    ---------          -----
     (2,0,0)        1.00000E-11
     (0,2,0)        2.00000E-10
     (0,0,2)       -3.00000E-10
 Nucleus-field energy     =     0.0000000275 hartrees
 Requested basis set is 6-31G(d,p)
 There are 46 shells and 123 basis functions
 A cutoff of  1.0D-14 yielded    982 shell pairs
 There are      7126 function pairs
 Smallest overlap matrix eigenvalue = 5.49E-03
 Guess from superposition of atomic densities
 Warning:  Energy on first SCF cycle will be non-variational
 SAD guess density has 58.000000 electrons

 -----------------------------------------------------------------------
  General SCF calculation program by
  Eric Jon Sundstrom, Paul Horn, Yuezhi Mao, Dmitri Zuev, Alec White,
  David Stuck, Shaama M.S., Shane Yost, Joonho Lee, David Small,
  Daniel Levine, Susi Lehtola, Hugh Burton, Evgeny Epifanovsky
 -----------------------------------------------------------------------
 Exchange:     0.2000 Hartree-Fock + 0.0800 Slater + 0.7200 B88
 Correlation:  0.1900 VWN1RPA + 0.8100 LYP
 Using SG-1 standard quadrature grid
 using 12 threads for integral computing
 -------------------------------------------------------
 OpenMP Integral computing Module                
 Release: version 1.0, May 2013, Q-Chem Inc. Pittsburgh 
 -------------------------------------------------------
 -------------------------------------------------------
 OpenMP BLAS3 based DFT computing Module                
 Release: version 1.0, May 2013, Q-Chem Inc. Pittsburgh 
 -------------------------------------------------------
 A unrestricted SCF calculation will be
 performed using DIIS
 SCF converges when DIIS error is below 1.0e-06
 Alpha HF Exchange    Energy =  -6.82794157645175
 Beta HF Exchange     Energy =  -6.82794157645175
 DFT Correlation      Energy =  -2.69930632507202
 DFT Exchange         Energy = -53.81726785136539
 One-Electron (alpha) Energy = -872.08726335377196
 One-Electron (beta)  Energy = -872.08726335377196
 Total Coulomb        Energy = 652.39337079517907
 ---------------------------------------
  Cycle       Energy         DIIS error
 ---------------------------------------
    1    -915.8253821433      2.62e-02  
 Alpha HF Exchange    Energy =  -6.85059337176471
 Beta HF Exchange     Energy =  -6.85059337176471
 DFT Correlation      Energy =  -2.72490625901044
 DFT Exchange         Energy = -54.38329007960289
 One-Electron (alpha) Energy = -875.82696690736009
 One-Electron (beta)  Energy = -875.82696690735986
 Total Coulomb        Energy = 660.93230139606021
    2    -915.4027844024      2.32e-03  
 Alpha HF Exchange    Energy =  -6.79953283701174
 Beta HF Exchange     Energy =  -6.79953283701174
 DFT Correlation      Energy =  -2.70392667456407
 DFT Exchange         Energy = -53.96290380778134
 One-Electron (alpha) Energy = -872.01418449057826
 One-Electron (beta)  Energy = -872.01418449057769
 Total Coulomb        Energy = 652.77719456377281
    3    -915.3888394754      2.66e-03  
 Alpha HF Exchange    Energy =  -6.82289018606575
 Beta HF Exchange     Energy =  -6.82289018606574
 DFT Correlation      Energy =  -2.71259094404768
 DFT Exchange         Energy = -54.14435837410640
 One-Electron (alpha) Energy = -873.83642655779920
 One-Electron (beta)  Energy = -873.83642655779875
 Total Coulomb        Energy = 656.60316338536643
    4    -915.4441883221      9.92e-04  
 Alpha HF Exchange    Energy =  -6.82353459060567
 Beta HF Exchange     Energy =  -6.82353459060567
 DFT Correlation      Energy =  -2.71426035037045
 DFT Exchange         Energy = -54.15954392786998
 One-Electron (alpha) Energy = -873.94960481310159
 One-Electron (beta)  Energy = -873.94960481310170
 Total Coulomb        Energy = 656.83924032492098
    5    -915.4526116624      4.16e-04  
 Alpha HF Exchange    Energy =  -6.82407883225302
 Beta HF Exchange     Energy =  -6.82407883225301
 DFT Correlation      Energy =  -2.71392306618472
 DFT Exchange         Energy = -54.16114717716024
 One-Electron (alpha) Energy = -873.95129825928723
 One-Electron (beta)  Energy = -873.95129825928620
 Total Coulomb        Energy = 656.84316054336205
    6    -915.4544327847      9.23e-05  
 Alpha HF Exchange    Energy =  -6.82371390351892
 Beta HF Exchange     Energy =  -6.82371390351892
 DFT Correlation      Energy =  -2.71385306413944
 DFT Exchange         Energy = -54.15838737930779
 One-Electron (alpha) Energy = -873.92681737242924
 One-Electron (beta)  Energy = -873.92681737242924
 Total Coulomb        Energy = 656.79056475918003
    7    -915.4545071378      2.17e-05  
 Alpha HF Exchange    Energy =  -6.82373436929433
 Beta HF Exchange     Energy =  -6.82373436929433
 DFT Correlation      Energy =  -2.71385586156778
 DFT Exchange         Energy = -54.15849225528509
 One-Electron (alpha) Energy = -873.93000039384219
 One-Electron (beta)  Energy = -873.93000039384219
 Total Coulomb        Energy = 656.79707582729247
    8    -915.4545107175      5.15e-06  
 Alpha HF Exchange    Energy =  -6.82375939379155
 Beta HF Exchange     Energy =  -6.82375939379155
 DFT Correlation      Energy =  -2.71386472360299
 DFT Exchange         Energy = -54.15869060747200
 One-Electron (alpha) Energy = -873.93185695961597
 One-Electron (beta)  Energy = -873.93185695961631
 Total Coulomb        Energy = 656.80104603008601
    9    -915.4545109094      9.99e-07  Convergence criterion met
 ---------------------------------------
 SCF time:   CPU 26.95s  wall 2.00s 
<S^2> =         -0.000000000
 Alpha HF Exchange    Energy =  -6.82375939379155
 Beta HF Exchange     Energy =  -6.82375939379155
 DFT Correlation      Energy =  -2.71386472360299
 DFT Exchange         Energy = -54.15869060747200
 One-Electron (alpha) Energy = -873.93185695961597
 One-Electron (beta)  Energy = -873.93185695961631
 Total Coulomb        Energy = 656.80104603008601
 Nuclear repulsion Energy = 246.12823109838283
 SCF   energy in the final basis set =     -915.4545109094
 Total energy in the final basis set =     -915.4545109094
 
 --------------------------------------------------------------
 
                    Orbital Energies (a.u.)
 --------------------------------------------------------------
 
 Alpha MOs
 -- Occupied --
-88.889 -88.864 -10.269 -10.245 -10.223  -7.952  -7.922  -5.917
 -5.913  -5.906  -5.887  -5.885  -5.877  -0.837  -0.762  -0.680
 -0.660  -0.614  -0.508  -0.469  -0.443  -0.422  -0.396  -0.375
 -0.366  -0.345  -0.262  -0.251  -0.225
 -- Virtual --
 -0.108   0.014   0.059   0.064   0.091   0.109   0.126   0.135
  0.148   0.181   0.187   0.235   0.324   0.343   0.358   0.362
  0.374   0.378   0.392   0.422   0.501   0.505   0.517   0.558
  0.570   0.612   0.648   0.683   0.692   0.726   0.737   0.754
  0.775   0.801   0.822   0.826   0.840   0.847   0.861   0.868
  0.888   0.904   0.920   0.971   1.080   1.112   1.137   1.152
  1.260   1.298   1.378   1.519   1.564   1.644   1.659   1.792
  1.833   1.926   1.952   2.001   2.047   2.069   2.078   2.090
  2.104   2.115   2.192   2.203   2.215   2.297   2.301   2.434
  2.457   2.478   2.590   2.605   2.687   2.741   2.746   2.759
  2.778   2.808   2.851   3.185   3.236   3.334   3.339   3.456
  3.502   3.969   3.984   4.215   4.383   4.582
 
 Beta MOs
 -- Occupied --
-88.889 -88.864 -10.269 -10.245 -10.223  -7.952  -7.922  -5.917
 -5.913  -5.906  -5.887  -5.885  -5.877  -0.837  -0.762  -0.680
 -0.660  -0.614  -0.508  -0.469  -0.443  -0.422  -0.396  -0.375
 -0.366  -0.345  -0.262  -0.251  -0.225
 -- Virtual --
 -0.108   0.014   0.059   0.064   0.091   0.109   0.126   0.135
  0.148   0.181   0.187   0.235   0.324   0.343   0.358   0.362
  0.374   0.378   0.392   0.422   0.501   0.505   0.517   0.558
  0.570   0.612   0.648   0.683   0.692   0.726   0.737   0.754
  0.775   0.801   0.822   0.826   0.840   0.847   0.861   0.868
  0.888   0.904   0.920   0.971   1.080   1.112   1.137   1.152
  1.260   1.298   1.378   1.519   1.564   1.644   1.659   1.792
  1.833   1.926   1.952   2.001   2.047   2.069   2.078   2.090
  2.104   2.115   2.192   2.203   2.215   2.297   2.301   2.434
  2.457   2.478   2.590   2.605   2.687   2.741   2.746   2.759
  2.778   2.808   2.851   3.185   3.236   3.334   3.339   3.456
  3.502   3.969   3.984   4.215   4.383   4.582
 --------------------------------------------------------------
 
          Ground-State Mulliken Net Atomic Charges

     Atom                 Charge (a.u.)    Spin (a.u.)
  --------------------------------------------------------
      1 S                    -0.026274      -0.000000
      2 S                    -0.287840       0.000000
      3 C                    -0.197272       0.000000
      4 C                    -0.339206      -0.000000
      5 C                    -0.174547       0.000000
      6 H                     0.143043       0.000000
      7 H                     0.159066      -0.000000
      8 H                     0.143150       0.000000
      9 H                     0.145244       0.000000
     10 H                     0.158922       0.000000
     11 H                     0.160247      -0.000000
     12 H                     0.062314       0.000000
     13 H                     0.053154      -0.000000
  --------------------------------------------------------
  Sum of atomic charges =     0.000000
  Sum of spin   charges =     0.000000

 -----------------------------------------------------------------
                    Cartesian Multipole Moments
 -----------------------------------------------------------------
    Charge (ESU x 10^10)
                -0.0000
    Dipole Moment (Debye)
         X       2.8425      Y      -2.8839      Z       0.7834
       Tot       4.1244
    Quadrupole Moments (Debye-Ang)
        XX     -59.4651     XY      -1.9509     YY     -46.7404
        XZ      -2.4733     YZ       1.9762     ZZ     -46.4132
    Octopole Moments (Debye-Ang^2)
       XXX      78.2201    XXY     -25.3011    XYY       5.0253
       YYY     -31.9184    XXZ       4.2484    XYZ      -5.5007
       YYZ       2.3715    XZZ      -3.9304    YZZ     -11.1769
       ZZZ      -0.6140
    Hexadecapole Moments (Debye-Ang^3)
      XXXX   -1881.4891   XXXY      33.7349   XXYY    -333.9748
      XYYY      70.0203   YYYY    -204.9106   XXXZ      -8.7555
      XXYZ      17.4418   XYYZ      -5.9688   YYYZ       2.1448
      XXZZ    -316.1932   XYZZ      15.9824   YYZZ     -43.8290
      XZZZ       4.5371   YZZZ       0.2459   ZZZZ     -81.8449
 -----------------------------------------------------------------
 Calculating analytic gradient of the SCF energy
 Gradient of SCF Energy
            1           2           3           4           5           6
    1   0.0000396  -0.0372123   0.0021171  -0.0001748   0.0331578  -0.0000450
    2  -0.0002253   0.0263707  -0.0008640   0.0006858  -0.0243320   0.0000648
    3  -0.0000077  -0.0007017  -0.0001913   0.0000875   0.0008963  -0.0000241
            7           8           9          10          11          12
    1  -0.0000696   0.0000188  -0.0000024   0.0011284   0.0011845   0.0000699
    2   0.0000266  -0.0000200  -0.0000102  -0.0009134  -0.0009486   0.0000371
    3   0.0000977   0.0000256  -0.0000151  -0.0002807   0.0002113   0.0000161
           13
    1  -0.0002119
    2   0.0001285
    3  -0.0001139
 Max gradient component =       3.721E-02
 RMS gradient           =       9.849E-03
 Gradient time:  CPU 10.87 s  wall 0.97 s
 Geometry Optimization Parameters
   NAtoms,    NIC,     NZ,  NCons,   NDum,   NFix, NCnnct, MaxDiis
       13      82       0       1       0       0       0       0

 Cartesian Hessian Update
 Hessian Updated using BFGS Update
**WARNING** Hereditary positive definiteness endangered


** CONSTRAINED OPTIMIZATION IN DELOCALIZED INTERNAL COORDINATES **
   Searching for a Minimum

   Optimization Cycle:   2

                       Coordinates (Angstroms)
     ATOM                X               Y               Z
      1  S         2.8387336325    0.4945502139   -0.0101852084
      2  S        -3.2912893452    0.8137656210   -0.0282293486
      3  C         0.0944073164    0.1782748667    0.0261506468
      4  C         1.3932062964   -0.6581497848   -0.0253654456
      5  C        -1.0852653107   -0.7383289409    0.0272185124
      6  H         0.1011878785    0.7986077592    0.9271792745
      7  H         0.0554256626    0.8438207274   -0.8403332387
      8  H         1.4560834969   -1.3250397191    0.8387703760
      9  H         1.4223124387   -1.2608004901   -0.9369564825
     10  H        -1.3354455536   -1.2712648535    0.9392409000
     11  H        -1.3246055788   -1.2704626564   -0.8881466208
     12  H         3.7919288300   -0.4572432635   -0.0583528637
     13  H        -3.0084867637    1.2758705201    1.2079064986
   Point Group: c1    Number of degrees of freedom:    33


   Energy is   -915.454510909

              Constraints and their Current Values
                                        Value     Constraint
   Distance(Angs):        2   5             2.697891     2.700000
 Hessian Updated using BFGS Update
**WARNING** Hereditary positive definiteness endangered

   Using Lagrange Multiplier Algorithm


 32 Hessian modes will be used to form the next step
  Hessian Eigenvalues:
    -1.004314    0.044985    0.045000    0.054948    0.070875    0.079030
     0.079930    0.083326    0.084836    0.099387    0.123161    0.128843
     0.129833    0.139364    0.141972    0.158386    0.160000    0.217379
     0.220258    0.220470    0.226089    0.256664    0.258006    0.279733
     0.324483    0.343621    0.344281    0.344383    0.344497    0.353342
     0.353372    0.995935

 Minimum Search - Taking P-RFO Step
 Searching for Lamda that Maximizes Along the Constraint modes Only
 Value Taken    Lamda =   0.00000511
 Searching for Lamda that Minimizes Along All other modes
 Value Taken    Lamda =  -0.00016432
 Step Taken.  Stepsize is  0.041125

                             Maximum     Tolerance    Cnvgd?
         Gradient            0.007130       0.000300      NO
         Displacement        0.031260       0.001200      NO
         Energy change      0.008636       0.000001      NO


 New Cartesian Coordinates Obtained by Inverse Iteration

 Displacement from previous Coordinates is:  0.034909
 ----------------------------------------------------------------
             Standard Nuclear Orientation (Angstroms)
    I     Atom           X                Y                Z
 ----------------------------------------------------------------
    1      S       2.8358968152     0.4972315686    -0.0097860729
    2      S      -3.2857553978     0.8140563020    -0.0302340188
    3      C       0.0930119390     0.1777409945     0.0267255209
    4      C       1.3928298710    -0.6586420919    -0.0250770731
    5      C      -1.0801853622    -0.7422639443     0.0274311049
    6      H       0.0986724344     0.7978378541     0.9278752729
    7      H       0.0533735355     0.8429110810    -0.8401631525
    8      H       1.4563147410    -1.3254512634     0.8390048239
    9      H       1.4225470527    -1.2611338036    -0.9367034289
   10      H      -1.3407652144    -1.2684977860     0.9405336804
   11      H      -1.3298945760    -1.2679659452    -0.8888108450
   12      H       3.7892537790    -0.4543479674    -0.0582509152
   13      H      -2.9971066174     1.2721250016     1.2063521036
 ----------------------------------------------------------------
 Nuclear Repulsion Energy =   246.2839451763 hartrees
 There are       29 alpha and       29 beta electrons

                       Distance Matrix (Angstroms)
             S (  1)   S (  2)   C (  3)   C (  4)   C (  5)   H (  6)
   S (  2)  6.129879
   C (  3)  2.761671  3.438635
   C (  4)  1.848978  4.904898  1.546527
   C (  5)  4.107729  2.699999  1.490906  2.474986
   H (  6)  2.908947  3.517469  1.093903  2.168939  2.138322
   H (  7)  2.924287  3.436073  1.093398  2.170984  2.133180  1.769193
   H (  8)  2.438415  5.274495  2.185859  1.093299  2.726278  2.521794
   H (  9)  2.438972  5.224578  2.183167  1.093134  2.731749  3.077119
   H ( 10)  4.633078  3.010383  2.232122  2.962578  1.085624  2.518310
   H ( 11)  4.608951  2.982845  2.225520  2.920709  1.085457  3.099790
   H ( 12)  1.347866  7.187864  3.750861  2.405345  4.878696  4.020050
   H ( 13)  6.008609  1.349922  3.483967  4.951345  3.020299  3.144256
             H (  7)   H (  8)   H (  9)   H ( 10)   H ( 11)   H ( 12)
   H (  8)  3.080527
   H (  9)  2.512163  1.777194
   H ( 10)  3.093954  2.799501  3.340654
   H ( 11)  2.524203  3.278965  2.752867  1.829377
   H ( 12)  4.031261  2.646978  2.650261  5.289377  5.249522
   H ( 13)  3.698362  5.168685  5.526611  3.044485  3.690713  7.115801

 
 Applying Cartesian multipole field
    Component          Value
    ---------          -----
     (2,0,0)        1.00000E-11
     (0,2,0)        2.00000E-10
     (0,0,2)       -3.00000E-10
 Nucleus-field energy     =     0.0000000275 hartrees
 Requested basis set is 6-31G(d,p)
 There are 46 shells and 123 basis functions
 A cutoff of  1.0D-14 yielded    983 shell pairs
 There are      7138 function pairs
 Smallest overlap matrix eigenvalue = 5.46E-03
 Guess from superposition of atomic densities
 Warning:  Energy on first SCF cycle will be non-variational
 SAD guess density has 58.000000 electrons

 -----------------------------------------------------------------------
  General SCF calculation program by
  Eric Jon Sundstrom, Paul Horn, Yuezhi Mao, Dmitri Zuev, Alec White,
  David Stuck, Shaama M.S., Shane Yost, Joonho Lee, David Small,
  Daniel Levine, Susi Lehtola, Hugh Burton, Evgeny Epifanovsky
 -----------------------------------------------------------------------
 Exchange:     0.2000 Hartree-Fock + 0.0800 Slater + 0.7200 B88
 Correlation:  0.1900 VWN1RPA + 0.8100 LYP
 Using SG-1 standard quadrature grid
 using 12 threads for integral computing
 -------------------------------------------------------
 OpenMP Integral computing Module                
 Release: version 1.0, May 2013, Q-Chem Inc. Pittsburgh 
 -------------------------------------------------------
 -------------------------------------------------------
 OpenMP BLAS3 based DFT computing Module                
 Release: version 1.0, May 2013, Q-Chem Inc. Pittsburgh 
 -------------------------------------------------------
 A unrestricted SCF calculation will be
 performed using DIIS
 SCF converges when DIIS error is below 1.0e-06
 Alpha HF Exchange    Energy =  -6.82818424221534
 Beta HF Exchange     Energy =  -6.82818424221534
 DFT Correlation      Energy =  -2.69938939836687
 DFT Exchange         Energy = -53.81773228819148
 One-Electron (alpha) Energy = -872.24205604694282
 One-Electron (beta)  Energy = -872.24205604694282
 Total Coulomb        Energy = 652.54601301181970
 ---------------------------------------
  Cycle       Energy         DIIS error
 ---------------------------------------
    1    -915.8276440493      2.62e-02  
 Alpha HF Exchange    Energy =  -6.85076440335005
 Beta HF Exchange     Energy =  -6.85076440335004
 DFT Correlation      Energy =  -2.72498729921794
 DFT Exchange         Energy = -54.38441963001540
 One-Electron (alpha) Energy = -875.98603608385145
 One-Electron (beta)  Energy = -875.98603608385076
 Total Coulomb        Energy = 661.09668676967328
    2    -915.4023759302      2.33e-03  
 Alpha HF Exchange    Energy =  -6.79958838934521
 Beta HF Exchange     Energy =  -6.79958838934521
 DFT Correlation      Energy =  -2.70406751863903
 DFT Exchange         Energy = -53.96367465315092
 One-Electron (alpha) Energy = -872.16768266623978
 One-Electron (beta)  Energy = -872.16768266623967
 Total Coulomb        Energy = 652.93158999239665
    3    -915.3867490868      2.69e-03  
 Alpha HF Exchange    Energy =  -6.82294012138095
 Beta HF Exchange     Energy =  -6.82294012138096
 DFT Correlation      Energy =  -2.71257372767448
 DFT Exchange         Energy = -54.14418464067473
 One-Electron (alpha) Energy = -873.98233545025005
 One-Electron (beta)  Energy = -873.98233545025028
 Total Coulomb        Energy = 656.74048137386285
    4    -915.4428829340      1.04e-03  
 Alpha HF Exchange    Energy =  -6.82359885015058
 Beta HF Exchange     Energy =  -6.82359885015058
 DFT Correlation      Energy =  -2.71434029804414
 DFT Exchange         Energy = -54.16010732283170
 One-Electron (alpha) Energy = -874.10489387388827
 One-Electron (beta)  Energy = -874.10489387388850
 Total Coulomb        Energy = 656.99495597290843
    5    -915.4525318923      4.13e-04  
 Alpha HF Exchange    Energy =  -6.82415698410263
 Beta HF Exchange     Energy =  -6.82415698410263
 DFT Correlation      Energy =  -2.71400958141557
 DFT Exchange         Energy = -54.16184100795391
 One-Electron (alpha) Energy = -874.10675715675313
 One-Electron (beta)  Energy = -874.10675715675279
 Total Coulomb        Energy = 656.99941088765172
    6    -915.4543227796      9.18e-05  
 Alpha HF Exchange    Energy =  -6.82379639376668
 Beta HF Exchange     Energy =  -6.82379639376668
 DFT Correlation      Energy =  -2.71393829670852
 DFT Exchange         Energy = -54.15909627883129
 One-Electron (alpha) Energy = -874.08251915576932
 One-Electron (beta)  Energy = -874.08251915576932
 Total Coulomb        Energy = 656.94732522186916
    7    -915.4543952490      2.20e-05  
 Alpha HF Exchange    Energy =  -6.82381691006585
 Beta HF Exchange     Energy =  -6.82381691006585
 DFT Correlation      Energy =  -2.71394102679736
 DFT Exchange         Energy = -54.15920090630497
 One-Electron (alpha) Energy = -874.08570250306877
 One-Electron (beta)  Energy = -874.08570250306877
 Total Coulomb        Energy = 656.95383663289215
    8    -915.4543989227      5.19e-06  
 Alpha HF Exchange    Energy =  -6.82384233112537
 Beta HF Exchange     Energy =  -6.82384233112537
 DFT Correlation      Energy =  -2.71394995799496
 DFT Exchange         Energy = -54.15940187539064
 One-Electron (alpha) Energy = -874.08758630356260
 One-Electron (beta)  Energy = -874.08758630356260
 Total Coulomb        Energy = 656.95786477987326
    9    -915.4543991191      1.00e-06  Convergence criterion met
 ---------------------------------------
 SCF time:   CPU 27.45s  wall 2.00s 
<S^2> =          0.000000000
 Alpha HF Exchange    Energy =  -6.82384233112537
 Beta HF Exchange     Energy =  -6.82384233112537
 DFT Correlation      Energy =  -2.71394995799496
 DFT Exchange         Energy = -54.15940187539064
 One-Electron (alpha) Energy = -874.08758630356260
 One-Electron (beta)  Energy = -874.08758630356260
 Total Coulomb        Energy = 656.95786477987326
 Nuclear repulsion Energy = 246.28394520378976
 SCF   energy in the final basis set =     -915.4543991191
 Total energy in the final basis set =     -915.4543991191
 
 --------------------------------------------------------------
 
                    Orbital Energies (a.u.)
 --------------------------------------------------------------
 
 Alpha MOs
 -- Occupied --
-88.890 -88.863 -10.269 -10.245 -10.224  -7.952  -7.922  -5.917
 -5.913  -5.906  -5.886  -5.885  -5.876  -0.838  -0.763  -0.680
 -0.660  -0.614  -0.509  -0.470  -0.444  -0.422  -0.396  -0.375
 -0.366  -0.345  -0.261  -0.251  -0.225
 -- Virtual --
 -0.108   0.014   0.059   0.064   0.091   0.109   0.126   0.135
  0.148   0.180   0.187   0.236   0.324   0.343   0.358   0.362
  0.374   0.378   0.392   0.422   0.500   0.504   0.517   0.559
  0.571   0.612   0.648   0.685   0.692   0.725   0.737   0.754
  0.776   0.801   0.822   0.826   0.841   0.846   0.861   0.868
  0.888   0.904   0.919   0.972   1.080   1.115   1.137   1.153
  1.259   1.297   1.381   1.519   1.558   1.643   1.662   1.792
  1.834   1.931   1.949   2.000   2.047   2.068   2.078   2.090
  2.105   2.115   2.191   2.202   2.215   2.300   2.305   2.438
  2.458   2.474   2.589   2.604   2.687   2.741   2.746   2.757
  2.777   2.811   2.851   3.185   3.236   3.335   3.340   3.454
  3.503   3.968   3.985   4.216   4.383   4.582
 
 Beta MOs
 -- Occupied --
-88.890 -88.863 -10.269 -10.245 -10.224  -7.952  -7.922  -5.917
 -5.913  -5.906  -5.886  -5.885  -5.876  -0.838  -0.763  -0.680
 -0.660  -0.614  -0.509  -0.470  -0.444  -0.422  -0.396  -0.375
 -0.366  -0.345  -0.261  -0.251  -0.225
 -- Virtual --
 -0.108   0.014   0.059   0.064   0.091   0.109   0.126   0.135
  0.148   0.180   0.187   0.236   0.324   0.343   0.358   0.362
  0.374   0.378   0.392   0.422   0.500   0.504   0.517   0.559
  0.571   0.612   0.648   0.685   0.692   0.725   0.737   0.754
  0.776   0.801   0.822   0.826   0.841   0.846   0.861   0.868
  0.888   0.904   0.919   0.972   1.080   1.115   1.137   1.153
  1.259   1.297   1.381   1.519   1.558   1.643   1.662   1.792
  1.834   1.931   1.949   2.000   2.047   2.068   2.078   2.090
  2.105   2.115   2.191   2.202   2.215   2.300   2.305   2.438
  2.458   2.474   2.589   2.604   2.687   2.741   2.746   2.757
  2.777   2.811   2.851   3.185   3.236   3.335   3.340   3.454
  3.503   3.968   3.985   4.216   4.383   4.582
 --------------------------------------------------------------
 
          Ground-State Mulliken Net Atomic Charges

     Atom                 Charge (a.u.)    Spin (a.u.)
  --------------------------------------------------------
      1 S                    -0.026017       0.000000
      2 S                    -0.290579       0.000000
      3 C                    -0.196891       0.000000
      4 C                    -0.339645       0.000000
      5 C                    -0.174891      -0.000000
      6 H                     0.143397      -0.000000
      7 H                     0.159612      -0.000000
      8 H                     0.143338      -0.000000
      9 H                     0.145476       0.000000
     10 H                     0.159835       0.000000
     11 H                     0.161346       0.000000
     12 H                     0.062297      -0.000000
     13 H                     0.052722      -0.000000
  --------------------------------------------------------
  Sum of atomic charges =     0.000000
  Sum of spin   charges =     0.000000

 -----------------------------------------------------------------
                    Cartesian Multipole Moments
 -----------------------------------------------------------------
    Charge (ESU x 10^10)
                 0.0000
    Dipole Moment (Debye)
         X       2.8712      Y      -2.9016      Z       0.7833
       Tot       4.1565
    Quadrupole Moments (Debye-Ang)
        XX     -59.5616     XY      -1.8704     YY     -46.7603
        XZ      -2.4602     YZ       1.9685     ZZ     -46.4018
    Octopole Moments (Debye-Ang^2)
       XXX      78.5385    XXY     -25.5358    XYY       5.0564
       YYY     -31.9971    XXZ       4.1681    XYZ      -5.4553
       YYZ       2.3743    XZZ      -3.9605    YZZ     -11.2247
       ZZZ      -0.5790
    Hexadecapole Moments (Debye-Ang^3)
      XXXX   -1878.7565   XXXY      34.5249   XXYY    -333.5212
      XYYY      69.7552   YYYY    -205.3383   XXXZ      -8.6972
      XXYZ      17.2506   XYYZ      -6.0119   YYYZ       2.2028
      XXZZ    -315.4608   XYZZ      15.9256   YYZZ     -43.9110
      XZZZ       4.2373   YZZZ       0.3024   ZZZZ     -81.8302
 -----------------------------------------------------------------
 Calculating analytic gradient of the SCF energy
 Gradient of SCF Energy
            1           2           3           4           5           6
    1  -0.0000614  -0.0369234   0.0007556  -0.0002631   0.0357497  -0.0001011
    2   0.0001072   0.0261471  -0.0005718   0.0000096  -0.0246197   0.0001204
    3   0.0000018  -0.0009862   0.0000184   0.0000129   0.0009224  -0.0000346
            7           8           9          10          11          12
    1  -0.0000647   0.0000091   0.0000298   0.0005162   0.0004788  -0.0000844
    2   0.0001177  -0.0000429  -0.0000586  -0.0006171  -0.0005823  -0.0000853
    3   0.0000175  -0.0000080   0.0000079  -0.0000471   0.0000547   0.0000140
           13
    1  -0.0000410
    2   0.0000757
    3   0.0000262
 Max gradient component =       3.692E-02
 RMS gradient           =       1.005E-02
 Gradient time:  CPU 10.91 s  wall 0.97 s
 Geometry Optimization Parameters
   NAtoms,    NIC,     NZ,  NCons,   NDum,   NFix, NCnnct, MaxDiis
       13      82       0       1       0       0       0       0

 Cartesian Hessian Update
 Hessian Updated using BFGS Update


** CONSTRAINED OPTIMIZATION IN DELOCALIZED INTERNAL COORDINATES **
   Searching for a Minimum

   Optimization Cycle:   3

                       Coordinates (Angstroms)
     ATOM                X               Y               Z
      1  S         2.8358968152    0.4972315686   -0.0097860729
      2  S        -3.2857553978    0.8140563020   -0.0302340188
      3  C         0.0930119390    0.1777409945    0.0267255209
      4  C         1.3928298710   -0.6586420919   -0.0250770731
      5  C        -1.0801853622   -0.7422639443    0.0274311049
      6  H         0.0986724344    0.7978378541    0.9278752729
      7  H         0.0533735355    0.8429110810   -0.8401631525
      8  H         1.4563147410   -1.3254512634    0.8390048239
      9  H         1.4225470527   -1.2611338036   -0.9367034289
     10  H        -1.3407652144   -1.2684977860    0.9405336804
     11  H        -1.3298945760   -1.2679659452   -0.8888108450
     12  H         3.7892537790   -0.4543479674   -0.0582509152
     13  H        -2.9971066174    1.2721250016    1.2063521036
   Point Group: c1    Number of degrees of freedom:    33


   Energy is   -915.454399119

              Constraints and their Current Values
                                        Value     Constraint
   Distance(Angs):        2   5             2.699999     2.700000
 Hessian Updated using BFGS Update

 31 Hessian modes will be used to form the next step
  Hessian Eigenvalues:
     0.029256    0.044999    0.045000    0.045030    0.070882    0.079022
     0.079932    0.083365    0.084850    0.099411    0.123137    0.128886
     0.129786    0.139445    0.141995    0.158181    0.163071    0.219879
     0.220362    0.225870    0.232120    0.256975    0.258019    0.278752
     0.339672    0.343699    0.344280    0.344486    0.345327    0.353352
     0.356335

 Minimum Search - Taking Simple RFO Step
 Searching for Lamda that Minimizes Along All modes
 Value Taken    Lamda =  -0.00003905
 Step Taken.  Stepsize is  0.035898

                             Maximum     Tolerance    Cnvgd?
         Gradient           0.000673      0.000300      NO
         Displacement       0.026492      0.001200      NO
         Energy change      0.000112      0.000001      NO


 New Cartesian Coordinates Obtained by Inverse Iteration

 Displacement from previous Coordinates is:  0.035832
 ----------------------------------------------------------------
             Standard Nuclear Orientation (Angstroms)
    I     Atom           X                Y                Z
 ----------------------------------------------------------------
    1      S       2.8359398451     0.4990855540    -0.0094367549
    2      S      -3.2815472869     0.8147583859    -0.0313376619
    3      C       0.0915023783     0.1756521567     0.0269874493
    4      C       1.3940056736    -0.6587426890    -0.0247852472
    5      C      -1.0792901231    -0.7462012153     0.0275322462
    6      H       0.0971283122     0.7951444581     0.9284128247
    7      H       0.0518231719     0.8400199245    -0.8403593686
    8      H       1.4582851113    -1.3252843934     0.8393808544
    9      H       1.4242499933    -1.2608509214    -0.9365509554
   10      H      -1.3496939619    -1.2652095137     0.9415274480
   11      H      -1.3381627852    -1.2652021570    -0.8895913679
   12      H       3.7925516918    -0.4492613700    -0.0581952539
   13      H      -2.9885990206     1.2696917806     1.2053127872
 ----------------------------------------------------------------
 Nuclear Repulsion Energy =   246.3174467916 hartrees
 There are       29 alpha and       29 beta electrons

                       Distance Matrix (Angstroms)
             S (  1)   S (  2)   C (  3)   C (  4)   C (  5)   H (  6)
   S (  2)  6.125665
   C (  3)  2.763670  3.433558
   C (  4)  1.849318  4.902249  1.547711
   C (  5)  4.108665  2.699999  1.490157  2.475395
   H (  6)  2.910035  3.512400  1.093787  2.168932  2.138058
   H (  7)  2.925402  3.430235  1.093275  2.170922  2.132780  1.769921
   H (  8)  2.438596  5.272945  2.186524  1.093249  2.726486  2.521288
   H (  9)  2.439218  5.222269  2.183613  1.093053  2.731672  3.076761
   H ( 10)  4.640754  3.000798  2.233722  2.971439  1.085300  2.517643
   H ( 11)  4.616331  2.973143  2.227133  2.929237  1.085123  3.100037
   H ( 12)  1.347904  7.186191  3.754403  2.407908  4.881635  4.022200
   H ( 13)  5.999559  1.349847  3.474536  4.943604  3.016032  3.134259
             H (  7)   H (  8)   H (  9)   H ( 10)   H ( 11)   H ( 12)
   H (  8)  3.080293
   H (  9)  2.511268  1.777426
   H ( 10)  3.093762  2.810478  3.349920
   H ( 11)  2.523181  3.288324  2.762815  1.831155
   H ( 12)  4.033246  2.649879  2.653119  5.301689  5.261294
   H ( 13)  3.689656  5.161646  5.519462  3.030069  3.679436  7.108815

 
 Applying Cartesian multipole field
    Component          Value
    ---------          -----
     (2,0,0)        1.00000E-11
     (0,2,0)        2.00000E-10
     (0,0,2)       -3.00000E-10
 Nucleus-field energy     =     0.0000000275 hartrees
 Requested basis set is 6-31G(d,p)
 There are 46 shells and 123 basis functions
 A cutoff of  1.0D-14 yielded    984 shell pairs
 There are      7139 function pairs
 Smallest overlap matrix eigenvalue = 5.46E-03
 Guess from superposition of atomic densities
 Warning:  Energy on first SCF cycle will be non-variational
 SAD guess density has 58.000000 electrons

 -----------------------------------------------------------------------
  General SCF calculation program by
  Eric Jon Sundstrom, Paul Horn, Yuezhi Mao, Dmitri Zuev, Alec White,
  David Stuck, Shaama M.S., Shane Yost, Joonho Lee, David Small,
  Daniel Levine, Susi Lehtola, Hugh Burton, Evgeny Epifanovsky
 -----------------------------------------------------------------------
 Exchange:     0.2000 Hartree-Fock + 0.0800 Slater + 0.7200 B88
 Correlation:  0.1900 VWN1RPA + 0.8100 LYP
 Using SG-1 standard quadrature grid
 using 12 threads for integral computing
 -------------------------------------------------------
 OpenMP Integral computing Module                
 Release: version 1.0, May 2013, Q-Chem Inc. Pittsburgh 
 -------------------------------------------------------
 -------------------------------------------------------
 OpenMP BLAS3 based DFT computing Module                
 Release: version 1.0, May 2013, Q-Chem Inc. Pittsburgh 
 -------------------------------------------------------
 A unrestricted SCF calculation will be
 performed using DIIS
 SCF converges when DIIS error is below 1.0e-06
 Alpha HF Exchange    Energy =  -6.82814277544545
 Beta HF Exchange     Energy =  -6.82814277544545
 DFT Correlation      Energy =  -2.69939270305575
 DFT Exchange         Energy = -53.81769518162690
 One-Electron (alpha) Energy = -872.27521079339067
 One-Electron (beta)  Energy = -872.27521079339067
 Total Coulomb        Energy = 652.57915770945920
 ---------------------------------------
  Cycle       Energy         DIIS error
 ---------------------------------------
    1    -915.8271904938      2.62e-02  
 Alpha HF Exchange    Energy =  -6.85082734591645
 Beta HF Exchange     Energy =  -6.85082734591645
 DFT Correlation      Energy =  -2.72498888060343
 DFT Exchange         Energy = -54.38476539341558
 One-Electron (alpha) Energy = -876.02124400044681
 One-Electron (beta)  Energy = -876.02124400044670
 Total Coulomb        Energy = 661.13419177432093
    2    -915.4022583733      2.33e-03  
 Alpha HF Exchange    Energy =  -6.79960904275489
 Beta HF Exchange     Energy =  -6.79960904275489
 DFT Correlation      Energy =  -2.70412902781864
 DFT Exchange         Energy = -53.96405985497398
 One-Electron (alpha) Energy = -872.20242405850843
 One-Electron (beta)  Energy = -872.20242405850854
 Total Coulomb        Energy = 652.96939310818175
    3    -915.3854151580      2.70e-03  
 Alpha HF Exchange    Energy =  -6.82292593277712
 Beta HF Exchange     Energy =  -6.82292593277713
 DFT Correlation      Energy =  -2.71251471905589
 DFT Exchange         Energy = -54.14368611630972
 One-Electron (alpha) Energy = -874.01004202526303
 One-Electron (beta)  Energy = -874.01004202526360
 Total Coulomb        Energy = 656.76262030121120
    4    -915.4420696311      1.08e-03  
 Alpha HF Exchange    Energy =  -6.82360242826145
 Beta HF Exchange     Energy =  -6.82360242826146
 DFT Correlation      Energy =  -2.71434817026025
 DFT Exchange         Energy = -54.16016488961777
 One-Electron (alpha) Energy = -874.13884108253001
 One-Electron (beta)  Energy = -874.13884108253046
 Total Coulomb        Energy = 657.02937422653099
    5    -915.4525790358      4.10e-04  
 Alpha HF Exchange    Energy =  -6.82416953541830
 Beta HF Exchange     Energy =  -6.82416953541830
 DFT Correlation      Energy =  -2.71402228914202
 DFT Exchange         Energy = -54.16198505808977
 One-Electron (alpha) Energy = -874.14100577040904
 One-Electron (beta)  Energy = -874.14100577040870
 Total Coulomb        Energy = 657.03456711096396
    6    -915.4543440288      9.16e-05  
 Alpha HF Exchange    Energy =  -6.82381059948386
 Beta HF Exchange     Energy =  -6.82381059948385
 DFT Correlation      Energy =  -2.71394997254755
 DFT Exchange         Energy = -54.15924234348970
 One-Electron (alpha) Energy = -874.11683791937276
 One-Electron (beta)  Energy = -874.11683791937264
 Total Coulomb        Energy = 656.98262699019563
    7    -915.4544155445      2.21e-05  
 Alpha HF Exchange    Energy =  -6.82383150640031
 Beta HF Exchange     Energy =  -6.82383150640032
 DFT Correlation      Energy =  -2.71395278862755
 DFT Exchange         Energy = -54.15934963598800
 One-Electron (alpha) Energy = -874.12004903905279
 One-Electron (beta)  Energy = -874.12004903905313
 Total Coulomb        Energy = 656.98919741616896
    8    -915.4544192803      5.23e-06  
 Alpha HF Exchange    Energy =  -6.82385723599103
 Beta HF Exchange     Energy =  -6.82385723599103
 DFT Correlation      Energy =  -2.71396178498090
 DFT Exchange         Energy = -54.15955269527011
 One-Electron (alpha) Energy = -874.12195670472613
 One-Electron (beta)  Energy = -874.12195670472636
 Total Coulomb        Energy = 656.99327606218526
    9    -915.4544194804      1.00e-06  
 Alpha HF Exchange    Energy =  -6.82385289116795
 Beta HF Exchange     Energy =  -6.82385289116795
 DFT Correlation      Energy =  -2.71395991395408
 DFT Exchange         Energy = -54.15951614497133
 One-Electron (alpha) Energy = -874.12150032091324
 One-Electron (beta)  Energy = -874.12150032091324
 Total Coulomb        Energy = 656.99231617469593
   10    -915.4544194893      2.09e-07  Convergence criterion met
 ---------------------------------------
 SCF time:   CPU 30.56s  wall 3.00s 
<S^2> =          0.000000000
 Alpha HF Exchange    Energy =  -6.82385289116795
 Beta HF Exchange     Energy =  -6.82385289116795
 DFT Correlation      Energy =  -2.71395991395408
 DFT Exchange         Energy = -54.15951614497133
 One-Electron (alpha) Energy = -874.12150032091324
 One-Electron (beta)  Energy = -874.12150032091324
 Total Coulomb        Energy = 656.99231617469593
 Nuclear repulsion Energy = 246.31744681909379
 SCF   energy in the final basis set =     -915.4544194893
 Total energy in the final basis set =     -915.4544194893
 
 --------------------------------------------------------------
 
                    Orbital Energies (a.u.)
 --------------------------------------------------------------
 
 Alpha MOs
 -- Occupied --
-88.890 -88.863 -10.270 -10.246 -10.224  -7.952  -7.921  -5.917
 -5.913  -5.906  -5.886  -5.884  -5.876  -0.837  -0.763  -0.680
 -0.660  -0.614  -0.509  -0.470  -0.444  -0.422  -0.396  -0.376
 -0.365  -0.345  -0.261  -0.251  -0.225
 -- Virtual --
 -0.108   0.014   0.059   0.064   0.091   0.109   0.126   0.135
  0.147   0.179   0.188   0.236   0.325   0.343   0.358   0.363
  0.374   0.378   0.392   0.422   0.500   0.504   0.518   0.559
  0.571   0.612   0.648   0.686   0.692   0.725   0.737   0.754
  0.776   0.801   0.822   0.825   0.841   0.846   0.860   0.868
  0.888   0.904   0.919   0.972   1.080   1.118   1.137   1.155
  1.258   1.297   1.383   1.519   1.553   1.643   1.662   1.792
  1.835   1.934   1.946   1.998   2.047   2.068   2.078   2.090
  2.105   2.115   2.191   2.201   2.215   2.302   2.308   2.442
  2.458   2.470   2.588   2.603   2.685   2.741   2.746   2.756
  2.776   2.813   2.851   3.185   3.237   3.337   3.341   3.453
  3.504   3.968   3.985   4.216   4.383   4.582
 
 Beta MOs
 -- Occupied --
-88.890 -88.863 -10.270 -10.246 -10.224  -7.952  -7.921  -5.917
 -5.913  -5.906  -5.886  -5.884  -5.876  -0.837  -0.763  -0.680
 -0.660  -0.614  -0.509  -0.470  -0.444  -0.422  -0.396  -0.376
 -0.365  -0.345  -0.261  -0.251  -0.225
 -- Virtual --
 -0.108   0.014   0.059   0.064   0.091   0.109   0.126   0.135
  0.147   0.179   0.188   0.236   0.325   0.343   0.358   0.363
  0.374   0.378   0.392   0.422   0.500   0.504   0.518   0.559
  0.571   0.612   0.648   0.686   0.692   0.725   0.737   0.754
  0.776   0.801   0.822   0.825   0.841   0.846   0.860   0.868
  0.888   0.904   0.919   0.972   1.080   1.118   1.137   1.155
  1.258   1.297   1.383   1.519   1.553   1.643   1.662   1.792
  1.835   1.934   1.946   1.998   2.047   2.068   2.078   2.090
  2.105   2.115   2.191   2.201   2.215   2.302   2.308   2.442
  2.458   2.470   2.588   2.603   2.685   2.741   2.746   2.756
  2.776   2.813   2.851   3.185   3.237   3.337   3.341   3.453
  3.504   3.968   3.985   4.216   4.383   4.582
 --------------------------------------------------------------
 
          Ground-State Mulliken Net Atomic Charges

     Atom                 Charge (a.u.)    Spin (a.u.)
  --------------------------------------------------------
      1 S                    -0.026399       0.000000
      2 S                    -0.292121       0.000000
      3 C                    -0.196628      -0.000000
      4 C                    -0.339688       0.000000
      5 C                    -0.175607       0.000000
      6 H                     0.143566       0.000000
      7 H                     0.159944       0.000000
      8 H                     0.143406      -0.000000
      9 H                     0.145551      -0.000000
     10 H                     0.160744      -0.000000
     11 H                     0.162344      -0.000000
     12 H                     0.062379      -0.000000
     13 H                     0.052511      -0.000000
  --------------------------------------------------------
  Sum of atomic charges =    -0.000000
  Sum of spin   charges =    -0.000000

 -----------------------------------------------------------------
                    Cartesian Multipole Moments
 -----------------------------------------------------------------
    Charge (ESU x 10^10)
                 0.0000
    Dipole Moment (Debye)
         X       2.8789      Y      -2.9160      Z       0.7832
       Tot       4.1719
    Quadrupole Moments (Debye-Ang)
        XX     -59.5815     XY      -1.8131     YY     -46.7941
        XZ      -2.4519     YZ       1.9628     ZZ     -46.3896
    Octopole Moments (Debye-Ang^2)
       XXX      78.7216    XXY     -25.7289    XYY       5.0061
       YYY     -32.0323    XXZ       4.1055    XYZ      -5.4247
       YYZ       2.3743    XZZ      -4.0260    YZZ     -11.2545
       ZZZ      -0.5654
    Hexadecapole Moments (Debye-Ang^3)
      XXXX   -1877.1263   XXXY      34.9546   XXYY    -333.4618
      XYYY      69.4760   YYYY    -205.7060   XXXZ      -8.6414
      XXYZ      17.1085   XYYZ      -6.0346   YYYZ       2.2388
      XXZZ    -315.1512   XYZZ      15.8673   YYZZ     -43.9772
      XZZZ       4.0513   YZZZ       0.3339   ZZZZ     -81.8095
 -----------------------------------------------------------------
 Calculating analytic gradient of the SCF energy
 Gradient of SCF Energy
            1           2           3           4           5           6
    1   0.0001090  -0.0366699  -0.0003036  -0.0001440   0.0368589   0.0000063
    2  -0.0000508   0.0260401  -0.0000571  -0.0000979  -0.0256558   0.0000389
    3  -0.0000020  -0.0010457   0.0000444  -0.0000055   0.0009929  -0.0000292
            7           8           9          10          11          12
    1   0.0000386   0.0000037   0.0000031   0.0000326  -0.0000474   0.0000670
    2   0.0000306  -0.0000013  -0.0000012  -0.0001595  -0.0001002   0.0000232
    3  -0.0000006   0.0000084   0.0000119  -0.0000278   0.0000393   0.0000138
           13
    1   0.0000458
    2  -0.0000090
    3   0.0000001
 Max gradient component =       3.686E-02
 RMS gradient           =       1.018E-02
 Gradient time:  CPU 10.84 s  wall 0.96 s
 Geometry Optimization Parameters
   NAtoms,    NIC,     NZ,  NCons,   NDum,   NFix, NCnnct, MaxDiis
       13      82       0       1       0       0       0       0

 Cartesian Hessian Update
 Hessian Updated using BFGS Update


** CONSTRAINED OPTIMIZATION IN DELOCALIZED INTERNAL COORDINATES **
   Searching for a Minimum

   Optimization Cycle:   4

                       Coordinates (Angstroms)
     ATOM                X               Y               Z
      1  S         2.8359398451    0.4990855540   -0.0094367549
      2  S        -3.2815472869    0.8147583859   -0.0313376619
      3  C         0.0915023783    0.1756521567    0.0269874493
      4  C         1.3940056736   -0.6587426890   -0.0247852472
      5  C        -1.0792901231   -0.7462012153    0.0275322462
      6  H         0.0971283122    0.7951444581    0.9284128247
      7  H         0.0518231719    0.8400199245   -0.8403593686
      8  H         1.4582851113   -1.3252843934    0.8393808544
      9  H         1.4242499933   -1.2608509214   -0.9365509554
     10  H        -1.3496939619   -1.2652095137    0.9415274480
     11  H        -1.3381627852   -1.2652021570   -0.8895913679
     12  H         3.7925516918   -0.4492613700   -0.0581952539
     13  H        -2.9885990206    1.2696917806    1.2053127872
   Point Group: c1    Number of degrees of freedom:    33


   Energy is   -915.454419489

              Constraints and their Current Values
                                        Value     Constraint
   Distance(Angs):        2   5             2.699999     2.700000
 Hessian Updated using BFGS Update

 32 Hessian modes will be used to form the next step
  Hessian Eigenvalues:
     0.026355    0.044999    0.045000    0.045001    0.045074    0.070881
     0.079028    0.079932    0.083429    0.084854    0.099614    0.123117
     0.128882    0.131093    0.139470    0.141994    0.159659    0.166536
     0.220023    0.221612    0.226446    0.232046    0.256956    0.258046
     0.280554    0.339959    0.343688    0.344279    0.344498    0.345178
     0.353358    0.355282

 Minimum Search - Taking Simple RFO Step
 Searching for Lamda that Minimizes Along All modes
 Value Taken    Lamda =  -0.00000145
 Step Taken.  Stepsize is  0.004416

                             Maximum     Tolerance    Cnvgd?
         Gradient           0.000259      0.000300     YES
         Displacement       0.002857      0.001200      NO
         Energy change     -0.000020      0.000001      NO


 New Cartesian Coordinates Obtained by Inverse Iteration

 Displacement from previous Coordinates is:  0.006270
 ----------------------------------------------------------------
             Standard Nuclear Orientation (Angstroms)
    I     Atom           X                Y                Z
 ----------------------------------------------------------------
    1      S       2.8353255601     0.4999788361    -0.0093003207
    2      S      -3.2812351716     0.8149164022    -0.0311161460
    3      C       0.0918938682     0.1749370962     0.0269065262
    4      C       1.3946542269    -0.6588905978    -0.0248203676
    5      C      -1.0794285265    -0.7466893758     0.0274675550
    6      H       0.0974781621     0.7942586343     0.9284455302
    7      H       0.0520909286     0.8391682470    -0.8404992336
    8      H       1.4591828973    -1.3254265537     0.8393282952
    9      H       1.4252319236    -1.2609360105    -0.9366305726
   10      H      -1.3509611449    -1.2644419341     0.9417333397
   11      H      -1.3389095075    -1.2647666759    -0.8899387527
   12      H       3.7915349151    -0.4487203882    -0.0581490485
   13      H      -2.9886651314     1.2702123203     1.2054701954
 ----------------------------------------------------------------
 Nuclear Repulsion Energy =   246.3290862790 hartrees
 There are       29 alpha and       29 beta electrons

                       Distance Matrix (Angstroms)
             S (  1)   S (  2)   C (  3)   C (  4)   C (  5)   H (  6)
   S (  2)  6.124702
   C (  3)  2.762857  3.433794
   C (  4)  1.848987  4.902661  1.547620
   C (  5)  4.108629  2.699999  1.490433  2.476192
   H (  6)  2.908913  3.512391  1.093784  2.168646  2.138081
   H (  7)  2.924438  3.430270  1.093243  2.170712  2.132756  1.770097
   H (  8)  2.438451  5.273548  2.186458  1.093246  2.727380  2.520962
   H (  9)  2.439083  5.223021  2.183558  1.093065  2.732629  3.076567
   H ( 10)  4.641405  2.999354  2.233954  2.973100  1.085209  2.517221
   H ( 11)  4.616718  2.972421  2.227229  2.930510  1.085066  3.099890
   H ( 12)  1.347870  7.184816  3.752803  2.406308  4.880820  4.020500
   H ( 13)  5.998983  1.349829  3.475411  4.944547  3.016748  3.134893
             H (  7)   H (  8)   H (  9)   H ( 10)   H ( 11)   H ( 12)
   H (  8)  3.080130
   H (  9)  2.511015  1.777454
   H ( 10)  3.093555  2.812671  3.351941
   H ( 11)  2.522671  3.289888  2.764538  1.831712
   H ( 12)  4.031646  2.648385  2.651568  5.301927  5.261109
   H ( 13)  3.690256  5.162824  5.520670  3.029208  3.679477  7.107923

 
 Applying Cartesian multipole field
    Component          Value
    ---------          -----
     (2,0,0)        1.00000E-11
     (0,2,0)        2.00000E-10
     (0,0,2)       -3.00000E-10
 Nucleus-field energy     =     0.0000000275 hartrees
 Requested basis set is 6-31G(d,p)
 There are 46 shells and 123 basis functions
 A cutoff of  1.0D-14 yielded    985 shell pairs
 There are      7142 function pairs
 Smallest overlap matrix eigenvalue = 5.46E-03
 Guess from superposition of atomic densities
 Warning:  Energy on first SCF cycle will be non-variational
 SAD guess density has 58.000000 electrons

 -----------------------------------------------------------------------
  General SCF calculation program by
  Eric Jon Sundstrom, Paul Horn, Yuezhi Mao, Dmitri Zuev, Alec White,
  David Stuck, Shaama M.S., Shane Yost, Joonho Lee, David Small,
  Daniel Levine, Susi Lehtola, Hugh Burton, Evgeny Epifanovsky
 -----------------------------------------------------------------------
 Exchange:     0.2000 Hartree-Fock + 0.0800 Slater + 0.7200 B88
 Correlation:  0.1900 VWN1RPA + 0.8100 LYP
 Using SG-1 standard quadrature grid
 using 12 threads for integral computing
 -------------------------------------------------------
 OpenMP Integral computing Module                
 Release: version 1.0, May 2013, Q-Chem Inc. Pittsburgh 
 -------------------------------------------------------
 -------------------------------------------------------
 OpenMP BLAS3 based DFT computing Module                
 Release: version 1.0, May 2013, Q-Chem Inc. Pittsburgh 
 -------------------------------------------------------
 A unrestricted SCF calculation will be
 performed using DIIS
 SCF converges when DIIS error is below 1.0e-06
 Alpha HF Exchange    Energy =  -6.82816801698144
 Beta HF Exchange     Energy =  -6.82816801698144
 DFT Correlation      Energy =  -2.69940103950894
 DFT Exchange         Energy = -53.81774709420526
 One-Electron (alpha) Energy = -872.28673827051796
 One-Electron (beta)  Energy = -872.28673827051796
 Total Coulomb        Energy = 652.59047642907092
 ---------------------------------------
  Cycle       Energy         DIIS error
 ---------------------------------------
    1    -915.8273979731      2.62e-02  
 Alpha HF Exchange    Energy =  -6.85085014565460
 Beta HF Exchange     Energy =  -6.85085014565461
 DFT Correlation      Energy =  -2.72499986908920
 DFT Exchange         Energy = -54.38491534023289
 One-Electron (alpha) Energy = -876.03342820049284
 One-Electron (beta)  Energy = -876.03342820049340
 Total Coulomb        Energy = 661.14715593631968
    2    -915.4022296588      2.33e-03  
 Alpha HF Exchange    Energy =  -6.79962082115574
 Beta HF Exchange     Energy =  -6.79962082115573
 DFT Correlation      Energy =  -2.70414116258818
 DFT Exchange         Energy = -53.96415484514277
 One-Electron (alpha) Energy = -872.21381857836298
 One-Electron (beta)  Energy = -872.21381857836263
 Total Coulomb        Energy = 652.98084592551902
    3    -915.3852425747      2.71e-03  
 Alpha HF Exchange    Energy =  -6.82293702523900
 Beta HF Exchange     Energy =  -6.82293702523899
 DFT Correlation      Energy =  -2.71251787855134
 DFT Exchange         Energy = -54.14371904443001
 One-Electron (alpha) Energy = -874.02122310711991
 One-Electron (beta)  Energy = -874.02122310711979
 Total Coulomb        Energy = 656.77347777900809
    4    -915.4419931022      1.08e-03  
 Alpha HF Exchange    Energy =  -6.82361597944104
 Beta HF Exchange     Energy =  -6.82361597944103
 DFT Correlation      Energy =  -2.71435758590328
 DFT Exchange         Energy = -54.16025694104029
 One-Electron (alpha) Energy = -874.15056149384577
 One-Electron (beta)  Energy = -874.15056149384554
 Total Coulomb        Energy = 657.04130176624540
    5    -915.4525814008      4.10e-04  
 Alpha HF Exchange    Energy =  -6.82418501322874
 Beta HF Exchange     Energy =  -6.82418501322874
 DFT Correlation      Energy =  -2.71403256181915
 DFT Exchange         Energy = -54.16209332265655
 One-Electron (alpha) Energy = -874.15285713231333
 One-Electron (beta)  Energy = -874.15285713231310
 Total Coulomb        Energy = 657.04677894031147
    6    -915.4543449287      9.16e-05  
 Alpha HF Exchange    Energy =  -6.82382576084752
 Beta HF Exchange     Energy =  -6.82382576084752
 DFT Correlation      Energy =  -2.71395997035582
 DFT Exchange         Energy = -54.15934704903145
 One-Electron (alpha) Energy = -874.12865734379352
 One-Electron (beta)  Energy = -874.12865734379341
 Total Coulomb        Energy = 656.99477052561008
    7    -915.4544163966      2.21e-05  
 Alpha HF Exchange    Energy =  -6.82384680787527
 Beta HF Exchange     Energy =  -6.82384680787527
 DFT Correlation      Energy =  -2.71396284848288
 DFT Exchange         Energy = -54.15945552201039
 One-Electron (alpha) Energy = -874.13188268385943
 One-Electron (beta)  Energy = -874.13188268385966
 Total Coulomb        Energy = 657.00137091505371
    8    -915.4544201324      5.23e-06  
 Alpha HF Exchange    Energy =  -6.82387252372469
 Beta HF Exchange     Energy =  -6.82387252372468
 DFT Correlation      Energy =  -2.71397183596133
 DFT Exchange         Energy = -54.15965843990864
 One-Electron (alpha) Energy = -874.13378812958786
 One-Electron (beta)  Energy = -874.13378812958717
 Total Coulomb        Energy = 657.00544494322128
    9    -915.4544203328      1.00e-06  
 Alpha HF Exchange    Energy =  -6.82386818424303
 Beta HF Exchange     Energy =  -6.82386818424304
 DFT Correlation      Energy =  -2.71396996571544
 DFT Exchange         Energy = -54.15962192485951
 One-Electron (alpha) Energy = -874.13333226102611
 One-Electron (beta)  Energy = -874.13333226102645
 Total Coulomb        Energy = 657.00448613294020
   10    -915.4544203417      2.10e-07  Convergence criterion met
 ---------------------------------------
 SCF time:   CPU 30.46s  wall 3.00s 
<S^2> =          0.000000000
 Alpha HF Exchange    Energy =  -6.82386818424303
 Beta HF Exchange     Energy =  -6.82386818424304
 DFT Correlation      Energy =  -2.71396996571544
 DFT Exchange         Energy = -54.15962192485951
 One-Electron (alpha) Energy = -874.13333226102611
 One-Electron (beta)  Energy = -874.13333226102645
 Total Coulomb        Energy = 657.00448613294020
 Nuclear repulsion Energy = 246.32908630650087
 SCF   energy in the final basis set =     -915.4544203417
 Total energy in the final basis set =     -915.4544203417
 
 --------------------------------------------------------------
 
                    Orbital Energies (a.u.)
 --------------------------------------------------------------
 
 Alpha MOs
 -- Occupied --
-88.890 -88.863 -10.270 -10.245 -10.224  -7.952  -7.921  -5.917
 -5.913  -5.906  -5.886  -5.884  -5.876  -0.837  -0.763  -0.680
 -0.660  -0.614  -0.509  -0.470  -0.444  -0.422  -0.396  -0.376
 -0.365  -0.345  -0.261  -0.251  -0.225
 -- Virtual --
 -0.108   0.014   0.059   0.064   0.091   0.109   0.126   0.135
  0.147   0.179   0.188   0.236   0.325   0.343   0.358   0.363
  0.374   0.378   0.392   0.422   0.500   0.504   0.518   0.559
  0.570   0.612   0.648   0.687   0.692   0.725   0.737   0.754
  0.776   0.801   0.822   0.825   0.841   0.846   0.860   0.868
  0.888   0.904   0.918   0.972   1.080   1.118   1.137   1.155
  1.258   1.297   1.383   1.519   1.552   1.643   1.663   1.792
  1.835   1.934   1.945   1.998   2.047   2.068   2.078   2.090
  2.105   2.115   2.191   2.201   2.215   2.302   2.308   2.442
  2.458   2.470   2.588   2.603   2.685   2.741   2.746   2.756
  2.776   2.813   2.851   3.185   3.237   3.337   3.342   3.453
  3.504   3.968   3.985   4.216   4.383   4.582
 
 Beta MOs
 -- Occupied --
-88.890 -88.863 -10.270 -10.245 -10.224  -7.952  -7.921  -5.917
 -5.913  -5.906  -5.886  -5.884  -5.876  -0.837  -0.763  -0.680
 -0.660  -0.614  -0.509  -0.470  -0.444  -0.422  -0.396  -0.376
 -0.365  -0.345  -0.261  -0.251  -0.225
 -- Virtual --
 -0.108   0.014   0.059   0.064   0.091   0.109   0.126   0.135
  0.147   0.179   0.188   0.236   0.325   0.343   0.358   0.363
  0.374   0.378   0.392   0.422   0.500   0.504   0.518   0.559
  0.570   0.612   0.648   0.687   0.692   0.725   0.737   0.754
  0.776   0.801   0.822   0.825   0.841   0.846   0.860   0.868
  0.888   0.904   0.918   0.972   1.080   1.118   1.137   1.155
  1.258   1.297   1.383   1.519   1.552   1.643   1.663   1.792
  1.835   1.934   1.945   1.998   2.047   2.068   2.078   2.090
  2.105   2.115   2.191   2.201   2.215   2.302   2.308   2.442
  2.458   2.470   2.588   2.603   2.685   2.741   2.746   2.756
  2.776   2.813   2.851   3.185   3.237   3.337   3.342   3.453
  3.504   3.968   3.985   4.216   4.383   4.582
 --------------------------------------------------------------
 
          Ground-State Mulliken Net Atomic Charges

     Atom                 Charge (a.u.)    Spin (a.u.)
  --------------------------------------------------------
      1 S                    -0.026184      -0.000000
      2 S                    -0.292294       0.000000
      3 C                    -0.196737      -0.000000
      4 C                    -0.339681       0.000000
      5 C                    -0.175633      -0.000000
      6 H                     0.143556       0.000000
      7 H                     0.159946       0.000000
      8 H                     0.143386      -0.000000
      9 H                     0.145519      -0.000000
     10 H                     0.160855       0.000000
     11 H                     0.162411       0.000000
     12 H                     0.062356       0.000000
     13 H                     0.052500      -0.000000
  --------------------------------------------------------
  Sum of atomic charges =     0.000000
  Sum of spin   charges =     0.000000

 -----------------------------------------------------------------
                    Cartesian Multipole Moments
 -----------------------------------------------------------------
    Charge (ESU x 10^10)
                 0.0000
    Dipole Moment (Debye)
         X       2.8806      Y      -2.9166      Z       0.7830
       Tot       4.1735
    Quadrupole Moments (Debye-Ang)
        XX     -59.5813     XY      -1.8064     YY     -46.7974
        XZ      -2.4525     YZ       1.9634     ZZ     -46.3865
    Octopole Moments (Debye-Ang^2)
       XXX      78.7286    XXY     -25.7358    XYY       5.0105
       YYY     -32.0486    XXZ       4.1037    XYZ      -5.4264
       YYZ       2.3719    XZZ      -4.0259    YZZ     -11.2646
       ZZZ      -0.5765
    Hexadecapole Moments (Debye-Ang^3)
      XXXX   -1876.9678   XXXY      34.9909   XXYY    -333.4108
      XYYY      69.4095   YYYY    -205.8075   XXXZ      -8.6315
      XXYZ      17.1097   XYYZ      -6.0332   YYYZ       2.2308
      XXZZ    -315.0765   XYZZ      15.8434   YYZZ     -43.9949
      XZZZ       4.0612   YZZZ       0.3225   ZZZZ     -81.8070
 -----------------------------------------------------------------
 Calculating analytic gradient of the SCF energy
 Gradient of SCF Energy
            1           2           3           4           5           6
    1   0.0000109  -0.0366293  -0.0001214   0.0000028   0.0367237   0.0000146
    2   0.0000256   0.0260213   0.0000502  -0.0000868  -0.0259078   0.0000090
    3   0.0000032  -0.0010131   0.0000074   0.0000066   0.0009966  -0.0000110
            7           8           9          10          11          12
    1   0.0000374  -0.0000031  -0.0000053   0.0000074  -0.0000455  -0.0000215
    2  -0.0000056   0.0000013  -0.0000015  -0.0000535  -0.0000105  -0.0000388
    3  -0.0000027   0.0000072   0.0000068  -0.0000197   0.0000153   0.0000132
           13
    1   0.0000291
    2  -0.0000028
    3  -0.0000098
 Max gradient component =       3.672E-02
 RMS gradient           =       1.018E-02
 Gradient time:  CPU 10.85 s  wall 0.96 s
 Geometry Optimization Parameters
   NAtoms,    NIC,     NZ,  NCons,   NDum,   NFix, NCnnct, MaxDiis
       13      82       0       1       0       0       0       0

 Cartesian Hessian Update
 Hessian Updated using BFGS Update


** CONSTRAINED OPTIMIZATION IN DELOCALIZED INTERNAL COORDINATES **
   Searching for a Minimum

   Optimization Cycle:   5

                       Coordinates (Angstroms)
     ATOM                X               Y               Z
      1  S         2.8353255601    0.4999788361   -0.0093003207
      2  S        -3.2812351716    0.8149164022   -0.0311161460
      3  C         0.0918938682    0.1749370962    0.0269065262
      4  C         1.3946542269   -0.6588905978   -0.0248203676
      5  C        -1.0794285265   -0.7466893758    0.0274675550
      6  H         0.0974781621    0.7942586343    0.9284455302
      7  H         0.0520909286    0.8391682470   -0.8404992336
      8  H         1.4591828973   -1.3254265537    0.8393282952
      9  H         1.4252319236   -1.2609360105   -0.9366305726
     10  H        -1.3509611449   -1.2644419341    0.9417333397
     11  H        -1.3389095075   -1.2647666759   -0.8899387527
     12  H         3.7915349151   -0.4487203882   -0.0581490485
     13  H        -2.9886651314    1.2702123203    1.2054701954
   Point Group: c1    Number of degrees of freedom:    33


   Energy is   -915.454420342

              Constraints and their Current Values
                                        Value     Constraint
   Distance(Angs):        2   5             2.699999     2.700000
 Hessian Updated using BFGS Update

 32 Hessian modes will be used to form the next step
  Hessian Eigenvalues:
     0.025345    0.044695    0.045000    0.045000    0.045015    0.070854
     0.078483    0.079929    0.080261    0.084961    0.096964    0.119178
     0.123240    0.128894    0.137744    0.142005    0.150480    0.187183
     0.203016    0.222088    0.224419    0.252476    0.256948    0.259134
     0.281968    0.331187    0.343676    0.344287    0.344465    0.345014
     0.353302    0.353638

 Minimum Search - Taking Simple RFO Step
 Searching for Lamda that Minimizes Along All modes
 Value Taken    Lamda =   0.00000000
 Step Taken.  Stepsize is  0.001928

                             Maximum     Tolerance    Cnvgd?
         Gradient           0.000122      0.000300     YES
         Displacement       0.000922      0.001200     YES
         Energy change     -0.000001      0.000001     YES


                       Distance Matrix (Angstroms)
             S (  1)   S (  2)   C (  3)   C (  4)   C (  5)   H (  6)
   S (  2)  6.124702
   C (  3)  2.762857  3.433794
   C (  4)  1.848987  4.902661  1.547620
   C (  5)  4.108629  2.699999  1.490433  2.476192
   H (  6)  2.908913  3.512391  1.093784  2.168646  2.138081
   H (  7)  2.924438  3.430270  1.093243  2.170712  2.132756  1.770097
   H (  8)  2.438451  5.273548  2.186458  1.093246  2.727380  2.520962
   H (  9)  2.439083  5.223021  2.183558  1.093065  2.732629  3.076567
   H ( 10)  4.641405  2.999354  2.233954  2.973100  1.085209  2.517221
   H ( 11)  4.616718  2.972421  2.227229  2.930510  1.085066  3.099890
   H ( 12)  1.347870  7.184816  3.752803  2.406308  4.880820  4.020500
   H ( 13)  5.998983  1.349829  3.475411  4.944547  3.016748  3.134893
             H (  7)   H (  8)   H (  9)   H ( 10)   H ( 11)   H ( 12)
   H (  8)  3.080130
   H (  9)  2.511015  1.777454
   H ( 10)  3.093555  2.812671  3.351941
   H ( 11)  2.522671  3.289888  2.764538  1.831712
   H ( 12)  4.031646  2.648385  2.651568  5.301927  5.261109
   H ( 13)  3.690256  5.162824  5.520670  3.029208  3.679477  7.107923

 
 Final energy is   -915.454420341673     


 ******************************
 **  OPTIMIZATION CONVERGED  **
 ******************************

                       Coordinates (Angstroms)
     ATOM                X               Y               Z
      1  S         2.8353255601    0.4999788361   -0.0093003207
      2  S        -3.2812351716    0.8149164022   -0.0311161460
      3  C         0.0918938682    0.1749370962    0.0269065262
      4  C         1.3946542269   -0.6588905978   -0.0248203676
      5  C        -1.0794285265   -0.7466893758    0.0274675550
      6  H         0.0974781621    0.7942586343    0.9284455302
      7  H         0.0520909286    0.8391682470   -0.8404992336
      8  H         1.4591828973   -1.3254265537    0.8393282952
      9  H         1.4252319236   -1.2609360105   -0.9366305726
     10  H        -1.3509611449   -1.2644419341    0.9417333397
     11  H        -1.3389095075   -1.2647666759   -0.8899387527
     12  H         3.7915349151   -0.4487203882   -0.0581490485
     13  H        -2.9886651314    1.2702123203    1.2054701954

Z-matrix Print:
$molecule
0 1
S 
H  1 1.347870
C  1 1.848987 2 96.390852
H  3 1.093065 1 109.294005 2 -59.608297 0
H  3 1.093246 1 109.238470 2 59.300378 0
C  3 1.547620 1 108.537428 2 179.962217 0
H  6 1.093243 3 109.358649 1 59.710587 0
H  6 1.093784 3 109.166789 1 -58.332381 0
C  6 1.490433 3 109.171902 1 -179.493251 0
H  9 1.085066 6 118.872545 3 -72.931286 0
H  9 1.085209 6 119.470609 3 77.367742 0
S  9 2.699999 6 106.453222 3 -176.676858 0
H  12 1.349829 9 89.911432 6 -66.779239 0
$end

PES scan, value:    2.7000 energy: -915.4544203417
------- Summary of potential scan: ------ 
    2.7000      -915.4544203417
----------------------------------------- 
Archival summary:
1\1\hpc0250\JobtypUnspecified\ProcedureUnspecified\6-31G**\238\knomura\ThuMar1405:40:092019ThuMar1405:40:092019\0\\#,JobtypUnspecified,ProcedureUnspecified,6-31G**,\\0,1\S\H,1,1.34787\C,1,1.84899,2,96.3909\H,3,1.09307,1,109.294,2,-59.6083,0\H,3,1.09325,1,109.238,2,59.3004,0\C,3,1.54762,1,108.537,2,179.962,0\H,6,1.09324,3,109.359,1,59.7106,0\H,6,1.09378,3,109.167,1,-58.3324,0\C,6,1.49043,3,109.172,1,-179.493,0\H,9,1.08507,6,118.873,3,-72.9313,0\H,9,1.08521,6,119.471,3,77.3677,0\S,9,2.7,6,106.453,3,-176.677,0\H,12,1.34983,9,89.9114,6,-66.7792,0\\\@

 Total job time:  19.89s(wall), 225.32s(cpu) 
 Thu Mar 14 05:40:09 2019

        *************************************************************
        *                                                           *
        *  Thank you very much for using Q-Chem.  Have a nice day.  *
        *                                                           *
        *************************************************************


