
Running Job 1 of 1 thiol/04/C-S.xyz.data/inputs/bond_singlet_3.0.in
qchem thiol/04/C-S.xyz.data/inputs/bond_singlet_3.0.in_4548.0 /staging/scratch/2868767/qchem4548/ 1
/usr/usc/qchem/5.1.1/exe/qcprog.exe_s thiol/04/C-S.xyz.data/inputs/bond_singlet_3.0.in_4548.0 /staging/scratch/2868767/qchem4548/
Check license passed

                  Welcome to Q-Chem
     A Quantum Leap Into The Future Of Chemistry


 Q-Chem 5.1, Q-Chem, Inc., Pleasanton, CA (2018)

 Yihan Shao,  Zhengting Gan,  E. Epifanovsky,  A. T. B. Gilbert,  M. Wormit,  
 J. Kussmann,  A. W. Lange,  A. Behn,  Jia Deng,  Xintian Feng,  D. Ghosh,  
 M. Goldey,  P. R. Horn,  L. D. Jacobson,  I. Kaliman,  T. Kus,  A. Landau,  
 Jie Liu,  E. I. Proynov,  R. M. Richard,  R. P. Steele,  E. J. Sundstrom,  
 H. L. Woodcock III,  P. M. Zimmerman,  D. Zuev,  B. Albrecht,  E. Alguire,  
 S. A. Baeppler,  D. Barton,  Z. Benda,  Y. A. Bernard,  E. J. Berquist,  
 K. B. Bravaya,  H. Burton,  D. Casanova,  Chun-Min Chang,  Yunqing Chen,  
 A. Chien,  K. D. Closser,  M. P. Coons,  S. Coriani,  S. Dasgupta,  
 A. L. Dempwolff,  M. Diedenhofen,  Hainam Do,  R. G. Edgar,  Po-Tung Fang,  
 S. Faraji,  S. Fatehi,  Qingguo Feng,  K. D. Fenk,  J. Fosso-Tande,  
 Qinghui Ge,  A. Ghysels,  G. Gidofalvi,  J. Gomes,  J. Gonthier,  A. Gunina,  
 D. Hait,  M. W. D. Hanson-Heine,  P. H. P. Harbach,  A. W. Hauser,  
 J. E. Herr,  E. G. Hohenstein,  Z. C. Holden,  Kerwin Hui,  B. C. Huynh,  
 T.-C. Jagau,  Hyunjun Ji,  B. Kaduk,  K. Khistyaev,  Jaehoon Kim,  
 P. Klunzinger,  K. Koh,  D. Kosenkov,  L. Koulias,  T. Kowalczyk,  
 C. M. Krauter,  A. Kunitsa,  Ka Un Lao,  A. Laurent,  K. V. Lawler,  
 Joonho Lee,  D. Lefrancois,  S. Lehtola,  D. S. Levine,  Yi-Pei Li,  
 You-Sheng Lin,  Fenglai Liu,  E. Livshits,  A. Luenser,  P. Manohar,  
 E. Mansoor,  S. F. Manzer,  Shan-Ping Mao,  Yuezhi Mao,  N. Mardirossian,  
 A. V. Marenich,  T. Markovich,  L. A. Martinez-Martinez,  S. A. Maurer,  
 N. J. Mayhall,  S. C. McKenzie,  J.-M. Mewes,  A. F. Morrison,  
 J. W. Mullinax,  K. Nanda,  T. S. Nguyen-Beck,  R. Olivares-Amaya,  
 J. A. Parkhill,  T. M. Perrine,  F. Plasser,  P. Pokhilko,  S. Prager,  
 A. Prociuk,  E. Ramos,  D. R. Rehn,  F. Rob,  M. Schneider,  N. Sergueev,  
 S. M. Sharada,  S. Sharma,  D. W. Small,  T. Stauch,  T. Stein,  
 Yu-Chuan Su,  A. J. W. Thom,  A. Tkatchenko,  T. Tsuchimochi,  N. M. Tubman,  
 L. Vogt,  M. L. Vidal,  O. Vydrov,  M. A. Watson,  J. Wenzel,  
 M. de Wergifosse,  T. A. Wesolowski,  A. White,  J. Witte,  A. Yamada,  
 Jun Yang,  K. Yao,  S. Yeganeh,  S. R. Yost,  Zhi-Qiang You,  A. Zech,  
 Igor Ying Zhang,  Xing Zhang,  Yan Zhao,  Ying Zhu,  B. R. Brooks,  
 G. K. L. Chan,  C. J. Cramer,  M. S. Gordon,  W. J. Hehre,  A. Klamt,  
 M. W. Schmidt,  C. D. Sherrill,  D. G. Truhlar,  A. Aspuru-Guzik,  R. Baer,  
 A. T. Bell,  N. A. Besley,  Jeng-Da Chai,  A. E. DePrince, III,  
 R. A. DiStasio Jr.,  A. Dreuw,  B. D. Dunietz,  T. R. Furlani,  
 Chao-Ping Hsu,  Yousung Jung,  Jing Kong,  D. S. Lambrecht,  WanZhen Liang,  
 C. Ochsenfeld,  V. A. Rassolov,  L. V. Slipchenko,  J. E. Subotnik,  
 T. Van Voorhis,  J. M. Herbert,  A. I. Krylov,  P. M. W. Gill,  M. Head-Gordon

 Contributors to earlier versions of Q-Chem not listed above: 
 R. D. Adamson,  B. Austin,  J. Baker,  G. J. O. Beran,  K. Brandhorst,  
 S. T. Brown,  E. F. C. Byrd,  A. K. Chakraborty,  C.-L. Cheng,  
 Siu Hung Chien,  D. M. Chipman,  D. L. Crittenden,  H. Dachsel,  
 R. J. Doerksen,  A. D. Dutoi,  L. Fusti-Molnar,  W. A. Goddard III,  
 A. Golubeva-Zadorozhnaya,  S. R. Gwaltney,  G. Hawkins,  A. Heyden,  
 S. Hirata,  G. Kedziora,  F. J. Keil,  C. Kelley,  Jihan Kim,  R. A. King,  
 R. Z. Khaliullin,  P. P. Korambath,  W. Kurlancheek,  A. M. Lee,  M. S. Lee,  
 S. V. Levchenko,  Ching Yeh Lin,  D. Liotard,  R. C. Lochan,  I. Lotan,  
 P. E. Maslen,  N. Nair,  D. P. O'Neill,  D. Neuhauser,  E. Neuscamman,  
 C. M. Oana,  R. Olson,  B. Peters,  R. Peverati,  P. A. Pieniazek,  
 Y. M. Rhee,  J. Ritchie,  M. A. Rohrdanz,  E. Rosta,  N. J. Russ,  
 H. F. Schaefer III,  N. E. Schultz,  N. Shenvi,  A. C. Simmonett,  A. Sodt,  
 D. Stuck,  K. S. Thanthiriwatte,  V. Vanovschi,  Tao Wang,  A. Warshel,  
 C. F. Williams,  Q. Wu,  X. Xu,  W. Zhang

 Please cite Q-Chem as follows:
 Y. Shao et al., Mol. Phys. 113, 184-215 (2015)
 DOI: 10.1080/00268976.2014.952696

 Q-Chem 5.1.1 for Intel X86 EM64T Linux

 Parts of Q-Chem use Armadillo 8.300.2 (Tropical Shenanigans).
 http://arma.sourceforge.net/

 Q-Chem begins on Thu Mar 14 05:41:05 2019  

Host: 
0

     Scratch files written to /staging/scratch/2868767/qchem4548//
 Aug318 |scratch|qcdevops|jenkins|workspace|build_RNUM 6013   
Processing $rem in /usr/usc/qchem/5.1.1/config/preferences.
 MEM_TOTAL  2000 
Input Ideriv = 2
Curr. Ideriv = -1
Max.  Ideriv = 2

Checking the input file for inconsistencies... 	...done.

--------------------------------------------------------------
User input:
--------------------------------------------------------------

$comment
potential surface scanner
$end

$rem
JOBTYPE  PES_SCAN
UNRESTRICTED TRUE
SYM_IGNORE  TRUE
GEOM_OPT_MAX_CYCLES 400
SCF_MAX_CYCLES 400
METHOD   B3LYP
BASIS   6-31G**
PDB_PRINT 2
SCF_CONVERGENCE 6
THRESH 14
SCF_PRINT 1
$end
$molecule
0 1
S 2.852628 0.504926 -0.012011
S -3.408758 0.891181 -0.029595
C 0.112854 0.150676 0.034285
C 1.426448 -0.671676 -0.030338
C -1.041624 -0.782995 0.032149
H 0.118018 0.761257 0.941519
H 0.065445 0.818838 -0.829829
H 1.500913 -1.343878 0.828344
H 1.457904 -1.265428 -0.947308
H -1.348744 -1.275498 0.948412
H -1.335560 -1.271942 -0.890126
H 3.819286 -0.432188 -0.074875
H -3.110618 1.340325 1.208271
$end
$scan
stre 2 5 3.000000 3.001000 0.100000
$end
--------------------------------------------------------------
 ----------------------------------------------------------------
             Standard Nuclear Orientation (Angstroms)
    I     Atom           X                Y                Z
 ----------------------------------------------------------------
    1      S       2.8526280000     0.5049260000    -0.0120110000
    2      S      -3.4087580000     0.8911810000    -0.0295950000
    3      C       0.1128540000     0.1506760000     0.0342850000
    4      C       1.4264480000    -0.6716760000    -0.0303380000
    5      C      -1.0416240000    -0.7829950000     0.0321490000
    6      H       0.1180180000     0.7612570000     0.9415190000
    7      H       0.0654450000     0.8188380000    -0.8298290000
    8      H       1.5009130000    -1.3438780000     0.8283440000
    9      H       1.4579040000    -1.2654280000    -0.9473080000
   10      H      -1.3487440000    -1.2754980000     0.9484120000
   11      H      -1.3355600000    -1.2719420000    -0.8901260000
   12      H       3.8192860000    -0.4321880000    -0.0748750000
   13      H      -3.1106180000     1.3403250000     1.2082710000
 ----------------------------------------------------------------
 Nuclear Repulsion Energy =   242.7073228300 hartrees
 There are       29 alpha and       29 beta electrons
 Requested basis set is 6-31G(d,p)
 There are 46 shells and 123 basis functions

 Total QAlloc Memory Limit   2000 MB
 Mega-Array Size       188 MB
 MEM_STATIC part       192 MB
A total of 1 constraints
  
            1
    1   1.0100000
    2   2.0100000
    3   5.0100000
    4   3.0000000
    5   3.0010000
    6   0.1000000
    7   0.0000000
    8   0.0000000
    9   0.0000000
   10   0.0000000

                       Distance Matrix (Angstroms)
             S (  1)   S (  2)   C (  3)   C (  4)   C (  5)   H (  6)
   S (  2)  6.273313
   C (  3)  2.762969  3.599191
   C (  4)  1.848977  5.081510  1.551118
   C (  5)  4.101937  2.900000  1.484778  2.471371
   H (  6)  2.907407  3.660340  1.093576  2.170206  2.134581
   H (  7)  2.921602  3.565907  1.093335  2.170978  2.129431  1.773063
   H (  8)  2.439550  5.462272  2.188819  1.093039  2.722684  2.521270
   H (  9)  2.440121  5.401626  2.185872  1.092870  2.727585  3.077404
   H ( 10)  4.663030  3.145577  2.237380  3.004038  1.084629  2.509942
   H ( 11)  4.633494  3.117333  2.230758  2.954360  1.084462  3.098663
   H ( 12)  1.347799  7.348332  3.753570  2.405205  4.874727  4.019546
   H ( 13)  6.143882  1.350159  3.631016  5.115395  3.189434  3.290983
             H (  7)   H (  8)   H (  9)   H ( 10)   H ( 11)   H ( 12)
   H (  8)  3.080170
   H (  9)  2.509364  1.777904
   H ( 10)  3.090035  2.853005  3.386905
   H ( 11)  2.517501  3.317212  2.794057  1.838589
   H ( 12)  4.028194  2.649875  2.651708  5.335431  5.286044
   H ( 13)  3.809616  5.349347  5.684001  3.164531  3.791839  7.267175

 
 A cutoff of  1.0D-14 yielded    974 shell pairs
 There are      7011 function pairs
 
 -------------------------------------------------------
 OpenMP Integral Computing Module                       
 Release: version 1.0, May 2013, Q-Chem Inc. Pittsburgh 
 -------------------------------------------------------
 Integral Job Info:
 Integral job number is                      11
 Integral operator is                         1
 short-range coefficients                     0
 long-range coefficients              100000000
 Omega coefficients                           0
 if combine SR and LR in K                    0
 Integral screening is                        0
 Integral computing path is                   2
 max size of driver memory is            800000
 size of driver memory is                593474
 size of scratch memory is             15267112
 max col of scratch BK array               1296
 max len of scratch array in speh3          155
 max len of scratch index in speh4           18
 max int batch size is                      520
 min int batch size is                       52
 fixed nKL is                                52
 max L of basis functions is                  2
 order of int derivative is                   0
 number of shells is                         46
 number of basis is                         123
 number of cartesian basis is               123
 number of contracted shell pairs           974
 number of primitive shell pairs           3635
 maxK2 (contraction) of shell pair           36
 max number of K2 of shell pair               1
 max number of CS2 of shell pair             79
 max number of PS2 of shell pair            342
 mem total for path MDJ                  517212
 -------------------------------------------------------
 Smallest overlap matrix eigenvalue = 5.50E-03

 Scale SEOQF with 1.000000e-01/1.000000e+00/1.000000e+00

 Standard Electronic Orientation quadrupole field applied
 Nucleus-field energy     =     0.0000000300 hartrees
 Guess from superposition of atomic densities
 Warning:  Energy on first SCF cycle will be non-variational
 SAD guess density has 58.000000 electrons

 -----------------------------------------------------------------------
  General SCF calculation program by
  Eric Jon Sundstrom, Paul Horn, Yuezhi Mao, Dmitri Zuev, Alec White,
  David Stuck, Shaama M.S., Shane Yost, Joonho Lee, David Small,
  Daniel Levine, Susi Lehtola, Hugh Burton, Evgeny Epifanovsky
 -----------------------------------------------------------------------
 Exchange:     0.2000 Hartree-Fock + 0.0800 Slater + 0.7200 B88
 Correlation:  0.1900 VWN1RPA + 0.8100 LYP
 Using SG-1 standard quadrature grid
 using 12 threads for integral computing
 -------------------------------------------------------
 OpenMP Integral computing Module                
 Release: version 1.0, May 2013, Q-Chem Inc. Pittsburgh 
 -------------------------------------------------------
 -------------------------------------------------------
 OpenMP BLAS3 based DFT computing Module                
 Release: version 1.0, May 2013, Q-Chem Inc. Pittsburgh 
 -------------------------------------------------------
 A unrestricted SCF calculation will be
 performed using DIIS
 SCF converges when DIIS error is below 1.0e-06
 Alpha HF Exchange    Energy =  -6.82622781441830
 Beta HF Exchange     Energy =  -6.82622781441830
 DFT Correlation      Energy =  -2.69756205306930
 DFT Exchange         Energy = -53.81444993964218
 One-Electron (alpha) Energy = -868.66372347892127
 One-Electron (beta)  Energy = -868.66372347892127
 Total Coulomb        Energy = 648.97155856153552
 ---------------------------------------
  Cycle       Energy         DIIS error
 ---------------------------------------
    1    -915.8130331579      2.62e-02  
 Alpha HF Exchange    Energy =  -6.85077598541075
 Beta HF Exchange     Energy =  -6.85077598541074
 DFT Correlation      Energy =  -2.72301005165747
 DFT Exchange         Energy = -54.38326620371718
 One-Electron (alpha) Energy = -872.38890660637037
 One-Electron (beta)  Energy = -872.38890660637048
 Total Coulomb        Energy = 657.50221910326718
    2    -915.3760994757      2.42e-03  
 Alpha HF Exchange    Energy =  -6.80156820632632
 Beta HF Exchange     Energy =  -6.80156820632633
 DFT Correlation      Energy =  -2.70451099262932
 DFT Exchange         Energy = -53.98164721494262
 One-Electron (alpha) Energy = -868.59397692750576
 One-Electron (beta)  Energy = -868.59397692750611
 Total Coulomb        Energy = 649.54424158374854
    3    -915.2256840315      4.25e-03  
 Alpha HF Exchange    Energy =  -6.81750735600252
 Beta HF Exchange     Energy =  -6.81750735600252
 DFT Correlation      Energy =  -2.70738173593638
 DFT Exchange         Energy = -54.09267129794731
 One-Electron (alpha) Energy = -869.90989781480107
 One-Electron (beta)  Energy = -869.90989781480232
 Total Coulomb        Energy = 652.15955903594102
    4    -915.3879814796      2.11e-03  
 Alpha HF Exchange    Energy =  -6.82134170679288
 Beta HF Exchange     Energy =  -6.82134170679288
 DFT Correlation      Energy =  -2.71246597828274
 DFT Exchange         Energy = -54.14987219178126
 One-Electron (alpha) Energy = -870.46941249274380
 One-Electron (beta)  Energy = -870.46941249274357
 Total Coulomb        Energy = 653.30020821912865
    5    -915.4363154900      4.40e-04  
 Alpha HF Exchange    Energy =  -6.82252401801714
 Beta HF Exchange     Energy =  -6.82252401801714
 DFT Correlation      Energy =  -2.71233180774809
 DFT Exchange         Energy = -54.15658351580183
 One-Electron (alpha) Energy = -870.50350150339341
 One-Electron (beta)  Energy = -870.50350150339330
 Total Coulomb        Energy = 653.37532094101834
    6    -915.4383225654      1.38e-04  
 Alpha HF Exchange    Energy =  -6.82206567701392
 Beta HF Exchange     Energy =  -6.82206567701392
 DFT Correlation      Energy =  -2.71222089577351
 DFT Exchange         Energy = -54.15290176380240
 One-Electron (alpha) Energy = -870.47404561876897
 One-Electron (beta)  Energy = -870.47404561876920
 Total Coulomb        Energy = 653.31155650185246
    7    -915.4384658893      3.78e-05  
 Alpha HF Exchange    Energy =  -6.82209470230942
 Beta HF Exchange     Energy =  -6.82209470230943
 DFT Correlation      Energy =  -2.71221689402202
 DFT Exchange         Energy = -54.15298035232092
 One-Electron (alpha) Energy = -870.47744840658117
 One-Electron (beta)  Energy = -870.47744840658152
 Total Coulomb        Energy = 653.31848217263098
    8    -915.4384784315      1.28e-05  
 Alpha HF Exchange    Energy =  -6.82214273519103
 Beta HF Exchange     Energy =  -6.82214273519102
 DFT Correlation      Energy =  -2.71222645389253
 DFT Exchange         Energy = -54.15329914051830
 One-Electron (alpha) Energy = -870.48060534496130
 One-Electron (beta)  Energy = -870.48060534496096
 Total Coulomb        Energy = 653.32521871031770
    9    -915.4384801844      2.90e-06  
 Alpha HF Exchange    Energy =  -6.82214172010845
 Beta HF Exchange     Energy =  -6.82214172010845
 DFT Correlation      Energy =  -2.71222279722609
 DFT Exchange         Energy = -54.15326836130788
 One-Electron (alpha) Energy = -870.48013915138677
 One-Electron (beta)  Energy = -870.48013915138722
 Total Coulomb        Energy = 653.32424977217715
   10    -915.4384802694      5.32e-07  Convergence criterion met
 ---------------------------------------
 SCF time:   CPU 30.26s  wall 3.00s 
<S^2> =          0.000000000
 Alpha HF Exchange    Energy =  -6.82214172010845
 Beta HF Exchange     Energy =  -6.82214172010845
 DFT Correlation      Energy =  -2.71222279722609
 DFT Exchange         Energy = -54.15326836130788
 One-Electron (alpha) Energy = -870.48013915138677
 One-Electron (beta)  Energy = -870.48013915138722
 Total Coulomb        Energy = 653.32424977217715
 Nuclear repulsion Energy = 242.70732285998088
 SCF   energy in the final basis set =     -915.4384802694
 Total energy in the final basis set =     -915.4384802694
 
 --------------------------------------------------------------
 
                    Orbital Energies (a.u.)
 --------------------------------------------------------------
 
 Alpha MOs
 -- Occupied --
-88.892 -88.858 -10.275 -10.249 -10.228  -7.954  -7.916  -5.919
 -5.916  -5.909  -5.881  -5.879  -5.871  -0.841  -0.766  -0.675
 -0.663  -0.617  -0.514  -0.475  -0.449  -0.426  -0.399  -0.380
 -0.360  -0.348  -0.254  -0.248  -0.220
 -- Virtual --
 -0.124   0.012   0.057   0.067   0.089   0.106   0.122   0.132
  0.143   0.174   0.189   0.236   0.323   0.341   0.356   0.364
  0.371   0.376   0.393   0.417   0.496   0.500   0.507   0.558
  0.567   0.611   0.652   0.699   0.704   0.724   0.736   0.752
  0.781   0.790   0.818   0.821   0.833   0.841   0.856   0.858
  0.884   0.900   0.911   0.956   1.052   1.124   1.131   1.155
  1.236   1.292   1.386   1.509   1.527   1.639   1.664   1.785
  1.833   1.927   1.945   1.986   2.043   2.061   2.076   2.086
  2.109   2.116   2.187   2.192   2.213   2.305   2.314   2.442
  2.452   2.456   2.581   2.594   2.676   2.737   2.746   2.751
  2.768   2.818   2.847   3.181   3.236   3.339   3.344   3.442
  3.505   3.966   3.986   4.209   4.374   4.575
 
 Beta MOs
 -- Occupied --
-88.892 -88.858 -10.275 -10.249 -10.228  -7.954  -7.916  -5.919
 -5.916  -5.909  -5.881  -5.879  -5.871  -0.841  -0.766  -0.675
 -0.663  -0.617  -0.514  -0.475  -0.449  -0.426  -0.399  -0.380
 -0.360  -0.348  -0.254  -0.248  -0.220
 -- Virtual --
 -0.124   0.012   0.057   0.067   0.089   0.106   0.122   0.132
  0.143   0.174   0.189   0.236   0.323   0.341   0.356   0.364
  0.371   0.376   0.393   0.417   0.496   0.500   0.507   0.558
  0.567   0.611   0.652   0.699   0.704   0.724   0.736   0.752
  0.781   0.790   0.818   0.821   0.833   0.841   0.856   0.858
  0.884   0.900   0.911   0.956   1.052   1.124   1.131   1.155
  1.236   1.292   1.386   1.509   1.527   1.639   1.664   1.785
  1.833   1.927   1.945   1.986   2.043   2.061   2.076   2.086
  2.109   2.116   2.187   2.192   2.213   2.305   2.314   2.442
  2.452   2.456   2.581   2.594   2.676   2.737   2.746   2.751
  2.768   2.818   2.847   3.181   3.236   3.339   3.344   3.442
  3.505   3.966   3.986   4.209   4.374   4.575
 --------------------------------------------------------------
 
          Ground-State Mulliken Net Atomic Charges

     Atom                 Charge (a.u.)    Spin (a.u.)
  --------------------------------------------------------
      1 S                    -0.022763       0.000000
      2 S                    -0.326074      -0.000000
      3 C                    -0.205848       0.000000
      4 C                    -0.341025       0.000000
      5 C                    -0.153448       0.000000
      6 H                     0.148378      -0.000000
      7 H                     0.164427      -0.000000
      8 H                     0.145404       0.000000
      9 H                     0.147445       0.000000
     10 H                     0.164121       0.000000
     11 H                     0.166300       0.000000
     12 H                     0.063457       0.000000
     13 H                     0.049627       0.000000
  --------------------------------------------------------
  Sum of atomic charges =     0.000000
  Sum of spin   charges =     0.000000

 -----------------------------------------------------------------
                    Cartesian Multipole Moments
 -----------------------------------------------------------------
    Charge (ESU x 10^10)
                 0.0000
    Dipole Moment (Debye)
         X       3.4381      Y      -3.1646      Z       0.7828
       Tot       4.7380
    Quadrupole Moments (Debye-Ang)
        XX     -61.3801     XY      -1.0609     YY     -46.8994
        XZ      -2.5979     YZ       2.0221     ZZ     -46.3252
    Octopole Moments (Debye-Ang^2)
       XXX      93.0627    XXY     -29.0470    XYY       7.0199
       YYY     -35.0238    XXZ       4.2064    XYZ      -5.6635
       YYZ       2.6443    XZZ      -2.8598    YZZ     -12.0843
       ZZZ      -0.5982
    Hexadecapole Moments (Debye-Ang^3)
      XXXX   -1998.1292   XXXY      60.2350   XXYY    -352.5852
      XYYY      87.0383   YYYY    -220.4465   XXXZ      -9.7942
      XXYZ      18.6693   XYYZ      -6.7013   YYYZ       2.6514
      XXZZ    -328.6432   XYZZ      20.8231   YYZZ     -46.0610
      XZZZ       5.0348   YZZZ       0.2775   ZZZZ     -81.7720
 -----------------------------------------------------------------
 Calculating analytic gradient of the SCF energy
 Gradient of SCF Energy
            1           2           3           4           5           6
    1  -0.0000051  -0.0320499  -0.0001472   0.0000520   0.0323253   0.0000047
    2  -0.0000102   0.0226969   0.0001259  -0.0000462  -0.0229098  -0.0000059
    3   0.0000035  -0.0008153   0.0000168   0.0000185   0.0008234  -0.0000056
            7           8           9          10          11          12
    1   0.0000353  -0.0000096  -0.0000062  -0.0000660  -0.0000916  -0.0000011
    2  -0.0000403   0.0000037  -0.0000024   0.0000674   0.0000854  -0.0000174
    3  -0.0000251   0.0000105   0.0000060  -0.0000577   0.0000283   0.0000134
           13
    1  -0.0000406
    2   0.0000529
    3  -0.0000167
 Max gradient component =       3.233E-02
 RMS gradient           =       8.935E-03
 Gradient time:  CPU 10.66 s  wall 0.95 s
 Geometry Optimization Parameters
   NAtoms,    NIC,     NZ,  NCons,   NDum,   NFix, NCnnct, MaxDiis
       13     138       0       1       0       0       0       0


** CONSTRAINED OPTIMIZATION IN DELOCALIZED INTERNAL COORDINATES **
   Searching for a Minimum

   Optimization Cycle:   1

                       Coordinates (Angstroms)
     ATOM                X               Y               Z
      1  S         2.8526280000    0.5049260000   -0.0120110000
      2  S        -3.4087580000    0.8911810000   -0.0295950000
      3  C         0.1128540000    0.1506760000    0.0342850000
      4  C         1.4264480000   -0.6716760000   -0.0303380000
      5  C        -1.0416240000   -0.7829950000    0.0321490000
      6  H         0.1180180000    0.7612570000    0.9415190000
      7  H         0.0654450000    0.8188380000   -0.8298290000
      8  H         1.5009130000   -1.3438780000    0.8283440000
      9  H         1.4579040000   -1.2654280000   -0.9473080000
     10  H        -1.3487440000   -1.2754980000    0.9484120000
     11  H        -1.3355600000   -1.2719420000   -0.8901260000
     12  H         3.8192860000   -0.4321880000   -0.0748750000
     13  H        -3.1106180000    1.3403250000    1.2082710000
   Point Group: c1    Number of degrees of freedom:    33


   Energy is   -915.438480269

              Constraints and their Current Values
                                        Value     Constraint
   Distance(Angs):        2   5             2.900000     3.000000

 Attempting to Generate Delocalized Internal Coordinates

   Using Lagrange Multiplier Algorithm


 34 Hessian modes will be used to form the next step
  Hessian Eigenvalues:
    -0.986117    0.042604    0.045000    0.045000    0.045000    0.047222
     0.059667    0.064658    0.068205    0.069095    0.074832    0.079179
     0.080167    0.084953    0.096040    0.096167    0.122878    0.125356
     0.141812    0.160000    0.218969    0.220588    0.221321    0.226094
     0.258079    0.275563    0.283836    0.307866    0.340283    0.344026
     0.344301    0.344637    0.344831    1.014078

 Minimum Search - Taking P-RFO Step
 Searching for Lamda that Maximizes Along the Constraint modes Only
 Value Taken    Lamda =   0.02598875
 Searching for Lamda that Minimizes Along All other modes
 Value Taken    Lamda =  -0.01069091
 Step Taken.  Stepsize is  0.185247

                             Maximum     Tolerance    Cnvgd?
         Gradient            0.188972       0.000300      NO
         Displacement        0.185240       0.001200      NO
         Energy change     *********       0.000001      NO


 New Cartesian Coordinates Obtained by Inverse Iteration

 Displacement from previous Coordinates is:  0.231218
 ----------------------------------------------------------------
             Standard Nuclear Orientation (Angstroms)
    I     Atom           X                Y                Z
 ----------------------------------------------------------------
    1      S       2.8693515600     0.4958488799    -0.0157182113
    2      S      -3.5004872692     0.9114988961    -0.0240602154
    3      C       0.1287995003     0.1480526008     0.0334101784
    4      C       1.4403591159    -0.6774019544    -0.0310050606
    5      C      -1.0278973227    -0.7829370146     0.0337369488
    6      H       0.1360653430     0.7601164419     0.9396423283
    7      H       0.0821271112     0.8150119831    -0.8316855104
    8      H       1.5139927764    -1.3484435459     0.8286607780
    9      H       1.4696898429    -1.2726979370    -0.9470483498
   10      H      -1.3424061365    -1.2550673290     0.9372387620
   11      H      -1.3334607912    -1.2571237079    -0.8767322810
   12      H       3.8337460652    -0.4436369505    -0.0779327169
   13      H      -3.1616877952     1.3303776377     1.2103913501
 ----------------------------------------------------------------
 Nuclear Repulsion Energy =   240.8838619657 hartrees
 There are       29 alpha and       29 beta electrons

                       Distance Matrix (Angstroms)
             S (  1)   S (  2)   C (  3)   C (  4)   C (  5)   H (  6)
   S (  2)  6.383391
   C (  3)  2.762970  3.709161
   C (  4)  1.848992  5.190050  1.551036
   C (  5)  4.101986  2.998025  1.484820  2.471360
   H (  6)  2.907474  3.765123  1.093587  2.170207  2.134593
   H (  7)  2.921693  3.673785  1.093345  2.170987  2.129449  1.772999
   H (  8)  2.439547  5.565922  2.188763  1.093043  2.722665  2.521314
   H (  9)  2.440120  5.506840  2.185822  1.092874  2.727590  3.077416
   H ( 10)  4.659693  3.205529  2.224881  3.002495  1.066836  2.499370
   H ( 11)  4.634424  3.182134  2.222855  2.957264  1.071063  3.086743
   H ( 12)  1.347799  7.458571  3.753548  2.405234  4.874748  4.019617
   H ( 13)  6.210734  1.346891  3.689239  5.172145  3.225473  3.357630
             H (  7)   H (  8)   H (  9)   H ( 10)   H ( 11)   H ( 12)
   H (  8)  3.080183
   H (  9)  2.509417  1.777876
   H ( 10)  3.073047  2.859987  3.385075
   H ( 11)  2.509913  3.320346  2.804076  1.813994
   H ( 12)  4.028273  2.649876  2.651691  5.336810  5.291490
   H ( 13)  3.867559  5.402202  5.734127  3.173157  3.793898  7.330962

 
 Applying Cartesian multipole field
    Component          Value
    ---------          -----
     (2,0,0)        1.00000E-11
     (0,2,0)        2.00000E-10
     (0,0,2)       -3.00000E-10
 Nucleus-field energy     =     0.0000000308 hartrees
 Requested basis set is 6-31G(d,p)
 There are 46 shells and 123 basis functions
 A cutoff of  1.0D-14 yielded    972 shell pairs
 There are      6995 function pairs
 Smallest overlap matrix eigenvalue = 5.55E-03
 Guess from superposition of atomic densities
 Warning:  Energy on first SCF cycle will be non-variational
 SAD guess density has 58.000000 electrons

 -----------------------------------------------------------------------
  General SCF calculation program by
  Eric Jon Sundstrom, Paul Horn, Yuezhi Mao, Dmitri Zuev, Alec White,
  David Stuck, Shaama M.S., Shane Yost, Joonho Lee, David Small,
  Daniel Levine, Susi Lehtola, Hugh Burton, Evgeny Epifanovsky
 -----------------------------------------------------------------------
 Exchange:     0.2000 Hartree-Fock + 0.0800 Slater + 0.7200 B88
 Correlation:  0.1900 VWN1RPA + 0.8100 LYP
 Using SG-1 standard quadrature grid
 using 12 threads for integral computing
 -------------------------------------------------------
 OpenMP Integral computing Module                
 Release: version 1.0, May 2013, Q-Chem Inc. Pittsburgh 
 -------------------------------------------------------
 -------------------------------------------------------
 OpenMP BLAS3 based DFT computing Module                
 Release: version 1.0, May 2013, Q-Chem Inc. Pittsburgh 
 -------------------------------------------------------
 A unrestricted SCF calculation will be
 performed using DIIS
 SCF converges when DIIS error is below 1.0e-06
 Alpha HF Exchange    Energy =  -6.82745724838236
 Beta HF Exchange     Energy =  -6.82745724838236
 DFT Correlation      Energy =  -2.69719498825491
 DFT Exchange         Energy = -53.81763543881951
 One-Electron (alpha) Energy = -866.82195019546498
 One-Electron (beta)  Energy = -866.82195019546498
 Total Coulomb        Energy = 647.10923915217268
 ---------------------------------------
  Cycle       Energy         DIIS error
 ---------------------------------------
    1    -915.8205441661      2.63e-02  
 Alpha HF Exchange    Energy =  -6.85230076753775
 Beta HF Exchange     Energy =  -6.85230076753775
 DFT Correlation      Energy =  -2.72273771724986
 DFT Exchange         Energy = -54.39391818829653
 One-Electron (alpha) Energy = -870.53570417212131
 One-Electron (beta)  Energy = -870.53570417212131
 Total Coulomb        Energy = 655.64560293121303
    2    -915.3632008572      2.46e-03  
 Alpha HF Exchange    Energy =  -6.80551378160927
 Beta HF Exchange     Energy =  -6.80551378160929
 DFT Correlation      Energy =  -2.70528544281207
 DFT Exchange         Energy = -54.00519438683743
 One-Electron (alpha) Energy = -866.78811406111981
 One-Electron (beta)  Energy = -866.78811406112038
 Total Coulomb        Energy = 647.89386720796927
    3    -915.1200063107      4.93e-03  
 Alpha HF Exchange    Energy =  -6.81649894289817
 Beta HF Exchange     Energy =  -6.81649894289817
 DFT Correlation      Energy =  -2.70618290807964
 DFT Exchange         Energy = -54.08339228400427
 One-Electron (alpha) Energy = -867.89961230871688
 One-Electron (beta)  Energy = -867.89961230871722
 Total Coulomb        Energy = 649.96513598608090
    4    -915.3727997127      2.25e-03  
 Alpha HF Exchange    Energy =  -6.82170993030840
 Beta HF Exchange     Energy =  -6.82170993030841
 DFT Correlation      Energy =  -2.71223950275662
 DFT Exchange         Energy = -54.15582248011125
 One-Electron (alpha) Energy = -868.61179669713670
 One-Electron (beta)  Energy = -868.61179669713727
 Total Coulomb        Energy = 651.42300240788541
    5    -915.4282108334      4.97e-04  
 Alpha HF Exchange    Energy =  -6.82310149170666
 Beta HF Exchange     Energy =  -6.82310149170666
 DFT Correlation      Energy =  -2.71211625050471
 DFT Exchange         Energy = -54.16382762109040
 One-Electron (alpha) Energy = -868.65215836878326
 One-Electron (beta)  Energy = -868.65215836878360
 Total Coulomb        Energy = 651.51177354554613
    6    -915.4308280505      1.62e-04  
 Alpha HF Exchange    Energy =  -6.82257861098127
 Beta HF Exchange     Energy =  -6.82257861098127
 DFT Correlation      Energy =  -2.71200214880374
 DFT Exchange         Energy = -54.15970370738085
 One-Electron (alpha) Energy = -868.62111455626052
 One-Electron (beta)  Energy = -868.62111455626041
 Total Coulomb        Energy = 651.44422234126796
    7    -915.4310078529      5.46e-05  
 Alpha HF Exchange    Energy =  -6.82261447200176
 Beta HF Exchange     Energy =  -6.82261447200176
 DFT Correlation      Energy =  -2.71199040732600
 DFT Exchange         Energy = -54.15974920921219
 One-Electron (alpha) Energy = -868.62415991849139
 One-Electron (beta)  Energy = -868.62415991849207
 Total Coulomb        Energy = 651.45039182333267
    8    -915.4310345777      2.38e-05  
 Alpha HF Exchange    Energy =  -6.82268292671694
 Beta HF Exchange     Energy =  -6.82268292671694
 DFT Correlation      Energy =  -2.71199748422590
 DFT Exchange         Energy = -54.16015103861551
 One-Electron (alpha) Energy = -868.62800736348674
 One-Electron (beta)  Energy = -868.62800736348674
 Total Coulomb        Energy = 651.45862608846392
    9    -915.4310410183      6.05e-06  
 Alpha HF Exchange    Energy =  -6.82268482751129
 Beta HF Exchange     Energy =  -6.82268482751129
 DFT Correlation      Energy =  -2.71199122266020
 DFT Exchange         Energy = -54.16011727898064
 One-Electron (alpha) Energy = -868.62740248485613
 One-Electron (beta)  Energy = -868.62740248485613
 Total Coulomb        Energy = 651.45737971657900
   10    -915.4310414133      1.03e-06  
 Alpha HF Exchange    Energy =  -6.82268607552805
 Beta HF Exchange     Energy =  -6.82268607552805
 DFT Correlation      Energy =  -2.71199093738471
 DFT Exchange         Energy = -54.16012068483235
 One-Electron (alpha) Energy = -868.62744231786655
 One-Electron (beta)  Energy = -868.62744231786655
 Total Coulomb        Energy = 651.45746498677943
   11    -915.4310414257      1.31e-07  Convergence criterion met
 ---------------------------------------
 SCF time:   CPU 32.84s  wall 3.00s 
<S^2> =          0.000000000
 Alpha HF Exchange    Energy =  -6.82268607552805
 Beta HF Exchange     Energy =  -6.82268607552805
 DFT Correlation      Energy =  -2.71199093738471
 DFT Exchange         Energy = -54.16012068483235
 One-Electron (alpha) Energy = -868.62744231786655
 One-Electron (beta)  Energy = -868.62744231786655
 Total Coulomb        Energy = 651.45746498677943
 Nuclear repulsion Energy = 240.88386199648568
 SCF   energy in the final basis set =     -915.4310414257
 Total energy in the final basis set =     -915.4310414257
 
 --------------------------------------------------------------
 
                    Orbital Energies (a.u.)
 --------------------------------------------------------------
 
 Alpha MOs
 -- Occupied --
-88.893 -88.856 -10.274 -10.251 -10.230  -7.956  -7.915  -5.921
 -5.917  -5.910  -5.879  -5.878  -5.869  -0.843  -0.768  -0.676
 -0.664  -0.620  -0.517  -0.477  -0.452  -0.428  -0.401  -0.382
 -0.359  -0.349  -0.255  -0.244  -0.218
 -- Virtual --
 -0.131   0.010   0.056   0.070   0.089   0.106   0.122   0.133
  0.143   0.173   0.190   0.234   0.322   0.340   0.355   0.364
  0.370   0.375   0.394   0.413   0.491   0.497   0.503   0.555
  0.566   0.610   0.652   0.702   0.710   0.723   0.735   0.753
  0.782   0.786   0.820   0.820   0.829   0.840   0.856   0.858
  0.886   0.899   0.907   0.947   1.041   1.126   1.129   1.158
  1.229   1.290   1.386   1.506   1.518   1.637   1.663   1.782
  1.834   1.935   1.954   1.984   2.042   2.059   2.075   2.086
  2.111   2.117   2.186   2.189   2.213   2.309   2.315   2.444
  2.450   2.468   2.579   2.601   2.674   2.735   2.751   2.757
  2.772   2.821   2.864   3.183   3.253   3.342   3.358   3.459
  3.512   3.964   3.987   4.206   4.372   4.572
 
 Beta MOs
 -- Occupied --
-88.893 -88.856 -10.274 -10.251 -10.230  -7.956  -7.915  -5.921
 -5.917  -5.910  -5.879  -5.878  -5.869  -0.843  -0.768  -0.676
 -0.664  -0.620  -0.517  -0.477  -0.452  -0.428  -0.401  -0.382
 -0.359  -0.349  -0.255  -0.244  -0.218
 -- Virtual --
 -0.131   0.010   0.056   0.070   0.089   0.106   0.122   0.133
  0.143   0.173   0.190   0.234   0.322   0.340   0.355   0.364
  0.370   0.375   0.394   0.413   0.491   0.497   0.503   0.555
  0.566   0.610   0.652   0.702   0.710   0.723   0.735   0.753
  0.782   0.786   0.820   0.820   0.829   0.840   0.856   0.858
  0.886   0.899   0.907   0.947   1.041   1.126   1.129   1.158
  1.229   1.290   1.386   1.506   1.518   1.637   1.663   1.782
  1.834   1.935   1.954   1.984   2.042   2.059   2.075   2.086
  2.111   2.117   2.186   2.189   2.213   2.309   2.315   2.444
  2.450   2.468   2.579   2.601   2.674   2.735   2.751   2.757
  2.772   2.821   2.864   3.183   3.253   3.342   3.358   3.459
  3.512   3.964   3.987   4.206   4.372   4.572
 --------------------------------------------------------------
 
          Ground-State Mulliken Net Atomic Charges

     Atom                 Charge (a.u.)    Spin (a.u.)
  --------------------------------------------------------
      1 S                    -0.021392       0.000000
      2 S                    -0.335718       0.000000
      3 C                    -0.211944       0.000000
      4 C                    -0.340791      -0.000000
      5 C                    -0.146619       0.000000
      6 H                     0.149852       0.000000
      7 H                     0.165357       0.000000
      8 H                     0.146366       0.000000
      9 H                     0.148420      -0.000000
     10 H                     0.165728       0.000000
     11 H                     0.168300      -0.000000
     12 H                     0.064026      -0.000000
     13 H                     0.048414      -0.000000
  --------------------------------------------------------
  Sum of atomic charges =     0.000000
  Sum of spin   charges =     0.000000

 -----------------------------------------------------------------
                    Cartesian Multipole Moments
 -----------------------------------------------------------------
    Charge (ESU x 10^10)
                 0.0000
    Dipole Moment (Debye)
         X       3.7121      Y      -3.2445      Z       0.7829
       Tot       4.9919
    Quadrupole Moments (Debye-Ang)
        XX     -62.4771     XY      -0.7462     YY     -46.9950
        XZ      -2.5950     YZ       1.9992     ZZ     -46.3045
    Octopole Moments (Debye-Ang^2)
       XXX     101.5445    XXY     -30.7880    XYY       8.7264
       YYY     -35.8708    XXZ       4.1341    XYZ      -5.6820
       YYZ       2.6009    XZZ      -2.0736    YZZ     -12.1755
       ZZZ      -0.6281
    Hexadecapole Moments (Debye-Ang^3)
      XXXX   -2083.7615   XXXY      72.8220   XXYY    -365.9146
      XYYY      96.4810   YYYY    -223.1331   XXXZ      -8.0535
      XXYZ      19.0596   XYYZ      -6.4421   YYYZ       2.5909
      XXZZ    -338.6256   XYZZ      23.2957   YYZZ     -46.3828
      XZZZ       6.3480   YZZZ       0.1518   ZZZZ     -81.4626
 -----------------------------------------------------------------
 Calculating analytic gradient of the SCF energy
 Gradient of SCF Energy
            1           2           3           4           5           6
    1   0.0000116  -0.0306593   0.0018514  -0.0002815   0.0227604  -0.0000998
    2  -0.0002052   0.0214044  -0.0001986   0.0004816  -0.0300513   0.0000539
    3  -0.0000076   0.0005923  -0.0000414   0.0001140   0.0038397  -0.0001245
            7           8           9          10          11          12
    1  -0.0001660   0.0000367   0.0000242   0.0037783   0.0024556   0.0000549
    2  -0.0000161  -0.0000294  -0.0000281   0.0055178   0.0040943   0.0000371
    3   0.0001580   0.0000342  -0.0000278  -0.0112214   0.0083961   0.0000135
           13
    1   0.0002336
    2  -0.0010604
    3  -0.0017252
 Max gradient component =       3.066E-02
 RMS gradient           =       8.925E-03
 Gradient time:  CPU 10.71 s  wall 0.95 s
 Geometry Optimization Parameters
   NAtoms,    NIC,     NZ,  NCons,   NDum,   NFix, NCnnct, MaxDiis
       13     138       0       1       0       0       0       0

 Cartesian Hessian Update
 Hessian Updated using BFGS Update


** CONSTRAINED OPTIMIZATION IN DELOCALIZED INTERNAL COORDINATES **
   Searching for a Minimum

   Optimization Cycle:   2

                       Coordinates (Angstroms)
     ATOM                X               Y               Z
      1  S         2.8693515600    0.4958488799   -0.0157182113
      2  S        -3.5004872692    0.9114988961   -0.0240602154
      3  C         0.1287995003    0.1480526008    0.0334101784
      4  C         1.4403591159   -0.6774019544   -0.0310050606
      5  C        -1.0278973227   -0.7829370146    0.0337369488
      6  H         0.1360653430    0.7601164419    0.9396423283
      7  H         0.0821271112    0.8150119831   -0.8316855104
      8  H         1.5139927764   -1.3484435459    0.8286607780
      9  H         1.4696898429   -1.2726979370   -0.9470483498
     10  H        -1.3424061365   -1.2550673290    0.9372387620
     11  H        -1.3334607912   -1.2571237079   -0.8767322810
     12  H         3.8337460652   -0.4436369505   -0.0779327169
     13  H        -3.1616877952    1.3303776377    1.2103913501
   Point Group: c1    Number of degrees of freedom:    33


   Energy is   -915.431041426

              Constraints and their Current Values
                                        Value     Constraint
   Distance(Angs):        2   5             2.998025     3.000000
 Hessian Updated using BFGS Update

   Using Lagrange Multiplier Algorithm


 33 Hessian modes will be used to form the next step
  Hessian Eigenvalues:
    -0.997030    0.042907    0.044999    0.045000    0.047233    0.059674
     0.064671    0.068205    0.069378    0.074868    0.079441    0.080168
     0.084954    0.096046    0.096622    0.122883    0.125363    0.141812
     0.160021    0.218993    0.220601    0.221840    0.226094    0.258079
     0.275571    0.288622    0.340017    0.344025    0.344298    0.344637
     0.344830    0.944441    1.057950

 Minimum Search - Taking P-RFO Step
 Searching for Lamda that Maximizes Along the Constraint modes Only
 Value Taken    Lamda =   0.00000163
 Searching for Lamda that Minimizes Along All other modes
 Value Taken    Lamda =  -0.00024034
 Step Taken.  Stepsize is  0.016324

                             Maximum     Tolerance    Cnvgd?
         Gradient            0.012868       0.000300      NO
         Displacement        0.012985       0.001200      NO
         Energy change      0.007439       0.000001      NO


 New Cartesian Coordinates Obtained by Inverse Iteration

 Displacement from previous Coordinates is:  0.012610
 ----------------------------------------------------------------
             Standard Nuclear Orientation (Angstroms)
    I     Atom           X                Y                Z
 ----------------------------------------------------------------
    1      S       2.8695394185     0.4960776697    -0.0156712070
    2      S      -3.5014416928     0.9123299621    -0.0244982091
    3      C       0.1291300061     0.1482540465     0.0333500197
    4      C       1.4406840878    -0.6773990506    -0.0311810920
    5      C      -1.0268897646    -0.7827263243     0.0335906700
    6      H       0.1364299719     0.7602312335     0.9396900208
    7      H       0.0827136017     0.8153136742    -0.8317671631
    8      H       1.5142229367    -1.3485459840     0.8283912274
    9      H       1.4699984010    -1.2725820904    -0.9472788561
   10      H      -1.3436595603    -1.2566840650     0.9415988013
   11      H      -1.3335336200    -1.2584155723    -0.8803460277
   12      H       3.8337349829    -0.4436006955    -0.0780146284
   13      H      -3.1627367687     1.3313451959     1.2110344443
 ----------------------------------------------------------------
 Nuclear Repulsion Energy =   240.8205822717 hartrees
 There are       29 alpha and       29 beta electrons

                       Distance Matrix (Angstroms)
             S (  1)   S (  2)   C (  3)   C (  4)   C (  5)   H (  6)
   S (  2)  6.384571
   C (  3)  2.762830  3.710554
   C (  4)  1.849031  5.191521  1.551142
   C (  5)  4.101210  3.000000  1.484286  2.470670
   H (  6)  2.907298  3.766551  1.093628  2.170357  2.134256
   H (  7)  2.921356  3.675223  1.093412  2.170994  2.129271  1.773127
   H (  8)  2.439664  5.567394  2.188831  1.093028  2.721969  2.521437
   H (  9)  2.440239  5.508229  2.185941  1.092857  2.726997  3.077562
   H ( 10)  4.662573  3.208425  2.228873  3.005735  1.072128  2.501723
   H ( 11)  4.635918  3.185033  2.225521  2.958876  1.074984  3.090026
   H ( 12)  1.347796  7.459640  3.753238  2.404901  4.873719  4.019328
   H ( 13)  6.212152  1.347900  3.690939  5.173938  3.227617  3.359211
             H (  7)   H (  8)   H (  9)   H ( 10)   H ( 11)   H ( 12)
   H (  8)  3.080200
   H (  9)  2.509424  1.777844
   H ( 10)  3.077749  2.861599  3.388921
   H ( 11)  2.511667  3.322292  2.804367  1.821974
   H ( 12)  4.027800  2.649648  2.651430  5.339113  5.292289
   H ( 13)  3.869402  5.403905  5.735938  3.174828  3.798252  7.332305

 
 Applying Cartesian multipole field
    Component          Value
    ---------          -----
     (2,0,0)        1.00000E-11
     (0,2,0)        2.00000E-10
     (0,0,2)       -3.00000E-10
 Nucleus-field energy     =     0.0000000308 hartrees
 Requested basis set is 6-31G(d,p)
 There are 46 shells and 123 basis functions
 A cutoff of  1.0D-14 yielded    972 shell pairs
 There are      6995 function pairs
 Smallest overlap matrix eigenvalue = 5.55E-03
 Guess from superposition of atomic densities
 Warning:  Energy on first SCF cycle will be non-variational
 SAD guess density has 58.000000 electrons

 -----------------------------------------------------------------------
  General SCF calculation program by
  Eric Jon Sundstrom, Paul Horn, Yuezhi Mao, Dmitri Zuev, Alec White,
  David Stuck, Shaama M.S., Shane Yost, Joonho Lee, David Small,
  Daniel Levine, Susi Lehtola, Hugh Burton, Evgeny Epifanovsky
 -----------------------------------------------------------------------
 Exchange:     0.2000 Hartree-Fock + 0.0800 Slater + 0.7200 B88
 Correlation:  0.1900 VWN1RPA + 0.8100 LYP
 Using SG-1 standard quadrature grid
 using 12 threads for integral computing
 -------------------------------------------------------
 OpenMP Integral computing Module                
 Release: version 1.0, May 2013, Q-Chem Inc. Pittsburgh 
 -------------------------------------------------------
 -------------------------------------------------------
 OpenMP BLAS3 based DFT computing Module                
 Release: version 1.0, May 2013, Q-Chem Inc. Pittsburgh 
 -------------------------------------------------------
 A unrestricted SCF calculation will be
 performed using DIIS
 SCF converges when DIIS error is below 1.0e-06
 Alpha HF Exchange    Energy =  -6.82689688408865
 Beta HF Exchange     Energy =  -6.82689688408865
 DFT Correlation      Energy =  -2.69706668783778
 DFT Exchange         Energy = -53.81637031550131
 One-Electron (alpha) Energy = -866.76412754338571
 One-Electron (beta)  Energy = -866.76412754338571
 Total Coulomb        Energy = 647.05792487331155
 ---------------------------------------
  Cycle       Energy         DIIS error
 ---------------------------------------
    1    -915.8169786825      2.63e-02  
 Alpha HF Exchange    Energy =  -6.85195524583771
 Beta HF Exchange     Energy =  -6.85195524583771
 DFT Correlation      Energy =  -2.72255356728505
 DFT Exchange         Energy = -54.39095901045559
 One-Electron (alpha) Energy = -870.47502558893780
 One-Electron (beta)  Energy = -870.47502558893837
 Total Coulomb        Energy = 655.58460089985715
    2    -915.3622910450      2.47e-03  
 Alpha HF Exchange    Energy =  -6.80553512767865
 Beta HF Exchange     Energy =  -6.80553512767865
 DFT Correlation      Energy =  -2.70523693608697
 DFT Exchange         Energy = -54.00467258315238
 One-Electron (alpha) Energy = -866.73050443832255
 One-Electron (beta)  Energy = -866.73050443832221
 Total Coulomb        Energy = 647.85330343404678
    3    -915.1081029147      5.02e-03  
 Alpha HF Exchange    Energy =  -6.81587218761241
 Beta HF Exchange     Energy =  -6.81587218761241
 DFT Correlation      Energy =  -2.70593756338896
 DFT Exchange         Energy = -54.07889030069914
 One-Electron (alpha) Energy = -867.82207721510815
 One-Electron (beta)  Energy = -867.82207721510861
 Total Coulomb        Energy = 649.86690132512285
    4    -915.3732430419      2.25e-03  
 Alpha HF Exchange    Energy =  -6.82131394812827
 Beta HF Exchange     Energy =  -6.82131394812827
 DFT Correlation      Energy =  -2.71208186252700
 DFT Exchange         Energy = -54.15308276719443
 One-Electron (alpha) Energy = -868.55138263144693
 One-Electron (beta)  Energy = -868.55138263144738
 Total Coulomb        Energy = 651.36176302169940
    5    -915.4282124647      5.00e-04  
 Alpha HF Exchange    Energy =  -6.82271807216790
 Beta HF Exchange     Energy =  -6.82271807216790
 DFT Correlation      Energy =  -2.71195925231601
 DFT Exchange         Energy = -54.16116111681238
 One-Electron (alpha) Energy = -868.59226715583941
 One-Electron (beta)  Energy = -868.59226715583975
 Total Coulomb        Energy = 651.45164458098509
    6    -915.4308639417      1.63e-04  
 Alpha HF Exchange    Energy =  -6.82218101756499
 Beta HF Exchange     Energy =  -6.82218101756499
 DFT Correlation      Energy =  -2.71184169969181
 DFT Exchange         Energy = -54.15693707883400
 One-Electron (alpha) Energy = -868.56040253105232
 One-Electron (beta)  Energy = -868.56040253105186
 Total Coulomb        Energy = 651.38231762958060
    7    -915.4310459437      5.56e-05  
 Alpha HF Exchange    Energy =  -6.82221596848013
 Beta HF Exchange     Energy =  -6.82221596848013
 DFT Correlation      Energy =  -2.71182919100717
 DFT Exchange         Energy = -54.15697140669253
 One-Electron (alpha) Energy = -868.56334487735910
 One-Electron (beta)  Energy = -868.56334487735921
 Total Coulomb        Energy = 651.38826646134157
    8    -915.4310735256      2.46e-05  
 Alpha HF Exchange    Energy =  -6.82228588840565
 Beta HF Exchange     Energy =  -6.82228588840565
 DFT Correlation      Energy =  -2.71183611914193
 DFT Exchange         Energy = -54.15737957495348
 One-Electron (alpha) Energy = -868.56724234911121
 One-Electron (beta)  Energy = -868.56724234911178
 Total Coulomb        Energy = 651.39660948627511
    9    -915.4310803804      6.25e-06  
 Alpha HF Exchange    Energy =  -6.82228774881600
 Beta HF Exchange     Energy =  -6.82228774881599
 DFT Correlation      Energy =  -2.71182960885577
 DFT Exchange         Energy = -54.15734397101934
 One-Electron (alpha) Energy = -868.56660953414439
 One-Electron (beta)  Energy = -868.56660953414405
 Total Coulomb        Energy = 651.39530504094648
   10    -915.4310808024      1.07e-06  
 Alpha HF Exchange    Energy =  -6.82228904601880
 Beta HF Exchange     Energy =  -6.82228904601879
 DFT Correlation      Energy =  -2.71182929936159
 DFT Exchange         Energy = -54.15734739869970
 One-Electron (alpha) Energy = -868.56664949837307
 One-Electron (beta)  Energy = -868.56664949837307
 Total Coulomb        Energy = 651.39539066835630
   11    -915.4310808160      1.37e-07  Convergence criterion met
 ---------------------------------------
 SCF time:   CPU 32.74s  wall 2.00s 
<S^2> =          0.000000000
 Alpha HF Exchange    Energy =  -6.82228904601880
 Beta HF Exchange     Energy =  -6.82228904601879
 DFT Correlation      Energy =  -2.71182929936159
 DFT Exchange         Energy = -54.15734739869970
 One-Electron (alpha) Energy = -868.56664949837307
 One-Electron (beta)  Energy = -868.56664949837307
 Total Coulomb        Energy = 651.39539066835630
 Nuclear repulsion Energy = 240.82058230246648
 SCF   energy in the final basis set =     -915.4310808160
 Total energy in the final basis set =     -915.4310808160
 
 --------------------------------------------------------------
 
                    Orbital Energies (a.u.)
 --------------------------------------------------------------
 
 Alpha MOs
 -- Occupied --
-88.893 -88.856 -10.275 -10.251 -10.230  -7.956  -7.915  -5.921
 -5.917  -5.910  -5.879  -5.878  -5.869  -0.843  -0.768  -0.675
 -0.664  -0.620  -0.517  -0.477  -0.452  -0.428  -0.401  -0.382
 -0.359  -0.349  -0.255  -0.244  -0.218
 -- Virtual --
 -0.131   0.010   0.056   0.069   0.089   0.106   0.121   0.132
  0.142   0.173   0.190   0.234   0.322   0.339   0.355   0.364
  0.370   0.375   0.394   0.413   0.491   0.497   0.503   0.555
  0.566   0.610   0.652   0.702   0.710   0.723   0.735   0.753
  0.782   0.786   0.819   0.820   0.829   0.840   0.855   0.857
  0.885   0.898   0.907   0.946   1.041   1.125   1.128   1.158
  1.229   1.289   1.386   1.506   1.518   1.637   1.663   1.782
  1.834   1.931   1.952   1.983   2.042   2.059   2.075   2.085
  2.111   2.117   2.185   2.189   2.213   2.308   2.315   2.440
  2.450   2.465   2.579   2.598   2.673   2.735   2.749   2.755
  2.770   2.821   2.858   3.182   3.247   3.341   3.353   3.453
  3.509   3.964   3.987   4.206   4.371   4.572
 
 Beta MOs
 -- Occupied --
-88.893 -88.856 -10.275 -10.251 -10.230  -7.956  -7.915  -5.921
 -5.917  -5.910  -5.879  -5.878  -5.869  -0.843  -0.768  -0.675
 -0.664  -0.620  -0.517  -0.477  -0.452  -0.428  -0.401  -0.382
 -0.359  -0.349  -0.255  -0.244  -0.218
 -- Virtual --
 -0.131   0.010   0.056   0.069   0.089   0.106   0.121   0.132
  0.142   0.173   0.190   0.234   0.322   0.339   0.355   0.364
  0.370   0.375   0.394   0.413   0.491   0.497   0.503   0.555
  0.566   0.610   0.652   0.702   0.710   0.723   0.735   0.753
  0.782   0.786   0.819   0.820   0.829   0.840   0.855   0.857
  0.885   0.898   0.907   0.946   1.041   1.125   1.128   1.158
  1.229   1.289   1.386   1.506   1.518   1.637   1.663   1.782
  1.834   1.931   1.952   1.983   2.042   2.059   2.075   2.085
  2.111   2.117   2.185   2.189   2.213   2.308   2.315   2.440
  2.450   2.465   2.579   2.598   2.673   2.735   2.749   2.755
  2.770   2.821   2.858   3.182   3.247   3.341   3.353   3.453
  3.509   3.964   3.987   4.206   4.371   4.572
 --------------------------------------------------------------
 
          Ground-State Mulliken Net Atomic Charges

     Atom                 Charge (a.u.)    Spin (a.u.)
  --------------------------------------------------------
      1 S                    -0.021324      -0.000000
      2 S                    -0.336060       0.000000
      3 C                    -0.211599      -0.000000
      4 C                    -0.340820      -0.000000
      5 C                    -0.146878      -0.000000
      6 H                     0.149986      -0.000000
      7 H                     0.165479      -0.000000
      8 H                     0.146425      -0.000000
      9 H                     0.148466      -0.000000
     10 H                     0.165673      -0.000000
     11 H                     0.168302      -0.000000
     12 H                     0.064046       0.000000
     13 H                     0.048305      -0.000000
  --------------------------------------------------------
  Sum of atomic charges =     0.000000
  Sum of spin   charges =     0.000000

 -----------------------------------------------------------------
                    Cartesian Multipole Moments
 -----------------------------------------------------------------
    Charge (ESU x 10^10)
                 0.0000
    Dipole Moment (Debye)
         X       3.7211      Y      -3.2471      Z       0.7825
       Tot       5.0002
    Quadrupole Moments (Debye-Ang)
        XX     -62.5120     XY      -0.7312     YY     -47.0077
        XZ      -2.5972     YZ       1.9992     ZZ     -46.3011
    Octopole Moments (Debye-Ang^2)
       XXX     101.7323    XXY     -30.8492    XYY       8.7657
       YYY     -35.9050    XXZ       4.1429    XYZ      -5.6796
       YYZ       2.6083    XZZ      -2.0731    YZZ     -12.2010
       ZZZ      -0.6132
    Hexadecapole Moments (Debye-Ang^3)
      XXXX   -2085.1325   XXXY      73.1440   XXYY    -366.1583
      XYYY      96.6577   YYYY    -223.4320   XXXZ      -8.1136
      XXYZ      19.0649   XYYZ      -6.4656   YYYZ       2.6053
      XXZZ    -338.7489   XYZZ      23.3652   YYZZ     -46.4173
      XZZZ       6.3045   YZZZ       0.1592   ZZZZ     -81.5461
 -----------------------------------------------------------------
 Calculating analytic gradient of the SCF energy
 Gradient of SCF Energy
            1           2           3           4           5           6
    1   0.0000064  -0.0307363   0.0016488  -0.0002841   0.0248802  -0.0001048
    2  -0.0001520   0.0211840  -0.0002913   0.0004124  -0.0270111   0.0000658
    3  -0.0000047   0.0001014  -0.0000631   0.0000946   0.0029598  -0.0001016
            7           8           9          10          11          12
    1  -0.0001398   0.0000322   0.0000273   0.0026021   0.0016673   0.0000340
    2   0.0000110  -0.0000331  -0.0000356   0.0038240   0.0028977   0.0000180
    3   0.0001332   0.0000261  -0.0000173  -0.0077520   0.0058408   0.0000134
           13
    1   0.0003666
    2  -0.0008897
    3  -0.0012306
 Max gradient component =       3.074E-02
 RMS gradient           =       8.598E-03
 Gradient time:  CPU 10.68 s  wall 0.95 s
 Geometry Optimization Parameters
   NAtoms,    NIC,     NZ,  NCons,   NDum,   NFix, NCnnct, MaxDiis
       13     138       0       1       0       0       0       0

 Cartesian Hessian Update
 Hessian Updated using BFGS Update


** CONSTRAINED OPTIMIZATION IN DELOCALIZED INTERNAL COORDINATES **
   Searching for a Minimum

   Optimization Cycle:   3

                       Coordinates (Angstroms)
     ATOM                X               Y               Z
      1  S         2.8695394185    0.4960776697   -0.0156712070
      2  S        -3.5014416928    0.9123299621   -0.0244982091
      3  C         0.1291300061    0.1482540465    0.0333500197
      4  C         1.4406840878   -0.6773990506   -0.0311810920
      5  C        -1.0268897646   -0.7827263243    0.0335906700
      6  H         0.1364299719    0.7602312335    0.9396900208
      7  H         0.0827136017    0.8153136742   -0.8317671631
      8  H         1.5142229367   -1.3485459840    0.8283912274
      9  H         1.4699984010   -1.2725820904   -0.9472788561
     10  H        -1.3436595603   -1.2566840650    0.9415988013
     11  H        -1.3335336200   -1.2584155723   -0.8803460277
     12  H         3.8337349829   -0.4436006955   -0.0780146284
     13  H        -3.1627367687    1.3313451959    1.2110344443
   Point Group: c1    Number of degrees of freedom:    33


   Energy is   -915.431080816

              Constraints and their Current Values
                                        Value     Constraint
   Distance(Angs):        2   5             3.000000     3.000000
 Hessian Updated using BFGS Update

 31 Hessian modes will be used to form the next step
  Hessian Eigenvalues:
     0.041949    0.044982    0.045000    0.047221    0.059679    0.064600
     0.068204    0.068827    0.074815    0.078839    0.080167    0.084954
     0.095701    0.096051    0.122872    0.125360    0.141812    0.160022
     0.218937    0.220594    0.221849    0.226082    0.258079    0.275287
     0.287170    0.331591    0.343887    0.344063    0.344343    0.344676
     0.344893

 Minimum Search - Taking Simple RFO Step
 Searching for Lamda that Minimizes Along All modes
 Value Taken    Lamda =  -0.00034743
 Step Taken.  Stepsize is  0.040111

                             Maximum     Tolerance    Cnvgd?
         Gradient           0.008926      0.000300      NO
         Displacement       0.028046      0.001200      NO
         Energy change     -0.000039      0.000001      NO


 New Cartesian Coordinates Obtained by Inverse Iteration

 Displacement from previous Coordinates is:  0.033880
 ----------------------------------------------------------------
             Standard Nuclear Orientation (Angstroms)
    I     Atom           X                Y                Z
 ----------------------------------------------------------------
    1      S       2.8682319232     0.4979535356    -0.0151949837
    2      S      -3.4966749449     0.9152549375    -0.0255203946
    3      C       0.1280174056     0.1479748484     0.0334102425
    4      C       1.4406808183    -0.6773583856    -0.0315536733
    5      C      -1.0249169723    -0.7838585968     0.0329868724
    6      H       0.1353917753     0.7593658728     0.9402311421
    7      H       0.0822272688     0.8151068098    -0.8318953031
    8      H       1.5143238605    -1.3487743837     0.8277098208
    9      H       1.4701953095    -1.2718791746    -0.9479852644
   10      H      -1.3467202744    -1.2625540659     0.9510445327
   11      H      -1.3330864513    -1.2633789563    -0.8890287493
   12      H       3.8330925189    -0.4410091520    -0.0780700090
   13      H      -3.1625702374     1.3367547109     1.2127637668
 ----------------------------------------------------------------
 Nuclear Repulsion Energy =   240.7973419303 hartrees
 There are       29 alpha and       29 beta electrons

                       Distance Matrix (Angstroms)
             S (  1)   S (  2)   C (  3)   C (  4)   C (  5)   H (  6)
   S (  2)  6.378580
   C (  3)  2.762901  3.705481
   C (  4)  1.849197  5.187864  1.551928
   C (  5)  4.099021  3.000000  1.482421  2.468741
   H (  6)  2.906818  3.761501  1.093699  2.170788  2.133296
   H (  7)  2.920515  3.669988  1.093579  2.171035  2.128492  1.773800
   H (  8)  2.440074  5.564525  2.189296  1.092958  2.720011  2.521581
   H (  9)  2.440679  5.504934  2.186450  1.092782  2.725079  3.077827
   H ( 10)  4.668921  3.212295  2.237520  3.012899  1.084222  2.506977
   H ( 11)  4.638637  3.189547  2.231062  2.961835  1.083984  3.097437
   H ( 12)  1.347798  7.454375  3.753253  2.404508  4.871359  4.018809
   H ( 13)  6.211445  1.350050  3.692159  5.176379  3.233950  3.359197
             H (  7)   H (  8)   H (  9)   H ( 10)   H ( 11)   H ( 12)
   H (  8)  3.080190
   H (  9)  2.509072  1.777907
   H ( 10)  3.088275  2.864999  3.397266
   H ( 11)  2.515250  3.325993  2.803915  1.840124
   H ( 12)  4.026794  2.649748  2.651487  5.344574  5.293709
   H ( 13)  3.870589  5.406817  5.739018  3.181543  3.811199  7.332530

 
 Applying Cartesian multipole field
    Component          Value
    ---------          -----
     (2,0,0)        1.00000E-11
     (0,2,0)        2.00000E-10
     (0,0,2)       -3.00000E-10
 Nucleus-field energy     =     0.0000000308 hartrees
 Requested basis set is 6-31G(d,p)
 There are 46 shells and 123 basis functions
 A cutoff of  1.0D-14 yielded    972 shell pairs
 There are      6995 function pairs
 Smallest overlap matrix eigenvalue = 5.53E-03
 Guess from superposition of atomic densities
 Warning:  Energy on first SCF cycle will be non-variational
 SAD guess density has 58.000000 electrons

 -----------------------------------------------------------------------
  General SCF calculation program by
  Eric Jon Sundstrom, Paul Horn, Yuezhi Mao, Dmitri Zuev, Alec White,
  David Stuck, Shaama M.S., Shane Yost, Joonho Lee, David Small,
  Daniel Levine, Susi Lehtola, Hugh Burton, Evgeny Epifanovsky
 -----------------------------------------------------------------------
 Exchange:     0.2000 Hartree-Fock + 0.0800 Slater + 0.7200 B88
 Correlation:  0.1900 VWN1RPA + 0.8100 LYP
 Using SG-1 standard quadrature grid
 using 12 threads for integral computing
 -------------------------------------------------------
 OpenMP Integral computing Module                
 Release: version 1.0, May 2013, Q-Chem Inc. Pittsburgh 
 -------------------------------------------------------
 -------------------------------------------------------
 OpenMP BLAS3 based DFT computing Module                
 Release: version 1.0, May 2013, Q-Chem Inc. Pittsburgh 
 -------------------------------------------------------
 A unrestricted SCF calculation will be
 performed using DIIS
 SCF converges when DIIS error is below 1.0e-06
 Alpha HF Exchange    Energy =  -6.82568029802401
 Beta HF Exchange     Energy =  -6.82568029802401
 DFT Correlation      Energy =  -2.69681427490759
 DFT Exchange         Energy = -53.81360521029618
 One-Electron (alpha) Energy = -866.75276946624206
 One-Electron (beta)  Energy = -866.75276946624206
 Total Coulomb        Energy = 647.06076623541514
 ---------------------------------------
  Cycle       Energy         DIIS error
 ---------------------------------------
    1    -915.8092108172      2.62e-02  
 Alpha HF Exchange    Energy =  -6.85117344593884
 Beta HF Exchange     Energy =  -6.85117344593884
 DFT Correlation      Energy =  -2.72218337886445
 DFT Exchange         Energy = -54.38437788154081
 One-Electron (alpha) Energy = -870.45936999851710
 One-Electron (beta)  Energy = -870.45936999851722
 Total Coulomb        Energy = 655.56960578458268
    2    -915.3607004036      2.49e-03  
 Alpha HF Exchange    Energy =  -6.80538267603761
 Beta HF Exchange     Energy =  -6.80538267603761
 DFT Correlation      Energy =  -2.70510205141098
 DFT Exchange         Energy = -54.00250671997099
 One-Electron (alpha) Energy = -866.71813332997215
 One-Electron (beta)  Energy = -866.71813332997237
 Total Coulomb        Energy = 647.86923601826743
    3    -915.0880628040      5.16e-03  
 Alpha HF Exchange    Energy =  -6.81461884315081
 Beta HF Exchange     Energy =  -6.81461884315081
 DFT Correlation      Energy =  -2.70547793879113
 DFT Exchange         Energy = -54.06996741642774
 One-Electron (alpha) Energy = -867.77768148699329
 One-Electron (beta)  Energy = -867.77768148699329
 Total Coulomb        Energy = 649.78821398283048
    4    -915.3744900715      2.24e-03  
 Alpha HF Exchange    Energy =  -6.82047371361367
 Beta HF Exchange     Energy =  -6.82047371361366
 DFT Correlation      Energy =  -2.71176398907174
 DFT Exchange         Energy = -54.14714201384609
 One-Electron (alpha) Energy = -868.53583457994830
 One-Electron (beta)  Energy = -868.53583457994819
 Total Coulomb        Energy = 651.34583144299120
    5    -915.4283491859      5.04e-04  
 Alpha HF Exchange    Energy =  -6.82189244978920
 Beta HF Exchange     Energy =  -6.82189244978920
 DFT Correlation      Energy =  -2.71164140421413
 DFT Exchange         Energy = -54.15529476104243
 One-Electron (alpha) Energy = -868.57742789061410
 One-Electron (beta)  Energy = -868.57742789061399
 Total Coulomb        Energy = 651.43719194089351
    6    -915.4310429440      1.65e-04  
 Alpha HF Exchange    Energy =  -6.82133028277983
 Beta HF Exchange     Energy =  -6.82133028277984
 DFT Correlation      Energy =  -2.71151697820130
 DFT Exchange         Energy = -54.15089147233346
 One-Electron (alpha) Energy = -868.54398726545526
 One-Electron (beta)  Energy = -868.54398726545537
 Total Coulomb        Energy = 651.36447325817926
    7    -915.4312283277      5.68e-05  
 Alpha HF Exchange    Energy =  -6.82136279938149
 Beta HF Exchange     Energy =  -6.82136279938148
 DFT Correlation      Energy =  -2.71150308285076
 DFT Exchange         Energy = -54.15090176750054
 One-Electron (alpha) Energy = -868.54671467687808
 One-Electron (beta)  Energy = -868.54671467687785
 Total Coulomb        Energy = 651.36996091184710
    8    -915.4312569299      2.56e-05  
 Alpha HF Exchange    Energy =  -6.82143483816516
 Beta HF Exchange     Energy =  -6.82143483816516
 DFT Correlation      Energy =  -2.71150987395161
 DFT Exchange         Energy = -54.15131979049955
 One-Electron (alpha) Energy = -868.55069460673917
 One-Electron (beta)  Energy = -868.55069460673940
 Total Coulomb        Energy = 651.37848225618097
    9    -915.4312643369      6.51e-06  
 Alpha HF Exchange    Energy =  -6.82143647668929
 Beta HF Exchange     Energy =  -6.82143647668928
 DFT Correlation      Energy =  -2.71150299208372
 DFT Exchange         Energy = -54.15128066289995
 One-Electron (alpha) Energy = -868.55001255502077
 One-Electron (beta)  Energy = -868.55001255502032
 Total Coulomb        Energy = 651.37707496473263
   10    -915.4312647925      1.15e-06  
 Alpha HF Exchange    Energy =  -6.82143784141008
 Beta HF Exchange     Energy =  -6.82143784141009
 DFT Correlation      Energy =  -2.71150264299793
 DFT Exchange         Energy = -54.15128405914210
 One-Electron (alpha) Energy = -868.55005219964846
 One-Electron (beta)  Energy = -868.55005219964869
 Total Coulomb        Energy = 651.37716001502849
   11    -915.4312648081      1.46e-07  Convergence criterion met
 ---------------------------------------
 SCF time:   CPU 32.75s  wall 3.00s 
<S^2> =          0.000000000
 Alpha HF Exchange    Energy =  -6.82143784141008
 Beta HF Exchange     Energy =  -6.82143784141009
 DFT Correlation      Energy =  -2.71150264299793
 DFT Exchange         Energy = -54.15128405914210
 One-Electron (alpha) Energy = -868.55005219964846
 One-Electron (beta)  Energy = -868.55005219964869
 Total Coulomb        Energy = 651.37716001502849
 Nuclear repulsion Energy = 240.79734196116539
 SCF   energy in the final basis set =     -915.4312648081
 Total energy in the final basis set =     -915.4312648081
 
 --------------------------------------------------------------
 
                    Orbital Energies (a.u.)
 --------------------------------------------------------------
 
 Alpha MOs
 -- Occupied --
-88.894 -88.856 -10.277 -10.252 -10.230  -7.956  -7.914  -5.921
 -5.917  -5.910  -5.878  -5.878  -5.869  -0.843  -0.768  -0.674
 -0.663  -0.619  -0.516  -0.477  -0.451  -0.428  -0.401  -0.382
 -0.358  -0.349  -0.255  -0.243  -0.218
 -- Virtual --
 -0.131   0.010   0.056   0.069   0.088   0.105   0.120   0.131
  0.141   0.172   0.189   0.235   0.323   0.339   0.355   0.364
  0.370   0.375   0.394   0.413   0.491   0.497   0.503   0.556
  0.566   0.611   0.652   0.703   0.710   0.723   0.735   0.753
  0.782   0.786   0.816   0.819   0.829   0.839   0.853   0.854
  0.882   0.898   0.906   0.946   1.041   1.125   1.128   1.156
  1.229   1.289   1.387   1.505   1.517   1.637   1.664   1.782
  1.833   1.921   1.948   1.982   2.042   2.059   2.074   2.084
  2.110   2.116   2.185   2.188   2.212   2.306   2.314   2.433
  2.449   2.458   2.578   2.590   2.672   2.735   2.744   2.752
  2.765   2.818   2.846   3.178   3.235   3.338   3.344   3.438
  3.505   3.964   3.987   4.206   4.371   4.572
 
 Beta MOs
 -- Occupied --
-88.894 -88.856 -10.277 -10.252 -10.230  -7.956  -7.914  -5.921
 -5.917  -5.910  -5.878  -5.878  -5.869  -0.843  -0.768  -0.674
 -0.663  -0.619  -0.516  -0.477  -0.451  -0.428  -0.401  -0.382
 -0.358  -0.349  -0.255  -0.243  -0.218
 -- Virtual --
 -0.131   0.010   0.056   0.069   0.088   0.105   0.120   0.131
  0.141   0.172   0.189   0.235   0.323   0.339   0.355   0.364
  0.370   0.375   0.394   0.413   0.491   0.497   0.503   0.556
  0.566   0.611   0.652   0.703   0.710   0.723   0.735   0.753
  0.782   0.786   0.816   0.819   0.829   0.839   0.853   0.854
  0.882   0.898   0.906   0.946   1.041   1.125   1.128   1.156
  1.229   1.289   1.387   1.505   1.517   1.637   1.664   1.782
  1.833   1.921   1.948   1.982   2.042   2.059   2.074   2.084
  2.110   2.116   2.185   2.188   2.212   2.306   2.314   2.433
  2.449   2.458   2.578   2.590   2.672   2.735   2.744   2.752
  2.765   2.818   2.846   3.178   3.235   3.338   3.344   3.438
  3.505   3.964   3.987   4.206   4.371   4.572
 --------------------------------------------------------------
 
          Ground-State Mulliken Net Atomic Charges

     Atom                 Charge (a.u.)    Spin (a.u.)
  --------------------------------------------------------
      1 S                    -0.021256       0.000000
      2 S                    -0.336681       0.000000
      3 C                    -0.210487       0.000000
      4 C                    -0.341013      -0.000000
      5 C                    -0.147381      -0.000000
      6 H                     0.150262       0.000000
      7 H                     0.165779      -0.000000
      8 H                     0.146526       0.000000
      9 H                     0.148524       0.000000
     10 H                     0.165422      -0.000000
     11 H                     0.168118      -0.000000
     12 H                     0.064070      -0.000000
     13 H                     0.048117      -0.000000
  --------------------------------------------------------
  Sum of atomic charges =     0.000000
  Sum of spin   charges =     0.000000

 -----------------------------------------------------------------
                    Cartesian Multipole Moments
 -----------------------------------------------------------------
    Charge (ESU x 10^10)
                 0.0000
    Dipole Moment (Debye)
         X       3.7283      Y      -3.2540      Z       0.7812
       Tot       5.0099
    Quadrupole Moments (Debye-Ang)
        XX     -62.5178     XY      -0.7027     YY     -47.0299
        XZ      -2.6047     YZ       2.0030     ZZ     -46.2910
    Octopole Moments (Debye-Ang^2)
       XXX     101.6684    XXY     -30.9206    XYY       8.7259
       YYY     -36.0297    XXZ       4.1696    XYZ      -5.6785
       YYZ       2.6318    XZZ      -2.1277    YZZ     -12.2786
       ZZZ      -0.5934
    Hexadecapole Moments (Debye-Ang^3)
      XXXX   -2081.8008   XXXY      73.4964   XXYY    -365.7759
      XYYY      96.6876   YYYY    -224.4437   XXXZ      -8.3960
      XXYZ      19.0553   XYYZ      -6.5499   YYYZ       2.6407
      XXZZ    -338.2129   XYZZ      23.4178   YYZZ     -46.5496
      XZZZ       6.1432   YZZZ       0.1669   ZZZZ     -81.7361
 -----------------------------------------------------------------
 Calculating analytic gradient of the SCF energy
 Gradient of SCF Energy
            1           2           3           4           5           6
    1   0.0000263  -0.0308277   0.0005752  -0.0001628   0.0299840  -0.0000711
    2  -0.0000125   0.0208374  -0.0005007   0.0000948  -0.0204160   0.0000669
    3   0.0000042  -0.0008938  -0.0000582   0.0000353   0.0010705  -0.0000235
            7           8           9          10          11          12
    1  -0.0000476   0.0000048   0.0000110   0.0000039  -0.0000643   0.0000010
    2   0.0000460  -0.0000188  -0.0000284   0.0001677   0.0002489  -0.0000149
    3   0.0000220   0.0000039   0.0000145  -0.0002090   0.0001967   0.0000127
           13
    1   0.0005673
    2  -0.0004705
    3  -0.0001754
 Max gradient component =       3.083E-02
 RMS gradient           =       8.326E-03
 Gradient time:  CPU 10.66 s  wall 0.95 s
 Geometry Optimization Parameters
   NAtoms,    NIC,     NZ,  NCons,   NDum,   NFix, NCnnct, MaxDiis
       13     138       0       1       0       0       0       0

 Cartesian Hessian Update
 Hessian Updated using BFGS Update


** CONSTRAINED OPTIMIZATION IN DELOCALIZED INTERNAL COORDINATES **
   Searching for a Minimum

   Optimization Cycle:   4

                       Coordinates (Angstroms)
     ATOM                X               Y               Z
      1  S         2.8682319232    0.4979535356   -0.0151949837
      2  S        -3.4966749449    0.9152549375   -0.0255203946
      3  C         0.1280174056    0.1479748484    0.0334102425
      4  C         1.4406808183   -0.6773583856   -0.0315536733
      5  C        -1.0249169723   -0.7838585968    0.0329868724
      6  H         0.1353917753    0.7593658728    0.9402311421
      7  H         0.0822272688    0.8151068098   -0.8318953031
      8  H         1.5143238605   -1.3487743837    0.8277098208
      9  H         1.4701953095   -1.2718791746   -0.9479852644
     10  H        -1.3467202744   -1.2625540659    0.9510445327
     11  H        -1.3330864513   -1.2633789563   -0.8890287493
     12  H         3.8330925189   -0.4410091520   -0.0780700090
     13  H        -3.1625702374    1.3367547109    1.2127637668
   Point Group: c1    Number of degrees of freedom:    33


   Energy is   -915.431264808

              Constraints and their Current Values
                                        Value     Constraint
   Distance(Angs):        2   5             3.000000     3.000000
 Hessian Updated using BFGS Update

 32 Hessian modes will be used to form the next step
  Hessian Eigenvalues:
     0.040006    0.044978    0.045000    0.045000    0.047216    0.059683
     0.064485    0.066983    0.068209    0.074721    0.078149    0.080167
     0.084952    0.094500    0.096049    0.122854    0.125361    0.141812
     0.160022    0.218939    0.220578    0.221971    0.226095    0.258079
     0.274573    0.287459    0.335769    0.343981    0.344297    0.344618
     0.344813    0.349840

 Minimum Search - Taking Simple RFO Step
 Searching for Lamda that Minimizes Along All modes
 Value Taken    Lamda =  -0.00000938
 Step Taken.  Stepsize is  0.013504

                             Maximum     Tolerance    Cnvgd?
         Gradient           0.000385      0.000300      NO
         Displacement       0.007455      0.001200      NO
         Energy change     -0.000184      0.000001      NO


 New Cartesian Coordinates Obtained by Inverse Iteration

 Displacement from previous Coordinates is:  0.012319
 ----------------------------------------------------------------
             Standard Nuclear Orientation (Angstroms)
    I     Atom           X                Y                Z
 ----------------------------------------------------------------
    1      S       2.8672934938     0.4990349927    -0.0149482008
    2      S      -3.4940128549     0.9172557905    -0.0254607740
    3      C       0.1272642258     0.1472152586     0.0334949924
    4      C       1.4407277022    -0.6774042725    -0.0316435999
    5      C      -1.0247450425    -0.7854851464     0.0327384502
    6      H       0.1345888682     0.7582837854     0.9404997307
    7      H       0.0815266004     0.8142833401    -0.8318465186
    8      H       1.5147171748    -1.3489058742     0.8275061086
    9      H       1.4705681151    -1.2715978157    -0.9482625415
   10      H      -1.3472870302    -1.2644943932     0.9514341756
   11      H      -1.3327936314    -1.2652609285    -0.8898672402
   12      H       3.8328749289    -0.4391718554    -0.0780401832
   13      H      -3.1625305503     1.3398451186     1.2132936007
 ----------------------------------------------------------------
 Nuclear Repulsion Energy =   240.8188424133 hartrees
 There are       29 alpha and       29 beta electrons

                       Distance Matrix (Angstroms)
             S (  1)   S (  2)   C (  3)   C (  4)   C (  5)   H (  6)
   S (  2)  6.375048
   C (  3)  2.762948  3.702713
   C (  4)  1.849156  5.186005  1.552233
   C (  5)  4.098808  3.000000  1.482247  2.468680
   H (  6)  2.906504  3.758338  1.093671  2.170774  2.133380
   H (  7)  2.920137  3.666789  1.093566  2.170918  2.128521  1.774024
   H (  8)  2.440098  5.563310  2.189488  1.092944  2.719920  2.521462
   H (  9)  2.440709  5.503609  2.186628  1.092770  2.724932  3.077772
   H ( 10)  4.669756  3.212910  2.238267  3.013991  1.085120  2.507530
   H ( 11)  4.638853  3.190838  2.231469  2.962186  1.084564  3.098094
   H ( 12)  1.347798  7.451573  3.753377  2.404428  4.871209  4.018537
   H ( 13)  6.210823  1.350176  3.692836  5.177755  3.237417  3.359111
             H (  7)   H (  8)   H (  9)   H ( 10)   H ( 11)   H ( 12)
   H (  8)  3.080077
   H (  9)  2.508762  1.777999
   H ( 10)  3.089161  2.865929  3.398412
   H ( 11)  2.515586  3.326362  2.803977  1.841359
   H ( 12)  4.026411  2.649809  2.651549  5.345564  5.293923
   H ( 13)  3.870752  5.408776  5.740868  3.185320  3.815469  7.332676

 
 Applying Cartesian multipole field
    Component          Value
    ---------          -----
     (2,0,0)        1.00000E-11
     (0,2,0)        2.00000E-10
     (0,0,2)       -3.00000E-10
 Nucleus-field energy     =     0.0000000309 hartrees
 Requested basis set is 6-31G(d,p)
 There are 46 shells and 123 basis functions
 A cutoff of  1.0D-14 yielded    972 shell pairs
 There are      6995 function pairs
 Smallest overlap matrix eigenvalue = 5.53E-03
 Guess from superposition of atomic densities
 Warning:  Energy on first SCF cycle will be non-variational
 SAD guess density has 58.000000 electrons

 -----------------------------------------------------------------------
  General SCF calculation program by
  Eric Jon Sundstrom, Paul Horn, Yuezhi Mao, Dmitri Zuev, Alec White,
  David Stuck, Shaama M.S., Shane Yost, Joonho Lee, David Small,
  Daniel Levine, Susi Lehtola, Hugh Burton, Evgeny Epifanovsky
 -----------------------------------------------------------------------
[...]
 ----------------------------------------------------------------
 Nuclear Repulsion Energy =   240.9863851851 hartrees
 There are       29 alpha and       29 beta electrons

                       Distance Matrix (Angstroms)
             S (  1)   S (  2)   C (  3)   C (  4)   C (  5)   H (  6)
   S (  2)  6.350615
   C (  3)  2.763179  3.684635
   C (  4)  1.849089  5.172621  1.552202
   C (  5)  4.099804  3.000000  1.482701  2.469764
   H (  6)  2.907201  3.734265  1.093541  2.170978  2.133090
   H (  7)  2.920909  3.639780  1.093486  2.171017  2.128295  1.773923
   H (  8)  2.440006  5.556175  2.189482  1.092965  2.720957  2.521796
   H (  9)  2.440602  5.494573  2.186607  1.092805  2.726133  3.077888
   H ( 10)  4.671493  3.218643  2.237848  3.016658  1.084179  2.505581
   H ( 11)  4.638952  3.200162  2.231512  2.961880  1.084198  3.097685
   H ( 12)  1.347779  7.432339  3.753674  2.404616  4.872474  4.019176
   H ( 13)  6.216529  1.350345  3.708904  5.197757  3.271626  3.366765
             H (  7)   H (  8)   H (  9)   H ( 10)   H ( 11)   H ( 12)
   H (  8)  3.080141
   H (  9)  2.508758  1.777948
   H ( 10)  3.087508  2.869791  3.401748
   H ( 11)  2.515776  3.325505  2.803767  1.840694
   H ( 12)  4.027254  2.649734  2.651832  5.348593  5.293964
   H ( 13)  3.875195  5.435540  5.764301  3.224882  3.852322  7.344523

 
 Applying Cartesian multipole field
    Component          Value
    ---------          -----
     (2,0,0)        1.00000E-11
     (0,2,0)        2.00000E-10
     (0,0,2)       -3.00000E-10
 Nucleus-field energy     =     0.0000000314 hartrees
 Requested basis set is 6-31G(d,p)
 There are 46 shells and 123 basis functions
 A cutoff of  1.0D-14 yielded    972 shell pairs
 There are      6995 function pairs
 Smallest overlap matrix eigenvalue = 5.52E-03
 Guess from superposition of atomic densities
 Warning:  Energy on first SCF cycle will be non-variational
 SAD guess density has 58.000000 electrons

 -----------------------------------------------------------------------
  General SCF calculation program by
  Eric Jon Sundstrom, Paul Horn, Yuezhi Mao, Dmitri Zuev, Alec White,
  David Stuck, Shaama M.S., Shane Yost, Joonho Lee, David Small,
  Daniel Levine, Susi Lehtola, Hugh Burton, Evgeny Epifanovsky
 -----------------------------------------------------------------------
 Exchange:     0.2000 Hartree-Fock + 0.0800 Slater + 0.7200 B88
 Correlation:  0.1900 VWN1RPA + 0.8100 LYP
 Using SG-1 standard quadrature grid
 using 12 threads for integral computing
 -------------------------------------------------------
 OpenMP Integral computing Module                
 Release: version 1.0, May 2013, Q-Chem Inc. Pittsburgh 
 -------------------------------------------------------
 -------------------------------------------------------
 OpenMP BLAS3 based DFT computing Module                
 Release: version 1.0, May 2013, Q-Chem Inc. Pittsburgh 
 -------------------------------------------------------
 A unrestricted SCF calculation will be
 performed using DIIS
 SCF converges when DIIS error is below 1.0e-06
 Alpha HF Exchange    Energy =  -6.82560220321459
 Beta HF Exchange     Energy =  -6.82560220321459
 DFT Correlation      Energy =  -2.69679446608018
 DFT Exchange         Energy = -53.81345228970832
 One-Electron (alpha) Energy = -866.94211656505308
 One-Electron (beta)  Energy = -866.94211656505308
 Total Coulomb        Energy = 647.25077406856531
 ---------------------------------------
  Cycle       Energy         DIIS error
 ---------------------------------------
    1    -915.8085250073      2.62e-02  
 Alpha HF Exchange    Energy =  -6.85118628128515
 Beta HF Exchange     Energy =  -6.85118628128515
 DFT Correlation      Energy =  -2.72217841904670
 DFT Exchange         Energy = -54.38429888305842
 One-Electron (alpha) Energy = -870.65927094119002
 One-Electron (beta)  Energy = -870.65927094119058
 Total Coulomb        Energy = 655.78036808836191
    2    -915.3606384422      2.49e-03  
 Alpha HF Exchange    Energy =  -6.80538716948749
 Beta HF Exchange     Energy =  -6.80538716948749
 DFT Correlation      Energy =  -2.70509091858831
 DFT Exchange         Energy = -54.00250157045648
 One-Electron (alpha) Energy = -866.90076735370360
 One-Electron (beta)  Energy = -866.90076735370383
 Total Coulomb        Energy = 648.04655559431558
    3    -915.0869607246      5.17e-03  
 Alpha HF Exchange    Energy =  -6.81461361697312
 Beta HF Exchange     Energy =  -6.81461361697312
 DFT Correlation      Energy =  -2.70546058830508
 DFT Exchange         Energy = -54.06974315415277
 One-Electron (alpha) Energy = -867.97273014589882
 One-Electron (beta)  Energy = -867.97273014589859
 Total Coulomb        Energy = 649.98904519381608
    4    -915.3744608579      2.24e-03  
 Alpha HF Exchange    Energy =  -6.82046453135981
 Beta HF Exchange     Energy =  -6.82046453135981
 DFT Correlation      Energy =  -2.71174936915214
 DFT Exchange         Energy = -54.14695183394469
 One-Electron (alpha) Energy = -868.72877623211195
 One-Electron (beta)  Energy = -868.72877623211207
 Total Coulomb        Energy = 651.54240349229156
    5    -915.4283940213      5.04e-04  
 Alpha HF Exchange    Energy =  -6.82189593320245
 Beta HF Exchange     Energy =  -6.82189593320244
 DFT Correlation      Energy =  -2.71163049961833
 DFT Exchange         Energy = -54.15519251479436
 One-Electron (alpha) Energy = -868.77165121434598
 One-Electron (beta)  Energy = -868.77165121434587
 Total Coulomb        Energy = 651.63644794949835
    6    -915.4310841435      1.65e-04  
 Alpha HF Exchange    Energy =  -6.82132966487601
 Beta HF Exchange     Energy =  -6.82132966487600
 DFT Correlation      Energy =  -2.71150502608384
 DFT Exchange         Energy = -54.15076105797220
 One-Electron (alpha) Energy = -868.73781654508321
 One-Electron (beta)  Energy = -868.73781654508286
 Total Coulomb        Energy = 651.56290327321267
    7    -915.4312700143      5.70e-05  
 Alpha HF Exchange    Energy =  -6.82136196815208
 Beta HF Exchange     Energy =  -6.82136196815208
 DFT Correlation      Energy =  -2.71149109398135
 DFT Exchange         Energy = -54.15076844246698
 One-Electron (alpha) Energy = -868.74062302030620
 One-Electron (beta)  Energy = -868.74062302030643
 Total Coulomb        Energy = 651.56854555070595
    8    -915.4312987462      2.57e-05  
 Alpha HF Exchange    Energy =  -6.82143439582245
 Beta HF Exchange     Energy =  -6.82143439582244
 DFT Correlation      Energy =  -2.71149788869230
 DFT Exchange         Energy = -54.15118780544494
 One-Electron (alpha) Energy = -868.74464873907857
 One-Electron (beta)  Energy = -868.74464873907789
 Total Coulomb        Energy = 651.57716052363980
    9    -915.4313062238      6.53e-06  
 Alpha HF Exchange    Energy =  -6.82143608873522
 Beta HF Exchange     Energy =  -6.82143608873523
 DFT Correlation      Energy =  -2.71149098320538
 DFT Exchange         Energy = -54.15114871925987
 One-Electron (alpha) Energy = -868.74396857975023
 One-Electron (beta)  Energy = -868.74396857975057
 Total Coulomb        Energy = 651.57575714043980
   10    -915.4313066825      1.14e-06  
 Alpha HF Exchange    Energy =  -6.82143746793993
 Beta HF Exchange     Energy =  -6.82143746793992
 DFT Correlation      Energy =  -2.71149064802084
 DFT Exchange         Energy = -54.15115225676898
 One-Electron (alpha) Energy = -868.74401321484027
 One-Electron (beta)  Energy = -868.74401321484038
 Total Coulomb        Energy = 651.57585235592137
   11    -915.4313066980      1.45e-07  Convergence criterion met
 ---------------------------------------
 SCF time:   CPU 32.23s  wall 3.00s 
<S^2> =          0.000000000
 Alpha HF Exchange    Energy =  -6.82143746793993
 Beta HF Exchange     Energy =  -6.82143746793992
 DFT Correlation      Energy =  -2.71149064802084
 DFT Exchange         Energy = -54.15115225676898
 One-Electron (alpha) Energy = -868.74401321484027
 One-Electron (beta)  Energy = -868.74401321484038
 Total Coulomb        Energy = 651.57585235592137
 Nuclear repulsion Energy = 240.98638521647308
 SCF   energy in the final basis set =     -915.4313066980
 Total energy in the final basis set =     -915.4313066980
 
 --------------------------------------------------------------
 
                    Orbital Energies (a.u.)
 --------------------------------------------------------------
 
 Alpha MOs
 -- Occupied --
-88.893 -88.856 -10.277 -10.251 -10.230  -7.956  -7.914  -5.921
 -5.917  -5.910  -5.878  -5.877  -5.869  -0.843  -0.768  -0.674
 -0.663  -0.619  -0.516  -0.476  -0.451  -0.428  -0.401  -0.382
 -0.358  -0.349  -0.255  -0.243  -0.218
 -- Virtual --
 -0.130   0.010   0.056   0.069   0.088   0.105   0.120   0.131
  0.141   0.172   0.189   0.235   0.322   0.340   0.355   0.364
  0.370   0.375   0.394   0.413   0.492   0.498   0.503   0.557
  0.566   0.610   0.652   0.705   0.709   0.723   0.735   0.752
  0.782   0.787   0.816   0.819   0.830   0.839   0.853   0.854
  0.882   0.898   0.906   0.947   1.041   1.126   1.129   1.155
  1.229   1.290   1.387   1.505   1.517   1.637   1.664   1.782
  1.833   1.920   1.948   1.981   2.042   2.059   2.075   2.085
  2.110   2.116   2.185   2.188   2.212   2.306   2.315   2.433
  2.450   2.459   2.578   2.590   2.672   2.735   2.744   2.751
  2.765   2.819   2.846   3.179   3.235   3.338   3.345   3.438
  3.505   3.965   3.987   4.206   4.371   4.572
 
 Beta MOs
 -- Occupied --
-88.893 -88.856 -10.277 -10.251 -10.230  -7.956  -7.914  -5.921
 -5.917  -5.910  -5.878  -5.877  -5.869  -0.843  -0.768  -0.674
 -0.663  -0.619  -0.516  -0.476  -0.451  -0.428  -0.401  -0.382
 -0.358  -0.349  -0.255  -0.243  -0.218
 -- Virtual --
 -0.130   0.010   0.056   0.069   0.088   0.105   0.120   0.131
  0.141   0.172   0.189   0.235   0.322   0.340   0.355   0.364
  0.370   0.375   0.394   0.413   0.492   0.498   0.503   0.557
  0.566   0.610   0.652   0.705   0.709   0.723   0.735   0.752
  0.782   0.787   0.816   0.819   0.830   0.839   0.853   0.854
  0.882   0.898   0.906   0.947   1.041   1.126   1.129   1.155
  1.229   1.290   1.387   1.505   1.517   1.637   1.664   1.782
  1.833   1.920   1.948   1.981   2.042   2.059   2.075   2.085
  2.110   2.116   2.185   2.188   2.212   2.306   2.315   2.433
  2.450   2.459   2.578   2.590   2.672   2.735   2.744   2.751
  2.765   2.819   2.846   3.179   3.235   3.338   3.345   3.438
  3.505   3.965   3.987   4.206   4.371   4.572
 --------------------------------------------------------------
 
          Ground-State Mulliken Net Atomic Charges

     Atom                 Charge (a.u.)    Spin (a.u.)
  --------------------------------------------------------
      1 S                    -0.021352       0.000000
      2 S                    -0.337798      -0.000000
      3 C                    -0.209593      -0.000000
      4 C                    -0.341341       0.000000
      5 C                    -0.146354       0.000000
      6 H                     0.150343       0.000000
      7 H                     0.166144      -0.000000
      8 H                     0.146289      -0.000000
      9 H                     0.148252      -0.000000
     10 H                     0.165503       0.000000
     11 H                     0.167582      -0.000000
     12 H                     0.063940      -0.000000
     13 H                     0.048385      -0.000000
  --------------------------------------------------------
  Sum of atomic charges =     0.000000
  Sum of spin   charges =     0.000000

 -----------------------------------------------------------------
                    Cartesian Multipole Moments
 -----------------------------------------------------------------
    Charge (ESU x 10^10)
                -0.0000
    Dipole Moment (Debye)
         X       3.6921      Y      -3.2851      Z       0.7810
       Tot       5.0033
    Quadrupole Moments (Debye-Ang)
        XX     -62.2803     XY      -0.6738     YY     -46.9906
        XZ      -2.6506     YZ       2.0380     ZZ     -46.2815
    Octopole Moments (Debye-Ang^2)
       XXX     100.3264    XXY     -30.9210    XYY       8.1908
       YYY     -36.6828    XXZ       4.3071    XYZ      -5.7613
       YYZ       2.7141    XZZ      -2.3325    YZZ     -12.4894
       ZZZ      -0.6687
    Hexadecapole Moments (Debye-Ang^3)
      XXXX   -2062.7336   XXXY      74.3824   XXYY    -363.1412
      XYYY      96.9818   YYYY    -228.5313   XXXZ      -9.5964
      XXYZ      19.2640   XYYZ      -6.8394   YYYZ       2.7017
      XXZZ    -335.6009   XYZZ      23.4825   YYZZ     -47.1710
      XZZZ       5.9545   YZZZ       0.0807   ZZZZ     -81.7463
 -----------------------------------------------------------------
 Calculating analytic gradient of the SCF energy
 Gradient of SCF Energy
            1           2           3           4           5           6
    1   0.0000121  -0.0298629   0.0001213  -0.0000676   0.0297051  -0.0000453
    2  -0.0000169   0.0211361   0.0000213   0.0000540  -0.0214137   0.0000264
    3   0.0000077  -0.0006719  -0.0000002   0.0000291   0.0007278  -0.0000172
            7           8           9          10          11          12
    1  -0.0000212  -0.0000030   0.0000056   0.0000049   0.0000946   0.0000011
    2  -0.0000000  -0.0000123  -0.0000198   0.0001978   0.0000524  -0.0000134
    3   0.0000026   0.0000061   0.0000103  -0.0002250   0.0001361   0.0000115
           13
    1   0.0000552
    2  -0.0000120
    3  -0.0000169
 Max gradient component =       2.986E-02
 RMS gradient           =       8.291E-03
 Gradient time:  CPU 10.61 s  wall 0.94 s
 Geometry Optimization Parameters
   NAtoms,    NIC,     NZ,  NCons,   NDum,   NFix, NCnnct, MaxDiis
       13     138       0       1       0       0       0       0

 Cartesian Hessian Update
 Hessian Updated using BFGS Update


** CONSTRAINED OPTIMIZATION IN DELOCALIZED INTERNAL COORDINATES **
   Searching for a Minimum

   Optimization Cycle:  10

                       Coordinates (Angstroms)
     ATOM                X               Y               Z
      1  S         2.8618593997    0.5062033739   -0.0132976836
      2  S        -3.4744656568    0.9318291813   -0.0252587633
      3  C         0.1235161727    0.1397170699    0.0348897722
      4  C         1.4414315569   -0.6774887730   -0.0329630872
      5  C        -1.0245034431   -0.7986031084    0.0320702964
      6  H         0.1272916464    0.7482769336    0.9434448575
      7  H         0.0734115280    0.8086981114   -0.8286299784
      8  H         1.5192857215   -1.3511482013    0.8241801796
      9  H         1.4742113012   -1.2689400567   -0.9512945640
     10  H        -1.3468218225   -1.2777755116    0.9496483079
     11  H        -1.3288880295   -1.2790755546   -0.8909578155
     12  H         3.8324827568   -0.4265905673   -0.0788163164
     13  H        -3.1706191314    1.3684951027    1.2158827949
   Point Group: c1    Number of degrees of freedom:    33


   Energy is   -915.431306698

              Constraints and their Current Values
                                        Value     Constraint
   Distance(Angs):        2   5             3.000000     3.000000
 Hessian Updated using BFGS Update

 32 Hessian modes will be used to form the next step
  Hessian Eigenvalues:
     0.003770    0.014341    0.045000    0.045001    0.045593    0.047296
     0.059844    0.065403    0.068277    0.072973    0.078070    0.080168
     0.085000    0.085601    0.099437    0.123351    0.125361    0.141817
     0.160072    0.219226    0.219597    0.220992    0.226114    0.258079
     0.278898    0.289391    0.341794    0.343996    0.344262    0.344652
     0.344861    0.507137

 Minimum Search - Taking Simple RFO Step
 Searching for Lamda that Minimizes Along All modes
 Value Taken    Lamda =  -0.00000108
 Step Taken.  Stepsize is  0.010454

                             Maximum     Tolerance    Cnvgd?
         Gradient           0.000266      0.000300     YES
         Displacement       0.004629      0.001200      NO
         Energy change     -0.000001      0.000001     YES


                       Distance Matrix (Angstroms)
             S (  1)   S (  2)   C (  3)   C (  4)   C (  5)   H (  6)
   S (  2)  6.350615
   C (  3)  2.763179  3.684635
   C (  4)  1.849089  5.172621  1.552202
   C (  5)  4.099804  3.000000  1.482701  2.469764
   H (  6)  2.907201  3.734265  1.093541  2.170978  2.133090
   H (  7)  2.920909  3.639780  1.093486  2.171017  2.128295  1.773923
   H (  8)  2.440006  5.556175  2.189482  1.092965  2.720957  2.521796
   H (  9)  2.440602  5.494573  2.186607  1.092805  2.726133  3.077888
   H ( 10)  4.671493  3.218643  2.237848  3.016658  1.084179  2.505581
   H ( 11)  4.638952  3.200162  2.231512  2.961880  1.084198  3.097685
   H ( 12)  1.347779  7.432339  3.753674  2.404616  4.872474  4.019176
   H ( 13)  6.216529  1.350345  3.708904  5.197757  3.271626  3.366765
             H (  7)   H (  8)   H (  9)   H ( 10)   H ( 11)   H ( 12)
   H (  8)  3.080141
   H (  9)  2.508758  1.777948
   H ( 10)  3.087508  2.869791  3.401748
   H ( 11)  2.515776  3.325505  2.803767  1.840694
   H ( 12)  4.027254  2.649734  2.651832  5.348593  5.293964
   H ( 13)  3.875195  5.435540  5.764301  3.224882  3.852322  7.344523

 
 Final energy is   -915.431306697956     


 ******************************
 **  OPTIMIZATION CONVERGED  **
 ******************************

                       Coordinates (Angstroms)
     ATOM                X               Y               Z
      1  S         2.8618593997    0.5062033739   -0.0132976836
      2  S        -3.4744656568    0.9318291813   -0.0252587633
      3  C         0.1235161727    0.1397170699    0.0348897722
      4  C         1.4414315569   -0.6774887730   -0.0329630872
      5  C        -1.0245034431   -0.7986031084    0.0320702964
      6  H         0.1272916464    0.7482769336    0.9434448575
      7  H         0.0734115280    0.8086981114   -0.8286299784
      8  H         1.5192857215   -1.3511482013    0.8241801796
      9  H         1.4742113012   -1.2689400567   -0.9512945640
     10  H        -1.3468218225   -1.2777755116    0.9496483079
     11  H        -1.3288880295   -1.2790755546   -0.8909578155
     12  H         3.8324827568   -0.4265905673   -0.0788163164
     13  H        -3.1706191314    1.3684951027    1.2158827949

Z-matrix Print:
$molecule
0 1
S 
H  1 1.347779
C  1 1.849089 2 96.295269
H  3 1.092805 1 109.411989 2 -59.664691 0
H  3 1.092965 1 109.359996 2 59.489067 0
C  3 1.552202 1 108.345023 2 -179.971347 0
H  6 1.093486 3 109.055206 1 59.836939 0
H  6 1.093541 3 109.049018 1 -58.374782 0
C  6 1.482701 3 108.913701 1 -179.500285 0
H  9 1.084179 6 120.548952 3 82.380374 0
H  9 1.084198 6 119.963317 3 -76.303833 0
S  9 3.000000 6 105.504856 3 -176.208006 0
H  12 1.350345 9 89.152135 6 -66.987718 0
$end

PES scan, value:    3.0000 energy: -915.4313066980
------- Summary of potential scan: ------ 
    3.0000      -915.4313066980
----------------------------------------- 
Archival summary:
1\1\hpc0250\JobtypUnspecified\ProcedureUnspecified\6-31G**\238\knomura\ThuMar1405:41:482019ThuMar1405:41:482019\0\\#,JobtypUnspecified,ProcedureUnspecified,6-31G**,\\0,1\S\H,1,1.34778\C,1,1.84909,2,96.2953\H,3,1.0928,1,109.412,2,-59.6647,0\H,3,1.09297,1,109.36,2,59.4891,0\C,3,1.5522,1,108.345,2,-179.971,0\H,6,1.09349,3,109.055,1,59.8369,0\H,6,1.09354,3,109.049,1,-58.3748,0\C,6,1.4827,3,108.914,1,-179.5,0\H,9,1.08418,6,120.549,3,82.3804,0\H,9,1.0842,6,119.963,3,-76.3038,0\S,9,3,6,105.505,3,-176.208,0\H,12,1.35035,9,89.1521,6,-66.9877,0\\\@

 Total job time:  42.19s(wall), 484.00s(cpu) 
 Thu Mar 14 05:41:48 2019

        *************************************************************
        *                                                           *
        *  Thank you very much for using Q-Chem.  Have a nice day.  *
        *                                                           *
        *************************************************************


