
Running Job 1 of 1 thiol/04/C-S.xyz.data/inputs/bond_triplet_5.2.in
qchem thiol/04/C-S.xyz.data/inputs/bond_triplet_5.2.in_7641.0 /staging/scratch/2868767/qchem7641/ 1
/usr/usc/qchem/5.1.1/exe/qcprog.exe_s thiol/04/C-S.xyz.data/inputs/bond_triplet_5.2.in_7641.0 /staging/scratch/2868767/qchem7641/
Check license passed

                  Welcome to Q-Chem
     A Quantum Leap Into The Future Of Chemistry


 Q-Chem 5.1, Q-Chem, Inc., Pleasanton, CA (2018)

 Yihan Shao,  Zhengting Gan,  E. Epifanovsky,  A. T. B. Gilbert,  M. Wormit,  
 J. Kussmann,  A. W. Lange,  A. Behn,  Jia Deng,  Xintian Feng,  D. Ghosh,  
 M. Goldey,  P. R. Horn,  L. D. Jacobson,  I. Kaliman,  T. Kus,  A. Landau,  
 Jie Liu,  E. I. Proynov,  R. M. Richard,  R. P. Steele,  E. J. Sundstrom,  
 H. L. Woodcock III,  P. M. Zimmerman,  D. Zuev,  B. Albrecht,  E. Alguire,  
 S. A. Baeppler,  D. Barton,  Z. Benda,  Y. A. Bernard,  E. J. Berquist,  
 K. B. Bravaya,  H. Burton,  D. Casanova,  Chun-Min Chang,  Yunqing Chen,  
 A. Chien,  K. D. Closser,  M. P. Coons,  S. Coriani,  S. Dasgupta,  
 A. L. Dempwolff,  M. Diedenhofen,  Hainam Do,  R. G. Edgar,  Po-Tung Fang,  
 S. Faraji,  S. Fatehi,  Qingguo Feng,  K. D. Fenk,  J. Fosso-Tande,  
 Qinghui Ge,  A. Ghysels,  G. Gidofalvi,  J. Gomes,  J. Gonthier,  A. Gunina,  
 D. Hait,  M. W. D. Hanson-Heine,  P. H. P. Harbach,  A. W. Hauser,  
 J. E. Herr,  E. G. Hohenstein,  Z. C. Holden,  Kerwin Hui,  B. C. Huynh,  
 T.-C. Jagau,  Hyunjun Ji,  B. Kaduk,  K. Khistyaev,  Jaehoon Kim,  
 P. Klunzinger,  K. Koh,  D. Kosenkov,  L. Koulias,  T. Kowalczyk,  
 C. M. Krauter,  A. Kunitsa,  Ka Un Lao,  A. Laurent,  K. V. Lawler,  
 Joonho Lee,  D. Lefrancois,  S. Lehtola,  D. S. Levine,  Yi-Pei Li,  
 You-Sheng Lin,  Fenglai Liu,  E. Livshits,  A. Luenser,  P. Manohar,  
 E. Mansoor,  S. F. Manzer,  Shan-Ping Mao,  Yuezhi Mao,  N. Mardirossian,  
 A. V. Marenich,  T. Markovich,  L. A. Martinez-Martinez,  S. A. Maurer,  
 N. J. Mayhall,  S. C. McKenzie,  J.-M. Mewes,  A. F. Morrison,  
 J. W. Mullinax,  K. Nanda,  T. S. Nguyen-Beck,  R. Olivares-Amaya,  
 J. A. Parkhill,  T. M. Perrine,  F. Plasser,  P. Pokhilko,  S. Prager,  
 A. Prociuk,  E. Ramos,  D. R. Rehn,  F. Rob,  M. Schneider,  N. Sergueev,  
 S. M. Sharada,  S. Sharma,  D. W. Small,  T. Stauch,  T. Stein,  
 Yu-Chuan Su,  A. J. W. Thom,  A. Tkatchenko,  T. Tsuchimochi,  N. M. Tubman,  
 L. Vogt,  M. L. Vidal,  O. Vydrov,  M. A. Watson,  J. Wenzel,  
 M. de Wergifosse,  T. A. Wesolowski,  A. White,  J. Witte,  A. Yamada,  
 Jun Yang,  K. Yao,  S. Yeganeh,  S. R. Yost,  Zhi-Qiang You,  A. Zech,  
 Igor Ying Zhang,  Xing Zhang,  Yan Zhao,  Ying Zhu,  B. R. Brooks,  
 G. K. L. Chan,  C. J. Cramer,  M. S. Gordon,  W. J. Hehre,  A. Klamt,  
 M. W. Schmidt,  C. D. Sherrill,  D. G. Truhlar,  A. Aspuru-Guzik,  R. Baer,  
 A. T. Bell,  N. A. Besley,  Jeng-Da Chai,  A. E. DePrince, III,  
 R. A. DiStasio Jr.,  A. Dreuw,  B. D. Dunietz,  T. R. Furlani,  
 Chao-Ping Hsu,  Yousung Jung,  Jing Kong,  D. S. Lambrecht,  WanZhen Liang,  
 C. Ochsenfeld,  V. A. Rassolov,  L. V. Slipchenko,  J. E. Subotnik,  
 T. Van Voorhis,  J. M. Herbert,  A. I. Krylov,  P. M. W. Gill,  M. Head-Gordon

 Contributors to earlier versions of Q-Chem not listed above: 
 R. D. Adamson,  B. Austin,  J. Baker,  G. J. O. Beran,  K. Brandhorst,  
 S. T. Brown,  E. F. C. Byrd,  A. K. Chakraborty,  C.-L. Cheng,  
 Siu Hung Chien,  D. M. Chipman,  D. L. Crittenden,  H. Dachsel,  
 R. J. Doerksen,  A. D. Dutoi,  L. Fusti-Molnar,  W. A. Goddard III,  
 A. Golubeva-Zadorozhnaya,  S. R. Gwaltney,  G. Hawkins,  A. Heyden,  
 S. Hirata,  G. Kedziora,  F. J. Keil,  C. Kelley,  Jihan Kim,  R. A. King,  
 R. Z. Khaliullin,  P. P. Korambath,  W. Kurlancheek,  A. M. Lee,  M. S. Lee,  
 S. V. Levchenko,  Ching Yeh Lin,  D. Liotard,  R. C. Lochan,  I. Lotan,  
 P. E. Maslen,  N. Nair,  D. P. O'Neill,  D. Neuhauser,  E. Neuscamman,  
 C. M. Oana,  R. Olson,  B. Peters,  R. Peverati,  P. A. Pieniazek,  
 Y. M. Rhee,  J. Ritchie,  M. A. Rohrdanz,  E. Rosta,  N. J. Russ,  
 H. F. Schaefer III,  N. E. Schultz,  N. Shenvi,  A. C. Simmonett,  A. Sodt,  
 D. Stuck,  K. S. Thanthiriwatte,  V. Vanovschi,  Tao Wang,  A. Warshel,  
 C. F. Williams,  Q. Wu,  X. Xu,  W. Zhang

 Please cite Q-Chem as follows:
 Y. Shao et al., Mol. Phys. 113, 184-215 (2015)
 DOI: 10.1080/00268976.2014.952696

 Q-Chem 5.1.1 for Intel X86 EM64T Linux

 Parts of Q-Chem use Armadillo 8.300.2 (Tropical Shenanigans).
 http://arma.sourceforge.net/

 Q-Chem begins on Thu Mar 14 08:14:06 2019  

Host: 
0

     Scratch files written to /staging/scratch/2868767/qchem7641//
 Aug318 |scratch|qcdevops|jenkins|workspace|build_RNUM 6013   
Processing $rem in /usr/usc/qchem/5.1.1/config/preferences.
 MEM_TOTAL  2000 
Input Ideriv = 2
Curr. Ideriv = -1
Max.  Ideriv = 2

Checking the input file for inconsistencies... 	...done.

--------------------------------------------------------------
User input:
--------------------------------------------------------------

$comment
potential surface scanner
$end

$rem
JOBTYPE  PES_SCAN
UNRESTRICTED TRUE
SYM_IGNORE  TRUE
GEOM_OPT_MAX_CYCLES 400
SCF_MAX_CYCLES 400
METHOD   B3LYP
BASIS   6-31G**
PDB_PRINT 2
SCF_CONVERGENCE 6
THRESH 14
SCF_PRINT 1
$end
$molecule
0 3
S 3.153419 0.436526 -0.058176
S -5.206013 1.824832 -0.001126
C 0.424179 -0.062318 0.085553
C 1.772802 -0.797503 -0.081263
C -0.728464 -1.009844 0.077382
H 0.449186 0.502972 1.025184
H 0.325365 0.667039 -0.728372
H 1.914907 -1.512622 0.732737
H 1.790447 -1.338705 -1.030507
H -1.072112 -1.478993 0.993454
H -1.140845 -1.372914 -0.858515
H 4.158372 -0.444821 -0.229136
H -4.733048 2.009951 1.251681
$end
$scan
stre 2 5 5.200000 5.201000 0.100000
$end
--------------------------------------------------------------
 ----------------------------------------------------------------
             Standard Nuclear Orientation (Angstroms)
    I     Atom           X                Y                Z
 ----------------------------------------------------------------
    1      S       3.1534190000     0.4365260000    -0.0581760000
    2      S      -5.2060130000     1.8248320000    -0.0011260000
    3      C       0.4241790000    -0.0623180000     0.0855530000
    4      C       1.7728020000    -0.7975030000    -0.0812630000
    5      C      -0.7284640000    -1.0098440000     0.0773820000
    6      H       0.4491860000     0.5029720000     1.0251840000
    7      H       0.3253650000     0.6670390000    -0.7283720000
    8      H       1.9149070000    -1.5126220000     0.7327370000
    9      H       1.7904470000    -1.3387050000    -1.0305070000
   10      H      -1.0721120000    -1.4789930000     0.9934540000
   11      H      -1.1408450000    -1.3729140000    -0.8585150000
   12      H       4.1583720000    -0.4448210000    -0.2291360000
   13      H      -4.7330480000     2.0099510000     1.2516810000
 ----------------------------------------------------------------
 Nuclear Repulsion Energy =   213.0240961659 hartrees
 There are       30 alpha and       28 beta electrons
 Requested basis set is 6-31G(d,p)
 There are 46 shells and 123 basis functions

 Total QAlloc Memory Limit   2000 MB
 Mega-Array Size       188 MB
 MEM_STATIC part       192 MB
A total of 1 constraints
  
            1
    1   1.0100000
    2   2.0100000
    3   5.0100000
    4   5.2000000
    5   5.2010000
    6   0.1000000
    7   0.0000000
    8   0.0000000
    9   0.0000000
   10   0.0000000

                       Distance Matrix (Angstroms)
             S (  1)   S (  2)   C (  3)   C (  4)   C (  5)   H (  6)
   S (  2)  8.474122
   C (  3)  2.778175  5.938679
   C (  4)  1.851881  7.455664  1.545027
   C (  5)  4.144801  5.300000  1.492132  2.515271
   H (  6)  2.913925  5.897618  1.096852  2.160421  2.138645
   H (  7)  2.915508  5.697852  1.097360  2.158404  2.138161  1.765562
   H (  8)  2.441031  7.898396  2.178187  1.092788  2.769420  2.509279
   H (  9)  2.440198  7.747131  2.177485  1.092829  2.771368  3.068651
   H ( 10)  4.757126  5.384569  2.251697  3.116566  1.085073  2.498708
   H ( 11)  4.728141  5.242737  2.249050  3.069944  1.085256  3.097655
   H ( 12)  1.347565  9.638206  3.766900  2.416029  4.928932  4.028609
   H ( 13)  8.147868  1.351847  5.679009  7.210036  5.151197  5.401651
             H (  7)   H (  8)   H (  9)   H ( 10)   H ( 11)   H ( 12)
   H (  8)  3.067964
   H (  9)  2.502151  1.776166
   H ( 10)  3.085949  2.998564  3.508610
   H ( 11)  2.515575  3.448075  2.936533  1.856277
   H ( 12)  4.022115  2.664307  2.654862  5.470119  5.416565
   H ( 13)  5.595674  7.541428  7.679705  5.063780  5.366621  9.342166

 
 A cutoff of  1.0D-14 yielded    883 shell pairs
 There are      6253 function pairs
 
 -------------------------------------------------------
 OpenMP Integral Computing Module                       
 Release: version 1.0, May 2013, Q-Chem Inc. Pittsburgh 
 -------------------------------------------------------
 Integral Job Info:
 Integral job number is                      11
 Integral operator is                         1
 short-range coefficients                     0
 long-range coefficients              100000000
 Omega coefficients                           0
 if combine SR and LR in K                    0
 Integral screening is                        0
 Integral computing path is                   2
 max size of driver memory is            800000
 size of driver memory is                593474
 size of scratch memory is             15267112
 max col of scratch BK array               1296
 max len of scratch array in speh3          155
 max len of scratch index in speh4           18
 max int batch size is                      520
 min int batch size is                       52
 fixed nKL is                                52
 max L of basis functions is                  2
 order of int derivative is                   0
 number of shells is                         46
 number of basis is                         123
 number of cartesian basis is               123
 number of contracted shell pairs           883
 number of primitive shell pairs           3259
 maxK2 (contraction) of shell pair           36
 max number of K2 of shell pair               1
 max number of CS2 of shell pair             76
 max number of PS2 of shell pair            270
 mem total for path MDJ                  514432
 -------------------------------------------------------
 Smallest overlap matrix eigenvalue = 5.82E-03

 Scale SEOQF with 1.000000e-02/1.000000e-01/1.000000e+00

 Standard Electronic Orientation quadrupole field applied
 Nucleus-field energy     =     0.0000000009 hartrees
 Guess from superposition of atomic densities
 Warning:  Energy on first SCF cycle will be non-variational
 SAD guess density has 58.000000 electrons

 -----------------------------------------------------------------------
  General SCF calculation program by
  Eric Jon Sundstrom, Paul Horn, Yuezhi Mao, Dmitri Zuev, Alec White,
  David Stuck, Shaama M.S., Shane Yost, Joonho Lee, David Small,
  Daniel Levine, Susi Lehtola, Hugh Burton, Evgeny Epifanovsky
 -----------------------------------------------------------------------
 Exchange:     0.2000 Hartree-Fock + 0.0800 Slater + 0.7200 B88
 Correlation:  0.1900 VWN1RPA + 0.8100 LYP
 Using SG-1 standard quadrature grid
 using 12 threads for integral computing
 -------------------------------------------------------
 OpenMP Integral computing Module                
 Release: version 1.0, May 2013, Q-Chem Inc. Pittsburgh 
 -------------------------------------------------------
 -------------------------------------------------------
 OpenMP BLAS3 based DFT computing Module                
 Release: version 1.0, May 2013, Q-Chem Inc. Pittsburgh 
 -------------------------------------------------------
 A unrestricted SCF calculation will be
 performed using DIIS
 SCF converges when DIIS error is below 1.0e-06
 Alpha HF Exchange    Energy =  -6.82166382532651
 Beta HF Exchange     Energy =  -6.82166382532651
 DFT Correlation      Energy =  -2.69153109477343
 DFT Exchange         Energy = -53.80824010788009
 One-Electron (alpha) Energy = -838.98798255529232
 One-Electron (beta)  Energy = -838.98798255529232
 Total Coulomb        Energy = 619.31620096192910
 ---------------------------------------
  Cycle       Energy         DIIS error
 ---------------------------------------
    1    -915.7787668352      2.60e-02  
 Alpha HF Exchange    Energy =  -6.95239618940894
 Beta HF Exchange     Energy =  -6.76839316522346
 DFT Correlation      Energy =  -2.70954223515504
 DFT Exchange         Energy = -54.42503570445560
 One-Electron (alpha) Energy = -854.92386266003450
 One-Electron (beta)  Energy = -828.23495344090759
 Total Coulomb        Energy = 625.93999328412531
    2    -915.0500939443      3.84e-03  
 Alpha HF Exchange    Energy =  -6.92947561838069
 Beta HF Exchange     Energy =  -6.76266873742445
 DFT Correlation      Energy =  -2.70103329571927
 DFT Exchange         Energy = -54.30067912907914
 One-Electron (alpha) Energy = -854.44551027844159
 One-Electron (beta)  Energy = -830.68370257625702
 Total Coulomb        Energy = 634.24269590167808
    3    -908.5562775669      1.30e-02  
 Alpha HF Exchange    Energy =  -6.90695915906732
 Beta HF Exchange     Energy =  -6.72895197160597
 DFT Correlation      Energy =  -2.68758932228754
 DFT Exchange         Energy = -54.06038312770546
 One-Electron (alpha) Energy = -852.07107003108922
 One-Electron (beta)  Energy = -827.58470279739333
 Total Coulomb        Energy = 621.67735783044748
    4    -915.3382024119      2.79e-03  
 Alpha HF Exchange    Energy =  -6.92518912818918
 Beta HF Exchange     Energy =  -6.74519599759050
 DFT Correlation      Energy =  -2.69611328463887
 DFT Exchange         Energy = -54.20601162033022
 One-Electron (alpha) Energy = -853.26152720141386
 One-Electron (beta)  Energy = -828.67932140365690
 Total Coulomb        Energy = 624.09482482834039
    5    -915.3944376407      1.16e-03  
 Alpha HF Exchange    Energy =  -6.92527422339436
 Beta HF Exchange     Energy =  -6.74435839521378
 DFT Correlation      Energy =  -2.69519509729889
 DFT Exchange         Energy = -54.20061119495497
 One-Electron (alpha) Energy = -853.17325220559030
 One-Electron (beta)  Energy = -828.55219524314157
 Total Coulomb        Energy = 623.86324239302314
    6    -915.4035477998      6.40e-04  
 Alpha HF Exchange    Energy =  -6.92537016267893
 Beta HF Exchange     Energy =  -6.74423063160959
 DFT Correlation      Energy =  -2.69506685828555
 DFT Exchange         Energy = -54.20002854310520
 One-Electron (alpha) Energy = -853.18393572711238
 One-Electron (beta)  Energy = -828.54244640741433
 Total Coulomb        Energy = 623.86035929761397
    7    -915.4066228658      4.38e-04  
 Alpha HF Exchange    Energy =  -6.92713819929399
 Beta HF Exchange     Energy =  -6.74494017531084
 DFT Correlation      Energy =  -2.69539998769344
 DFT Exchange         Energy = -54.20957922507924
 One-Electron (alpha) Energy = -853.24076105962615
 One-Electron (beta)  Energy = -828.56352067385524
 Total Coulomb        Energy = 623.94869294306818
    8    -915.4085502110      1.74e-04  
 Alpha HF Exchange    Energy =  -6.92762589469549
 Beta HF Exchange     Energy =  -6.74508106304577
 DFT Correlation      Energy =  -2.69543739107505
 DFT Exchange         Energy = -54.21193484902792
 One-Electron (alpha) Energy = -853.25772308168644
 One-Electron (beta)  Energy = -828.56489144356249
 Total Coulomb        Energy = 623.96970173533157
    9    -915.4088958210      4.06e-05  
 Alpha HF Exchange    Energy =  -6.92767725986298
 Beta HF Exchange     Energy =  -6.74506196017977
 DFT Correlation      Energy =  -2.69545012800659
 DFT Exchange         Energy = -54.21207621073604
 One-Electron (alpha) Energy = -853.25924006063894
 One-Electron (beta)  Energy = -828.56440058078579
 Total Coulomb        Energy = 623.97089729826871
   10    -915.4089127352      1.47e-05  
 Alpha HF Exchange    Energy =  -6.92771440033661
 Beta HF Exchange     Energy =  -6.74504499756012
 DFT Correlation      Energy =  -2.69545588997643
 DFT Exchange         Energy = -54.21215848271501
 One-Electron (alpha) Energy = -853.25911132329247
 One-Electron (beta)  Energy = -828.56289499159288
 Total Coulomb        Energy = 623.96936865196574
   11    -915.4089152667      3.32e-06  
 Alpha HF Exchange    Energy =  -6.92772584138730
 Beta HF Exchange     Energy =  -6.74505743399139
 DFT Correlation      Energy =  -2.69546185575176
 DFT Exchange         Energy = -54.21225670273343
 One-Electron (alpha) Energy = -853.26029877548967
 One-Electron (beta)  Energy = -828.56408529365160
 Total Coulomb        Energy = 623.97187436404306
   12    -915.4089153722      8.09e-07  Convergence criterion met
 ---------------------------------------
 SCF time:   CPU 33.09s  wall 3.00s 
<S^2> =          2.006208404
 Alpha HF Exchange    Energy =  -6.92772584138730
 Beta HF Exchange     Energy =  -6.74505743399139
 DFT Correlation      Energy =  -2.69546185575176
 DFT Exchange         Energy = -54.21225670273343
 One-Electron (alpha) Energy = -853.26029877548967
 One-Electron (beta)  Energy = -828.56408529365160
 Total Coulomb        Energy = 623.97187436404306
 Nuclear repulsion Energy = 213.02409616676906
 SCF   energy in the final basis set =     -915.4089153722
 Total energy in the final basis set =     -915.4089153722
 
 --------------------------------------------------------------
 
                    Orbital Energies (a.u.)
 --------------------------------------------------------------
 
 Alpha MOs
 -- Occupied --
-88.911 -88.872 -10.224 -10.200 -10.200  -7.973  -7.935  -5.944
 -5.934  -5.925  -5.900  -5.896  -5.889  -0.812  -0.740  -0.739
 -0.647  -0.589  -0.482  -0.447  -0.418  -0.413  -0.402  -0.373
 -0.351  -0.327  -0.321  -0.273  -0.236  -0.213
 -- Virtual --
  0.029   0.031   0.073   0.106   0.129   0.138   0.149   0.161
  0.202   0.215   0.262   0.271   0.325   0.331   0.356   0.359
  0.374   0.389   0.390   0.495   0.522   0.526   0.561   0.579
  0.604   0.630   0.671   0.688   0.694   0.726   0.736   0.740
  0.742   0.746   0.769   0.835   0.846   0.861   0.873   0.882
  0.907   0.915   0.948   1.027   1.084   1.144   1.163   1.231
  1.324   1.428   1.511   1.518   1.673   1.683   1.815   1.863
  1.938   1.968   1.989   2.056   2.065   2.066   2.076   2.098
  2.112   2.205   2.212   2.239   2.339   2.341   2.424   2.481
  2.513   2.594   2.602   2.685   2.698   2.753   2.773   2.783
  2.846   2.881   3.203   3.270   3.365   3.377   3.460   3.544
  3.918   3.984   4.222   4.390   4.593
 
 Beta MOs
 -- Occupied --
-88.906 -88.872 -10.222 -10.201 -10.187  -7.967  -7.935  -5.931
 -5.926  -5.922  -5.900  -5.896  -5.889  -0.806  -0.729  -0.699
 -0.631  -0.579  -0.479  -0.444  -0.413  -0.400  -0.393  -0.366
 -0.348  -0.325  -0.259  -0.236
 -- Virtual --
 -0.178  -0.058   0.033   0.042   0.076   0.110   0.131   0.142
  0.157   0.162   0.206   0.219   0.271   0.285   0.332   0.357
  0.365   0.370   0.375   0.391   0.392   0.498   0.524   0.542
  0.581   0.601   0.619   0.639   0.687   0.709   0.734   0.741
  0.742   0.748   0.772   0.791   0.796   0.839   0.849   0.863
  0.874   0.888   0.911   0.918   0.957   1.036   1.094   1.145
  1.166   1.239   1.335   1.463   1.518   1.525   1.673   1.706
  1.824   1.868   1.942   1.984   2.033   2.060   2.062   2.067
  2.079   2.098   2.113   2.210   2.214   2.240   2.341   2.348
  2.441   2.490   2.527   2.602   2.611   2.692   2.699   2.754
  2.775   2.785   2.849   2.885   3.206   3.274   3.367   3.381
  3.466   3.547   3.936   3.985   4.238   4.409   4.595
 --------------------------------------------------------------
 
          Ground-State Mulliken Net Atomic Charges

     Atom                 Charge (a.u.)    Spin (a.u.)
  --------------------------------------------------------
      1 S                    -0.055728       0.021292
      2 S                    -0.073990       1.027524
      3 C                    -0.200364      -0.074529
      4 C                    -0.313992       0.046474
      5 C                    -0.226841       1.076399
      6 H                     0.121394       0.011043
      7 H                     0.125340       0.015334
      8 H                     0.136635      -0.000382
      9 H                     0.136933      -0.000679
     10 H                     0.109280      -0.047578
     11 H                     0.110938      -0.047462
     12 H                     0.056515       0.000000
     13 H                     0.073880      -0.027434
  --------------------------------------------------------
  Sum of atomic charges =    -0.000000
  Sum of spin   charges =     2.000000

 -----------------------------------------------------------------
                    Cartesian Multipole Moments
 -----------------------------------------------------------------
    Charge (ESU x 10^10)
                 0.0000
    Dipole Moment (Debye)
         X      -0.1809      Y      -1.5045      Z       0.8236
       Tot       1.7247
    Quadrupole Moments (Debye-Ang)
        XX     -51.8883     XY      -5.7910     YY     -47.1995
        XZ      -4.7984     YZ       2.8374     ZZ     -46.1972
    Octopole Moments (Debye-Ang^2)
       XXX      95.6091    XXY     -24.2213    XYY      14.5147
       YYY     -55.0063    XXZ      13.5762    XYZ     -10.9478
       YYZ       6.3298    XZZ       5.4454    YZZ     -17.5052
       ZZZ       0.1431
    Hexadecapole Moments (Debye-Ang^3)
      XXXX   -3385.6390   XXXY     240.9107   XXYY    -589.2947
      XYYY     350.3469   YYYY    -452.3554   XXXZ     -61.0680
      XXYZ      55.4513   XYYZ     -21.1969   YYYZ      11.2080
      XXZZ    -541.7359   XYZZ      99.8865   YYZZ     -80.0989
      XZZZ      19.0832   YZZZ       0.0735   ZZZZ     -83.2104
 -----------------------------------------------------------------
 Calculating analytic gradient of the SCF energy
 Gradient of SCF Energy
            1           2           3           4           5           6
    1  -0.0000135   0.0000273   0.0000470   0.0000259  -0.0000822  -0.0000160
    2   0.0000012   0.0000254   0.0000412   0.0000018   0.0000678   0.0000143
    3   0.0000010   0.0000014   0.0000712  -0.0000045   0.0000118  -0.0000144
            7           8           9          10          11          12
    1  -0.0000304  -0.0000033  -0.0000018  -0.0000095   0.0000907   0.0000031
    2  -0.0000551  -0.0000052   0.0000182  -0.0000179  -0.0000738   0.0000067
    3  -0.0000493  -0.0000055  -0.0000048  -0.0000157  -0.0000325   0.0000192
           13
    1  -0.0000373
    2  -0.0000246
    3   0.0000222
 Max gradient component =       9.066E-05
 RMS gradient           =       3.526E-05
 Gradient time:  CPU 9.35 s  wall 0.82 s
 Geometry Optimization Parameters
   NAtoms,    NIC,     NZ,  NCons,   NDum,   NFix, NCnnct, MaxDiis
       13     184       0       1       0       0       0       0


** CONSTRAINED OPTIMIZATION IN DELOCALIZED INTERNAL COORDINATES **
   Searching for a Minimum

   Optimization Cycle:   1

                       Coordinates (Angstroms)
     ATOM                X               Y               Z
      1  S         3.1534190000    0.4365260000   -0.0581760000
      2  S        -5.2060130000    1.8248320000   -0.0011260000
      3  C         0.4241790000   -0.0623180000    0.0855530000
      4  C         1.7728020000   -0.7975030000   -0.0812630000
      5  C        -0.7284640000   -1.0098440000    0.0773820000
      6  H         0.4491860000    0.5029720000    1.0251840000
      7  H         0.3253650000    0.6670390000   -0.7283720000
      8  H         1.9149070000   -1.5126220000    0.7327370000
      9  H         1.7904470000   -1.3387050000   -1.0305070000
     10  H        -1.0721120000   -1.4789930000    0.9934540000
     11  H        -1.1408450000   -1.3729140000   -0.8585150000
     12  H         4.1583720000   -0.4448210000   -0.2291360000
     13  H        -4.7330480000    2.0099510000    1.2516810000
   Point Group: c1    Number of degrees of freedom:    33


   Energy is   -915.408915372

              Constraints and their Current Values
                                        Value     Constraint
   Distance(Angs):        2   5             5.300000     5.200000

 Attempting to Generate Delocalized Internal Coordinates

   Using Lagrange Multiplier Algorithm


 34 Hessian modes will be used to form the next step
  Hessian Eigenvalues:
    -0.998586    0.024804    0.039557    0.045000    0.045000    0.045928
     0.047821    0.051503    0.057212    0.059678    0.066012    0.066265
     0.073491    0.079360    0.085131    0.090253    0.110296    0.123534
     0.142400    0.158268    0.160000    0.220750    0.224217    0.233179
     0.253326    0.258261    0.280782    0.287719    0.307167    0.319457
     0.339757    0.344878    0.344925    1.001416

 Minimum Search - Taking P-RFO Step
 Searching for Lamda that Maximizes Along the Constraint modes Only
 Value Taken    Lamda =   0.01760075
 Searching for Lamda that Minimizes Along All other modes
 Value Taken    Lamda =  -0.01749410
 Step Taken.  Stepsize is  0.185718

                             Maximum     Tolerance    Cnvgd?
         Gradient            0.188972       0.000300      NO
         Displacement        0.185713       0.001200      NO
         Energy change     *********       0.000001      NO


 New Cartesian Coordinates Obtained by Inverse Iteration

 Displacement from previous Coordinates is:  0.186119
 ----------------------------------------------------------------
             Standard Nuclear Orientation (Angstroms)
    I     Atom           X                Y                Z
 ----------------------------------------------------------------
    1      S       3.1447061627     0.4374469258    -0.0587313342
    2      S      -5.1304970404     1.7907391309    -0.0054372159
    3      C       0.4136865929    -0.0507715042     0.0886082508
    4      C       1.7592005487    -0.7911570318    -0.0802196567
    5      C      -0.7446346473    -1.0048910373     0.0758079197
    6      H       0.4548938340     0.5126389015     1.0282637145
    7      H       0.3140875256     0.6801310237    -0.7238276148
    8      H       1.8996388427    -1.5070457298     0.7333940020
    9      H       1.7734762680    -1.3321847625    -1.0296224386
   10      H      -1.0735604847    -1.4929676943     0.9991143630
   11      H      -1.1361084984    -1.3776908302    -0.8640576019
   12      H       4.1459182009    -0.4477915700    -0.2315163505
   13      H      -4.7126123048     2.0071441785     1.2471199628
 ----------------------------------------------------------------
 Nuclear Repulsion Energy =   213.6858473130 hartrees
 There are       30 alpha and       28 beta electrons

                       Distance Matrix (Angstroms)
             S (  1)   S (  2)   C (  3)   C (  4)   C (  5)   H (  6)
   S (  2)  8.385298
   C (  3)  2.778225  5.842771
   C (  4)  1.851906  7.357969  1.545018
   C (  5)  4.150351  5.201724  1.500738  2.517780
   H (  6)  2.902120  5.822256  1.096395  2.151705  2.156140
   H (  7)  2.917816  5.602949  1.097356  2.160387  2.144670  1.765702
   H (  8)  2.441046  7.800261  2.178196  1.092789  2.770697  2.500672
   H (  9)  2.440184  7.646336  2.177496  1.092831  2.769473  3.062177
   H ( 10)  4.758079  5.315128  2.262931  3.111597  1.094946  2.521801
   H ( 11)  4.718967  5.170234  2.251700  3.056344  1.084241  3.112156
   H ( 12)  1.347564  9.545366  3.766916  2.416032  4.931766  4.016607
   H ( 13)  8.118291  1.338043  5.644121  7.174725  5.117536  5.383731
             H (  7)   H (  8)   H (  9)   H ( 10)   H ( 11)   H ( 12)
   H (  8)  3.069399
   H (  9)  2.504544  1.776153
   H ( 10)  3.101041  2.985083  3.499606
   H ( 11)  2.521381  3.432834  2.914647  1.867782
   H ( 12)  4.024613  2.664365  2.654733  5.463497  5.400428
   H ( 13)  5.559974  7.505685  7.642252  5.055194  5.357757  9.310566

 
 Applying Cartesian multipole field
    Component          Value
    ---------          -----
     (2,0,0)        1.00000E-12
     (0,2,0)        2.00000E-11
     (0,0,2)       -3.00000E-10
 Nucleus-field energy     =     0.0000000007 hartrees
 Requested basis set is 6-31G(d,p)
 There are 46 shells and 123 basis functions
 A cutoff of  1.0D-14 yielded    887 shell pairs
 There are      6283 function pairs
 Smallest overlap matrix eigenvalue = 5.88E-03
 Guess from superposition of atomic densities
 Warning:  Energy on first SCF cycle will be non-variational
 SAD guess density has 58.000000 electrons

 -----------------------------------------------------------------------
  General SCF calculation program by
  Eric Jon Sundstrom, Paul Horn, Yuezhi Mao, Dmitri Zuev, Alec White,
  David Stuck, Shaama M.S., Shane Yost, Joonho Lee, David Small,
  Daniel Levine, Susi Lehtola, Hugh Burton, Evgeny Epifanovsky
 -----------------------------------------------------------------------
 Exchange:     0.2000 Hartree-Fock + 0.0800 Slater + 0.7200 B88
 Correlation:  0.1900 VWN1RPA + 0.8100 LYP
 Using SG-1 standard quadrature grid
 using 12 threads for integral computing
 -------------------------------------------------------
 OpenMP Integral computing Module                
 Release: version 1.0, May 2013, Q-Chem Inc. Pittsburgh 
 -------------------------------------------------------
 -------------------------------------------------------
 OpenMP BLAS3 based DFT computing Module                
 Release: version 1.0, May 2013, Q-Chem Inc. Pittsburgh 
 -------------------------------------------------------
 A unrestricted SCF calculation will be
 performed using DIIS
 SCF converges when DIIS error is below 1.0e-06
 Alpha HF Exchange    Energy =  -6.82094409861309
 Beta HF Exchange     Energy =  -6.82094409861309
 DFT Correlation      Energy =  -2.69141413774519
 DFT Exchange         Energy = -53.80696772743794
 One-Electron (alpha) Energy = -839.65181819067197
 One-Electron (beta)  Energy = -839.65181819067197
 Total Coulomb        Energy = 619.98488835579894
 ---------------------------------------
  Cycle       Energy         DIIS error
 ---------------------------------------
    1    -915.7731707743      2.60e-02  
 Alpha HF Exchange    Energy =  -6.95201608963090
 Beta HF Exchange     Energy =  -6.76817706441336
 DFT Correlation      Energy =  -2.70930910219627
 DFT Exchange         Energy = -54.42264236258180
 One-Electron (alpha) Energy = -855.61512392153520
 One-Electron (beta)  Energy = -828.90528185900519
 Total Coulomb        Energy = 626.63546596769424
    2    -915.0512371180      3.83e-03  
 Alpha HF Exchange    Energy =  -6.92932200273833
 Beta HF Exchange     Energy =  -6.76229895841913
 DFT Correlation      Energy =  -2.70076880743375
 DFT Exchange         Energy = -54.29877513864938
 One-Electron (alpha) Energy = -855.07921287582656
 One-Electron (beta)  Energy = -831.22968075825315
 Total Coulomb        Energy = 634.74822489453902
    3    -908.5659863331      1.30e-02  
 Alpha HF Exchange    Energy =  -6.90689905289726
 Beta HF Exchange     Energy =  -6.72886776381520
 DFT Correlation      Energy =  -2.68744545971540
 DFT Exchange         Energy = -54.05971332424690
 One-Electron (alpha) Energy = -852.77760343680711
 One-Electron (beta)  Energy = -828.22451128011858
 Total Coulomb        Energy = 622.36109956366170
    4    -915.3380934402      2.79e-03  
 Alpha HF Exchange    Energy =  -6.92495434031861
 Beta HF Exchange     Energy =  -6.74500248435112
 DFT Correlation      Energy =  -2.69590176708406
 DFT Exchange         Energy = -54.20424184672245
 One-Electron (alpha) Energy = -853.95701451480693
 One-Electron (beta)  Energy = -829.31094845337270
 Total Coulomb        Energy = 624.75808535839883
    5    -915.3941307346      1.16e-03  
 Alpha HF Exchange    Energy =  -6.92505370078287
 Beta HF Exchange     Energy =  -6.74417232891423
 DFT Correlation      Energy =  -2.69498705434825
 DFT Exchange         Energy = -54.19892480378557
 One-Electron (alpha) Energy = -853.86896388803802
 One-Electron (beta)  Energy = -829.18439070978343
 Total Coulomb        Energy = 624.52740965158875
    6    -915.4032355204      6.44e-04  
 Alpha HF Exchange    Energy =  -6.92516267720199
 Beta HF Exchange     Energy =  -6.74405383416539
 DFT Correlation      Energy =  -2.69486111465304
 DFT Exchange         Energy = -54.19841160224765
 One-Electron (alpha) Energy = -853.88057260417463
 One-Electron (beta)  Energy = -829.17570013945203
 Total Coulomb        Energy = 624.52656253832811
    7    -915.4063521199      4.40e-04  
 Alpha HF Exchange    Energy =  -6.92693978331827
 Beta HF Exchange     Energy =  -6.74476867646346
 DFT Correlation      Energy =  -2.69519943043160
 DFT Exchange         Energy = -54.20802303106708
 One-Electron (alpha) Energy = -853.93727867212090
 One-Electron (beta)  Energy = -829.19708698384147
 Total Coulomb        Energy = 624.61515198365339
    8    -915.4082972799      1.74e-04  
 Alpha HF Exchange    Energy =  -6.92743065062136
 Beta HF Exchange     Energy =  -6.74491305425078
 DFT Correlation      Energy =  -2.69523709097969
 DFT Exchange         Energy = -54.21040257168996
 One-Electron (alpha) Energy = -853.95433626157512
 One-Electron (beta)  Energy = -829.19862075600270
 Total Coulomb        Energy = 624.63644790807155
    9    -915.4086451633      4.06e-05  
 Alpha HF Exchange    Energy =  -6.92748570842947
 Beta HF Exchange     Energy =  -6.74489594332584
 DFT Correlation      Energy =  -2.69525179155339
 DFT Exchange         Energy = -54.21056654424041
 One-Electron (alpha) Energy = -853.95617644621666
 One-Electron (beta)  Energy = -829.19840520626371
 Total Coulomb        Energy = 624.63827216302332
   10    -915.4086621633      1.47e-05  
 Alpha HF Exchange    Energy =  -6.92752164744644
 Beta HF Exchange     Energy =  -6.74487793395474
 DFT Correlation      Energy =  -2.69525714562720
 DFT Exchange         Energy = -54.21063975172729
 One-Electron (alpha) Energy = -853.95594160283270
 One-Electron (beta)  Energy = -829.19676938717828
 Total Coulomb        Energy = 624.63649546255624
   11    -915.4086646925      3.33e-06  
 Alpha HF Exchange    Energy =  -6.92753327987052
 Beta HF Exchange     Energy =  -6.74489069727150
 DFT Correlation      Energy =  -2.69526325797924
 DFT Exchange         Energy = -54.21074014757473
 One-Electron (alpha) Energy = -853.95716944313949
 One-Electron (beta)  Energy = -829.19798700775732
 Total Coulomb        Energy = 624.63907172315760
   12    -915.4086647967      8.08e-07  Convergence criterion met
 ---------------------------------------
 SCF time:   CPU 32.64s  wall 3.00s 
<S^2> =          2.006220179
 Alpha HF Exchange    Energy =  -6.92753327987052
 Beta HF Exchange     Energy =  -6.74489069727150
 DFT Correlation      Energy =  -2.69526325797924
 DFT Exchange         Energy = -54.21074014757473
 One-Electron (alpha) Energy = -853.95716944313949
 One-Electron (beta)  Energy = -829.19798700775732
 Total Coulomb        Energy = 624.63907172315760
 Nuclear repulsion Energy = 213.68584731369819
 SCF   energy in the final basis set =     -915.4086647967
 Total energy in the final basis set =     -915.4086647967
 
 --------------------------------------------------------------
 
                    Orbital Energies (a.u.)
 --------------------------------------------------------------
 
 Alpha MOs
 -- Occupied --
-88.910 -88.872 -10.223 -10.202 -10.201  -7.972  -7.935  -5.943
 -5.933  -5.924  -5.900  -5.896  -5.889  -0.812  -0.740  -0.739
 -0.646  -0.589  -0.482  -0.447  -0.418  -0.414  -0.402  -0.372
 -0.351  -0.327  -0.321  -0.273  -0.236  -0.214
 -- Virtual --
  0.029   0.035   0.073   0.105   0.129   0.138   0.149   0.161
  0.201   0.213   0.259   0.269   0.325   0.331   0.356   0.359
  0.374   0.389   0.391   0.494   0.522   0.526   0.561   0.578
  0.604   0.627   0.671   0.687   0.695   0.726   0.736   0.740
  0.742   0.746   0.767   0.836   0.846   0.862   0.872   0.882
  0.906   0.916   0.948   1.027   1.098   1.144   1.160   1.231
  1.324   1.424   1.515   1.516   1.675   1.683   1.811   1.859
  1.932   1.968   1.984   2.061   2.066   2.070   2.076   2.098
  2.110   2.204   2.212   2.239   2.336   2.340   2.418   2.478
  2.505   2.595   2.603   2.683   2.721   2.753   2.770   2.780
  2.843   2.870   3.202   3.267   3.364   3.373   3.451   3.540
  3.919   3.984   4.220   4.389   4.592
 
 Beta MOs
 -- Occupied --
-88.905 -88.872 -10.222 -10.202 -10.188  -7.967  -7.935  -5.930
 -5.926  -5.921  -5.900  -5.896  -5.889  -0.806  -0.728  -0.701
 -0.630  -0.579  -0.478  -0.443  -0.412  -0.400  -0.392  -0.365
 -0.348  -0.325  -0.259  -0.236
 -- Virtual --
 -0.178  -0.058   0.033   0.046   0.076   0.110   0.131   0.142
  0.156   0.163   0.206   0.217   0.268   0.282   0.332   0.357
  0.365   0.370   0.375   0.391   0.392   0.498   0.524   0.542
  0.580   0.601   0.619   0.636   0.687   0.711   0.733   0.741
  0.741   0.748   0.771   0.791   0.796   0.839   0.849   0.864
  0.874   0.888   0.910   0.919   0.957   1.036   1.108   1.145
  1.163   1.239   1.335   1.455   1.521   1.528   1.675   1.707
  1.821   1.864   1.936   1.988   2.023   2.065   2.067   2.067
  2.079   2.098   2.110   2.209   2.214   2.240   2.338   2.348
  2.435   2.486   2.519   2.602   2.612   2.690   2.723   2.754
  2.771   2.782   2.846   2.873   3.204   3.270   3.366   3.377
  3.457   3.542   3.937   3.985   4.236   4.408   4.594
 --------------------------------------------------------------
 
          Ground-State Mulliken Net Atomic Charges

     Atom                 Charge (a.u.)    Spin (a.u.)
  --------------------------------------------------------
      1 S                    -0.055818       0.021476
      2 S                    -0.073963       1.027052
      3 C                    -0.200901      -0.073992
      4 C                    -0.314250       0.045340
      5 C                    -0.226209       1.077720
      6 H                     0.121654       0.010521
      7 H                     0.125545       0.014591
      8 H                     0.136611      -0.000399
      9 H                     0.136640      -0.000706
     10 H                     0.108493      -0.047592
     11 H                     0.111770      -0.047132
     12 H                     0.056622       0.000044
     13 H                     0.073807      -0.026924
  --------------------------------------------------------
  Sum of atomic charges =     0.000000
  Sum of spin   charges =     2.000000

 -----------------------------------------------------------------
                    Cartesian Multipole Moments
 -----------------------------------------------------------------
    Charge (ESU x 10^10)
                 0.0000
    Dipole Moment (Debye)
         X      -0.1981      Y      -1.4925      Z       0.8324
       Tot       1.7204
    Quadrupole Moments (Debye-Ang)
        XX     -51.5350     XY      -5.9680     YY     -47.0937
        XZ      -4.8469     YZ       2.8511     ZZ     -46.1772
    Octopole Moments (Debye-Ang^2)
       XXX      89.6328    XXY     -22.4747    XYY      13.4587
       YYY     -54.0079    XXZ      14.0399    XYZ     -10.9293
       YYZ       6.3314    XZZ       4.7796    YZZ     -17.2126
       ZZZ       0.2920
    Hexadecapole Moments (Debye-Ang^3)
      XXXX   -3287.4344   XXXY     219.9559   XXYY    -574.4550
      XYYY     336.5579   YYYY    -441.7156   XXXZ     -65.1908
      XXYZ      55.3767   XYYZ     -21.0615   YYYZ      11.2835
      XXZZ    -530.3744   XYZZ      95.6764   YYZZ     -78.4015
      XZZZ      18.0364   YZZZ       0.4801   ZZZZ     -83.1429
 -----------------------------------------------------------------
 Calculating analytic gradient of the SCF energy
 Gradient of SCF Energy
            1           2           3           4           5           6
    1  -0.0000257   0.0023234   0.0017653   0.0002266  -0.0029737   0.0018912
    2  -0.0000061   0.0011917   0.0029752   0.0001890  -0.0009589   0.0001680
    3   0.0000187   0.0068150   0.0005248   0.0008135  -0.0070035  -0.0003385
            7           8           9          10          11          12
    1  -0.0000525   0.0000281  -0.0001910  -0.0014460   0.0008076  -0.0000056
    2   0.0001012  -0.0000480   0.0000836  -0.0027602   0.0002387   0.0000033
    3  -0.0000933  -0.0000278   0.0000096   0.0058295   0.0002371   0.0000014
           13
    1  -0.0023477
    2  -0.0011775
    3  -0.0067863
 Max gradient component =       7.003E-03
 RMS gradient           =       2.409E-03
 Gradient time:  CPU 9.44 s  wall 0.84 s
 Geometry Optimization Parameters
   NAtoms,    NIC,     NZ,  NCons,   NDum,   NFix, NCnnct, MaxDiis
       13     184       0       1       0       0       0       0

 Cartesian Hessian Update
 Hessian Updated using BFGS Update


** CONSTRAINED OPTIMIZATION IN DELOCALIZED INTERNAL COORDINATES **
   Searching for a Minimum

   Optimization Cycle:   2

                       Coordinates (Angstroms)
     ATOM                X               Y               Z
      1  S         3.1447061627    0.4374469258   -0.0587313342
      2  S        -5.1304970404    1.7907391309   -0.0054372159
      3  C         0.4136865929   -0.0507715042    0.0886082508
      4  C         1.7592005487   -0.7911570318   -0.0802196567
      5  C        -0.7446346473   -1.0048910373    0.0758079197
      6  H         0.4548938340    0.5126389015    1.0282637145
      7  H         0.3140875256    0.6801310237   -0.7238276148
      8  H         1.8996388427   -1.5070457298    0.7333940020
      9  H         1.7734762680   -1.3321847625   -1.0296224386
     10  H        -1.0735604847   -1.4929676943    0.9991143630
     11  H        -1.1361084984   -1.3776908302   -0.8640576019
     12  H         4.1459182009   -0.4477915700   -0.2315163505
     13  H        -4.7126123048    2.0071441785    1.2471199628
   Point Group: c1    Number of degrees of freedom:    33


   Energy is   -915.408664797

              Constraints and their Current Values
                                        Value     Constraint
   Distance(Angs):        2   5             5.201724     5.200000
 Hessian Updated using BFGS Update

   Using Lagrange Multiplier Algorithm


 34 Hessian modes will be used to form the next step
  Hessian Eigenvalues:
    -0.993901    0.025297    0.039551    0.044996    0.045000    0.045924
     0.047934    0.051557    0.057301    0.059675    0.066013    0.066270
     0.073492    0.079374    0.085133    0.090790    0.112796    0.123552
     0.142464    0.158260    0.160000    0.220751    0.224216    0.247118
     0.258261    0.280715    0.283562    0.298349    0.307551    0.339742
     0.344875    0.344924    0.458020    1.009686

 Minimum Search - Taking P-RFO Step
 Searching for Lamda that Maximizes Along the Constraint modes Only
 Value Taken    Lamda =   0.00001268
 Searching for Lamda that Minimizes Along All other modes
 Value Taken    Lamda =  -0.00023473
 Step Taken.  Stepsize is  0.028199

                             Maximum     Tolerance    Cnvgd?
         Gradient            0.006440       0.000300      NO
         Displacement        0.018355       0.001200      NO
         Energy change      0.000251       0.000001      NO


 New Cartesian Coordinates Obtained by Inverse Iteration

 Displacement from previous Coordinates is:  0.022965
 ----------------------------------------------------------------
             Standard Nuclear Orientation (Angstroms)
    I     Atom           X                Y                Z
 ----------------------------------------------------------------
    1      S       3.1433337810     0.4372424848    -0.0589742371
    2      S      -5.1285725600     1.7887903233    -0.0103187463
    3      C       0.4124402303    -0.0515443075     0.0899159093
    4      C       1.7580333772    -0.7916718754    -0.0808559285
    5      C      -0.7426370700    -1.0032999555     0.0780215700
    6      H       0.4498471397     0.5113540754     1.0302735454
    7      H       0.3128969529     0.6795503411    -0.7221892790
    8      H       1.8989786474    -1.5080627843     0.7322121643
    9      H       1.7726796188    -1.3321175936    -1.0306323634
   10      H      -1.0702499736    -1.4896349945     0.9969395938
   11      H      -1.1341131139    -1.3765911344    -0.8621497885
   12      H       4.1447123397    -0.4475847070    -0.2329023302
   13      H      -4.7091543695     2.0071701277     1.2495558903
 ----------------------------------------------------------------
 Nuclear Repulsion Energy =   213.7572612108 hartrees
 There are       30 alpha and       28 beta electrons

                       Distance Matrix (Angstroms)
             S (  1)   S (  2)   C (  3)   C (  4)   C (  5)   H (  6)
   S (  2)  8.381735
   C (  3)  2.778284  5.839495
   C (  4)  1.851963  7.354529  1.545177
   C (  5)  4.146649  5.200000  1.496724  2.514633
   H (  6)  2.906342  5.816652  1.096598  2.154956  2.150111
   H (  7)  2.917180  5.598818  1.097234  2.159681  2.141606  1.765834
   H (  8)  2.441026  7.797889  2.178024  1.092777  2.767830  2.503371
   H (  9)  2.439969  7.642538  2.178474  1.092873  2.768403  3.065225
   H ( 10)  4.752063  5.313438  2.255918  3.106120  1.090074  2.513118
   H ( 11)  4.715044  5.167297  2.248112  3.052386  1.084676  3.107174
   H ( 12)  1.347564  9.541736  3.767083  2.416144  4.928659  4.020846
   H ( 13)  8.114092  1.345691  5.640372  7.171334  5.115533  5.375951
             H (  7)   H (  8)   H (  9)   H ( 10)   H ( 11)   H ( 12)
   H (  8)  3.068646
   H (  9)  2.504578  1.776099
   H ( 10)  3.094166  2.981063  3.495441
   H ( 11)  2.518163  3.429128  2.912011  1.863618
   H ( 12)  4.024008  2.664466  2.654300  5.458407  5.396759
   H ( 13)  5.556199  7.502795  7.639651  5.053027  5.356310  9.306689

 
 Applying Cartesian multipole field
    Component          Value
    ---------          -----
     (2,0,0)        1.00000E-12
     (0,2,0)        2.00000E-11
     (0,0,2)       -3.00000E-10
 Nucleus-field energy     =     0.0000000006 hartrees
 Requested basis set is 6-31G(d,p)
 There are 46 shells and 123 basis functions
 A cutoff of  1.0D-14 yielded    888 shell pairs
 There are      6301 function pairs
 Smallest overlap matrix eigenvalue = 5.85E-03
 Guess from superposition of atomic densities
 Warning:  Energy on first SCF cycle will be non-variational
 SAD guess density has 58.000000 electrons

 -----------------------------------------------------------------------
  General SCF calculation program by
  Eric Jon Sundstrom, Paul Horn, Yuezhi Mao, Dmitri Zuev, Alec White,
  David Stuck, Shaama M.S., Shane Yost, Joonho Lee, David Small,
  Daniel Levine, Susi Lehtola, Hugh Burton, Evgeny Epifanovsky
 -----------------------------------------------------------------------
 Exchange:     0.2000 Hartree-Fock + 0.0800 Slater + 0.7200 B88
 Correlation:  0.1900 VWN1RPA + 0.8100 LYP
 Using SG-1 standard quadrature grid
 using 12 threads for integral computing
 -------------------------------------------------------
 OpenMP Integral computing Module                
 Release: version 1.0, May 2013, Q-Chem Inc. Pittsburgh 
 -------------------------------------------------------
 -------------------------------------------------------
 OpenMP BLAS3 based DFT computing Module                
 Release: version 1.0, May 2013, Q-Chem Inc. Pittsburgh 
 -------------------------------------------------------
 A unrestricted SCF calculation will be
 performed using DIIS
 SCF converges when DIIS error is below 1.0e-06
 Alpha HF Exchange    Energy =  -6.82125143304095
 Beta HF Exchange     Energy =  -6.82125143304095
 DFT Correlation      Energy =  -2.69147677581988
 DFT Exchange         Energy = -53.80744519212705
 One-Electron (alpha) Energy = -839.72275060247443
 One-Electron (beta)  Energy = -839.72275060247443
 Total Coulomb        Energy = 620.05430265328437
 ---------------------------------------
  Cycle       Energy         DIIS error
 ---------------------------------------
    1    -915.7753621743      2.60e-02  
 Alpha HF Exchange    Energy =  -6.95217320680830
 Beta HF Exchange     Energy =  -6.76821520899775
 DFT Correlation      Energy =  -2.70940988728025
 DFT Exchange         Energy = -54.42347652046357
 One-Electron (alpha) Energy = -855.69464554867852
 One-Electron (beta)  Energy = -828.97049893444148
 Total Coulomb        Energy = 626.71018673550475
    2    -915.0509713597      3.83e-03  
 Alpha HF Exchange    Energy =  -6.92935851227201
 Beta HF Exchange     Energy =  -6.76244487470977
 DFT Correlation      Energy =  -2.70087749489380
 DFT Exchange         Energy = -54.29942887327010
 One-Electron (alpha) Energy = -855.14783532795354
 One-Electron (beta)  Energy = -831.30695394770498
 Total Coulomb        Energy = 634.82377217002477
    3    -908.5658656493      1.30e-02  
 Alpha HF Exchange    Energy =  -6.90692065291373
 Beta HF Exchange     Energy =  -6.72886122293454
 DFT Correlation      Energy =  -2.68750355684614
 DFT Exchange         Energy = -54.05985589535453
 One-Electron (alpha) Energy = -852.84878618195955
 One-Electron (beta)  Energy = -828.28531224271978
 Total Coulomb        Energy = 622.42179144624095
    4    -915.3381870951      2.79e-03  
 Alpha HF Exchange    Energy =  -6.92505875786482
 Beta HF Exchange     Energy =  -6.74505382621756
 DFT Correlation      Energy =  -2.69598778722344
 DFT Exchange         Energy = -54.20492110714490
 One-Electron (alpha) Energy = -854.03383194258060
 One-Electron (beta)  Energy = -829.37630130000127
 Total Coulomb        Energy = 624.82958036843490
    5    -915.3943131412      1.16e-03  
 Alpha HF Exchange    Energy =  -6.92515057515565
 Beta HF Exchange     Energy =  -6.74421634951836
 DFT Correlation      Energy =  -2.69507175562782
 DFT Exchange         Energy = -54.19954248910006
 One-Electron (alpha) Energy = -853.94569116550861
 One-Electron (beta)  Energy = -829.24951029109639
 Total Coulomb        Energy = 624.59849652238086
    6    -915.4034248922      6.42e-04  
 Alpha HF Exchange    Energy =  -6.92525340426818
 Beta HF Exchange     Energy =  -6.74409277852640
 DFT Correlation      Energy =  -2.69494520838645
 DFT Exchange         Energy = -54.19899176984836
 One-Electron (alpha) Energy = -853.95691147883224
 One-Electron (beta)  Energy = -829.24040606345909
 Total Coulomb        Energy = 624.59681549270556
    7    -915.4065239992      4.39e-04  
 Alpha HF Exchange    Energy =  -6.92702602907716
 Beta HF Exchange     Energy =  -6.74480563124918
 DFT Correlation      Energy =  -2.69528202180547
 DFT Exchange         Energy = -54.20857364809420
 One-Electron (alpha) Energy = -854.01385096211288
 One-Electron (beta)  Energy = -829.26190440493690
 Total Coulomb        Energy = 624.68571755343885
    8    -915.4084639324      1.74e-04  
 Alpha HF Exchange    Energy =  -6.92751448920184
 Beta HF Exchange     Energy =  -6.74494729879893
 DFT Correlation      Energy =  -2.69531998369868
 DFT Exchange         Energy = -54.21093357702265
 One-Electron (alpha) Energy = -854.03090220579611
 One-Electron (beta)  Energy = -829.26342296136647
 Total Coulomb        Energy = 624.70696820215539
    9    -915.4088111023      4.07e-05  
 Alpha HF Exchange    Energy =  -6.92756744971318
 Beta HF Exchange     Energy =  -6.74492915469059
 DFT Correlation      Energy =  -2.69533387713211
 DFT Exchange         Energy = -54.21108528483015
 One-Electron (alpha) Energy = -854.03257986941333
 One-Electron (beta)  Energy = -829.26307889177770
 Total Coulomb        Energy = 624.70848521282983
   10    -915.4088281033      1.47e-05  
 Alpha HF Exchange    Energy =  -6.92760406469547
 Beta HF Exchange     Energy =  -6.74491172958915
 DFT Correlation      Energy =  -2.69533959815391
 DFT Exchange         Energy = -54.21116368853719
 One-Electron (alpha) Energy = -854.03241507802454
 One-Electron (beta)  Energy = -829.26152368036503
 Total Coulomb        Energy = 624.70686598055033
   11    -915.4088306474      3.33e-06  
 Alpha HF Exchange    Energy =  -6.92761559308547
 Beta HF Exchange     Energy =  -6.74492432037426
 DFT Correlation      Energy =  -2.69534565541347
 DFT Exchange         Energy = -54.21126293640761
 One-Electron (alpha) Energy = -854.03362354552473
 One-Electron (beta)  Energy = -829.26272830454138
 Total Coulomb        Energy = 624.70940839187210
   12    -915.4088307520      8.07e-07  Convergence criterion met
 ---------------------------------------
 SCF time:   CPU 32.68s  wall 3.00s 
<S^2> =          2.006201152
 Alpha HF Exchange    Energy =  -6.92761559308547
 Beta HF Exchange     Energy =  -6.74492432037426
 DFT Correlation      Energy =  -2.69534565541347
 DFT Exchange         Energy = -54.21126293640761
 One-Electron (alpha) Energy = -854.03362354552473
 One-Electron (beta)  Energy = -829.26272830454138
 Total Coulomb        Energy = 624.70940839187210
 Nuclear repulsion Energy = 213.75726121143214
 SCF   energy in the final basis set =     -915.4088307520
 Total energy in the final basis set =     -915.4088307520
 
 --------------------------------------------------------------
 
                    Orbital Energies (a.u.)
 --------------------------------------------------------------
 
 Alpha MOs
 -- Occupied --
-88.911 -88.872 -10.224 -10.201 -10.201  -7.972  -7.935  -5.944
 -5.934  -5.925  -5.900  -5.896  -5.889  -0.812  -0.739  -0.739
 -0.646  -0.589  -0.482  -0.447  -0.418  -0.414  -0.402  -0.373
 -0.351  -0.327  -0.321  -0.273  -0.236  -0.214
 -- Virtual --
  0.029   0.033   0.073   0.105   0.129   0.138   0.149   0.162
  0.201   0.213   0.260   0.270   0.325   0.331   0.356   0.359
  0.374   0.389   0.390   0.494   0.522   0.525   0.561   0.578
  0.604   0.629   0.671   0.687   0.695   0.726   0.736   0.740
  0.742   0.746   0.767   0.836   0.846   0.862   0.873   0.883
  0.906   0.916   0.948   1.027   1.090   1.144   1.160   1.232
  1.323   1.424   1.516   1.517   1.674   1.683   1.813   1.861
  1.935   1.970   1.985   2.058   2.066   2.067   2.076   2.097
  2.110   2.205   2.213   2.240   2.337   2.341   2.420   2.478
  2.507   2.597   2.603   2.685   2.708   2.753   2.772   2.782
  2.844   2.873   3.202   3.269   3.364   3.376   3.455   3.541
  3.918   3.984   4.221   4.390   4.592
 
 Beta MOs
 -- Occupied --
-88.905 -88.872 -10.222 -10.201 -10.187  -7.967  -7.935  -5.931
 -5.926  -5.921  -5.900  -5.896  -5.889  -0.806  -0.728  -0.700
 -0.630  -0.579  -0.478  -0.444  -0.412  -0.400  -0.392  -0.365
 -0.348  -0.325  -0.259  -0.236
 -- Virtual --
 -0.178  -0.058   0.033   0.044   0.076   0.110   0.131   0.142
  0.157   0.163   0.206   0.217   0.269   0.284   0.332   0.357
  0.365   0.370   0.375   0.391   0.392   0.498   0.524   0.541
  0.581   0.601   0.619   0.637   0.687   0.710   0.734   0.741
  0.742   0.748   0.770   0.791   0.796   0.840   0.849   0.864
  0.875   0.888   0.910   0.919   0.957   1.037   1.100   1.145
  1.163   1.240   1.335   1.455   1.521   1.530   1.674   1.707
  1.822   1.866   1.938   1.989   2.026   2.062   2.064   2.067
  2.079   2.098   2.111   2.210   2.214   2.240   2.339   2.348
  2.437   2.486   2.520   2.603   2.615   2.692   2.710   2.754
  2.773   2.784   2.847   2.876   3.205   3.272   3.366   3.380
  3.461   3.543   3.937   3.985   4.237   4.408   4.595
 --------------------------------------------------------------
 
          Ground-State Mulliken Net Atomic Charges

     Atom                 Charge (a.u.)    Spin (a.u.)
  --------------------------------------------------------
      1 S                    -0.055799       0.021647
      2 S                    -0.073989       1.027330
      3 C                    -0.200810      -0.074063
      4 C                    -0.314263       0.045919
      5 C                    -0.225981       1.076474
      6 H                     0.121500       0.010580
      7 H                     0.125519       0.014856
      8 H                     0.136572      -0.000404
      9 H                     0.136709      -0.000727
     10 H                     0.108846      -0.047367
     11 H                     0.111319      -0.047101
     12 H                     0.056543       0.000056
     13 H                     0.073832      -0.027201
  --------------------------------------------------------
  Sum of atomic charges =    -0.000000
  Sum of spin   charges =     2.000000

 -----------------------------------------------------------------
                    Cartesian Multipole Moments
 -----------------------------------------------------------------
    Charge (ESU x 10^10)
                -0.0000
    Dipole Moment (Debye)
         X      -0.2016      Y      -1.4932      Z       0.8304
       Tot       1.7204
    Quadrupole Moments (Debye-Ang)
        XX     -51.5283     XY      -5.9803     YY     -47.0927
        XZ      -4.8369     YZ       2.8448     ZZ     -46.1805
    Octopole Moments (Debye-Ang^2)
       XXX      89.5969    XXY     -22.4186    XYY      13.4634
       YYY     -53.9697    XXZ      13.9086    XYZ     -10.8631
       YYZ       6.3590    XZZ       4.8191    YZZ     -17.2072
       ZZZ       0.4276
    Hexadecapole Moments (Debye-Ang^3)
      XXXX   -3285.4119   XXXY     219.6805   XXYY    -573.8961
      XYYY     336.1949   YYYY    -441.0246   XXXZ     -65.1637
      XXYZ      55.1116   XYYZ     -21.1818   YYYZ      11.5147
      XXZZ    -530.1225   XYZZ      95.6343   YYZZ     -78.3654
      XZZZ      17.2833   YZZZ       0.7675   ZZZZ     -83.2111
 -----------------------------------------------------------------
 Calculating analytic gradient of the SCF energy
 Gradient of SCF Energy
            1           2           3           4           5           6
    1  -0.0000461   0.0010350   0.0007125   0.0000189  -0.0021244   0.0012486
    2  -0.0000109   0.0005278   0.0017746   0.0000182  -0.0007313   0.0001508
    3   0.0000087   0.0029562   0.0004326   0.0004478  -0.0037632  -0.0001866
            7           8           9          10          11          12
    1  -0.0000514  -0.0000040  -0.0000236  -0.0004666   0.0007693  -0.0000091
    2  -0.0000426  -0.0000208   0.0000134  -0.0013536   0.0001834   0.0000046
    3  -0.0000457  -0.0000271  -0.0000092   0.0031013   0.0000063   0.0000066
           13
    1  -0.0010590
    2  -0.0005137
    3  -0.0029276
 Max gradient component =       3.763E-03
 RMS gradient           =       1.211E-03
 Gradient time:  CPU 9.49 s  wall 0.85 s
 Geometry Optimization Parameters
   NAtoms,    NIC,     NZ,  NCons,   NDum,   NFix, NCnnct, MaxDiis
       13     184       0       1       0       0       0       0

 Cartesian Hessian Update
 Hessian Updated using BFGS Update


** CONSTRAINED OPTIMIZATION IN DELOCALIZED INTERNAL COORDINATES **
   Searching for a Minimum

   Optimization Cycle:   3

                       Coordinates (Angstroms)
     ATOM                X               Y               Z
      1  S         3.1433337810    0.4372424848   -0.0589742371
      2  S        -5.1285725600    1.7887903233   -0.0103187463
      3  C         0.4124402303   -0.0515443075    0.0899159093
      4  C         1.7580333772   -0.7916718754   -0.0808559285
      5  C        -0.7426370700   -1.0032999555    0.0780215700
      6  H         0.4498471397    0.5113540754    1.0302735454
      7  H         0.3128969529    0.6795503411   -0.7221892790
      8  H         1.8989786474   -1.5080627843    0.7322121643
      9  H         1.7726796188   -1.3321175936   -1.0306323634
     10  H        -1.0702499736   -1.4896349945    0.9969395938
     11  H        -1.1341131139   -1.3765911344   -0.8621497885
     12  H         4.1447123397   -0.4475847070   -0.2329023302
     13  H        -4.7091543695    2.0071701277    1.2495558903
   Point Group: c1    Number of degrees of freedom:    33


   Energy is   -915.408830752

              Constraints and their Current Values
                                        Value     Constraint
   Distance(Angs):        2   5             5.200000     5.200000
 Hessian Updated using BFGS Update

 32 Hessian modes will be used to form the next step
  Hessian Eigenvalues:
     0.024179    0.039534    0.044988    0.045000    0.045895    0.047597
     0.051201    0.056934    0.059672    0.065865    0.066250    0.073485
     0.079386    0.085134    0.089551    0.105744    0.123582    0.142560
     0.157972    0.159997    0.220590    0.224124    0.246466    0.256757
     0.258277    0.280765    0.287355    0.306639    0.318473    0.339992
     0.344907    0.344955

 Minimum Search - Taking Simple RFO Step
 Searching for Lamda that Minimizes Along All modes
 Value Taken    Lamda =  -0.00011891
 Step Taken.  Stepsize is  0.034775

                             Maximum     Tolerance    Cnvgd?
         Gradient           0.002828      0.000300      NO
         Displacement       0.016815      0.001200      NO
         Energy change     -0.000166      0.000001      NO


 New Cartesian Coordinates Obtained by Inverse Iteration

 Displacement from previous Coordinates is:  0.028669
 ----------------------------------------------------------------
             Standard Nuclear Orientation (Angstroms)
    I     Atom           X                Y                Z
 ----------------------------------------------------------------
    1      S       3.1418725280     0.4387937352    -0.0586512302
    2      S      -5.1264797955     1.7892701166    -0.0148080514
    3      C       0.4111429114    -0.0546038372     0.0911727049
    4      C       1.7581214018    -0.7921929524    -0.0816989366
    5      C      -0.7408503236    -1.0030557550     0.0809657463
    6      H       0.4417258606     0.5073498969     1.0325679835
    7      H       0.3120318633     0.6773447760    -0.7202974377
    8      H       1.9008225653    -1.5096149440     0.7301938397
    9      H       1.7728804868    -1.3309880022    -1.0323590008
   10      H      -1.0685418793    -1.4867456318     0.9949622501
   11      H      -1.1343321956    -1.3767678731    -0.8589733046
   12      H       4.1445966776    -0.4440883101    -0.2348455679
   13      H      -4.7047951008     2.0088987812     1.2506670046
 ----------------------------------------------------------------
 Nuclear Repulsion Energy =   213.8099521660 hartrees
 There are       30 alpha and       28 beta electrons

                       Distance Matrix (Angstroms)
             S (  1)   S (  2)   C (  3)   C (  4)   C (  5)   H (  6)
   S (  2)  8.378028
   C (  3)  2.778988  5.837497
   C (  4)  1.852195  7.352969  1.545404
   C (  5)  4.144148  5.200000  1.492231  2.513122
   H (  6)  2.913117  5.809064  1.096792  2.159467  2.141345
   H (  7)  2.915936  5.595668  1.097295  2.158361  2.138768  1.765858
   H (  8)  2.441061  7.798759  2.178199  1.092807  2.767044  2.507696
   H (  9)  2.440158  7.640196  2.178488  1.092828  2.768732  3.068449
   H ( 10)  4.748199  5.312135  2.248851  3.103486  1.084771  2.501747
   H ( 11)  4.714097  5.164654  2.244858  3.051585  1.085345  3.100288
   H ( 12)  1.347583  9.538824  3.767846  2.416587  4.927451  4.027757
   H ( 13)  8.108621  1.351844  5.636958  7.168724  5.113993  5.365528
             H (  7)   H (  8)   H (  9)   H ( 10)   H ( 11)   H ( 12)
   H (  8)  3.067731
   H (  9)  2.502971  1.776195
   H ( 10)  3.087294  2.981233  3.493991
   H ( 11)  2.516064  3.428595  2.912738  1.858360
   H ( 12)  4.022664  2.664802  2.654742  5.456773  5.396899
   H ( 13)  5.552143  7.502334  7.637233  5.050471  5.353646  9.302453

 
 Applying Cartesian multipole field
    Component          Value
    ---------          -----
     (2,0,0)        1.00000E-12
     (0,2,0)        2.00000E-11
     (0,0,2)       -3.00000E-10
 Nucleus-field energy     =     0.0000000006 hartrees
 Requested basis set is 6-31G(d,p)
 There are 46 shells and 123 basis functions
 A cutoff of  1.0D-14 yielded    889 shell pairs
 There are      6313 function pairs
 Smallest overlap matrix eigenvalue = 5.82E-03
 Guess from superposition of atomic densities
 Warning:  Energy on first SCF cycle will be non-variational
 SAD guess density has 58.000000 electrons

 -----------------------------------------------------------------------
  General SCF calculation program by
  Eric Jon Sundstrom, Paul Horn, Yuezhi Mao, Dmitri Zuev, Alec White,
  David Stuck, Shaama M.S., Shane Yost, Joonho Lee, David Small,
  Daniel Levine, Susi Lehtola, Hugh Burton, Evgeny Epifanovsky
 -----------------------------------------------------------------------
 Exchange:     0.2000 Hartree-Fock + 0.0800 Slater + 0.7200 B88
 Correlation:  0.1900 VWN1RPA + 0.8100 LYP
 Using SG-1 standard quadrature grid
 using 12 threads for integral computing
 -------------------------------------------------------
 OpenMP Integral computing Module                
 Release: version 1.0, May 2013, Q-Chem Inc. Pittsburgh 
 -------------------------------------------------------
 -------------------------------------------------------
 OpenMP BLAS3 based DFT computing Module                
 Release: version 1.0, May 2013, Q-Chem Inc. Pittsburgh 
 -------------------------------------------------------
 A unrestricted SCF calculation will be
 performed using DIIS
 SCF converges when DIIS error is below 1.0e-06
 Alpha HF Exchange    Energy =  -6.82165324446138
 Beta HF Exchange     Energy =  -6.82165324446138
 DFT Correlation      Energy =  -2.69155202780326
 DFT Exchange         Energy = -53.80816380540352
 One-Electron (alpha) Energy = -839.77394406980409
 One-Electron (beta)  Energy = -839.77394406980409
 Total Coulomb        Energy = 620.10250969037406
 ---------------------------------------
  Cycle       Energy         DIIS error
 ---------------------------------------
    1    -915.7784486047      2.60e-02  
 Alpha HF Exchange    Energy =  -6.95240775944132
 Beta HF Exchange     Energy =  -6.76833369372744
 DFT Correlation      Energy =  -2.70953819193482
 DFT Exchange         Energy = -54.42488660662552
 One-Electron (alpha) Energy = -855.75407727875358
 One-Electron (beta)  Energy = -829.01820885900827
 Total Coulomb        Energy = 626.76697747512264
    2    -915.0505227477      3.84e-03  
 Alpha HF Exchange    Energy =  -6.92946459857793
 Beta HF Exchange     Energy =  -6.76266257082431
 DFT Correlation      Energy =  -2.70099826890265
 DFT Exchange         Energy = -54.30057576529154
 One-Electron (alpha) Energy = -855.19771312501734
 One-Electron (beta)  Energy = -831.36387123535690
 Total Coulomb        Energy = 634.88034222120734
    3    -908.5649911761      1.30e-02  
 Alpha HF Exchange    Energy =  -6.90700291280989
 Beta HF Exchange     Energy =  -6.72891843045258
 DFT Correlation      Energy =  -2.68758394270307
 DFT Exchange         Energy = -54.06043445682383
 One-Electron (alpha) Energy = -852.89990759152624
 One-Electron (beta)  Energy = -828.32822383488121
 Total Coulomb        Energy = 622.46392981796021
    4    -915.3381891846      2.79e-03  
 Alpha HF Exchange    Energy =  -6.92522266387460
 Beta HF Exchange     Energy =  -6.74516864041359
 DFT Correlation      Energy =  -2.69609751790621
 DFT Exchange         Energy = -54.20604086494664
 One-Electron (alpha) Energy = -854.09030919225586
 One-Electron (beta)  Energy = -829.42346007495064
 Total Coulomb        Energy = 624.88194006313529
    5    -915.3944067245      1.16e-03  
 Alpha HF Exchange    Energy =  -6.92530869314105
 Beta HF Exchange     Energy =  -6.74432679200897
 DFT Correlation      Energy =  -2.69518002112682
 DFT Exchange         Energy = -54.20061852839733
 One-Electron (alpha) Energy = -854.00207046944513
 One-Electron (beta)  Energy = -829.29654133970473
 Total Coulomb        Energy = 624.65057388534876
    6    -915.4035197918      6.40e-04  
 Alpha HF Exchange    Energy =  -6.92540386818500
 Beta HF Exchange     Energy =  -6.74419890061353
 DFT Correlation      Energy =  -2.69505261901428
 DFT Exchange         Energy = -54.20002767204954
 One-Electron (alpha) Energy = -854.01285152704429
 One-Electron (beta)  Energy = -829.28707701722283
 Total Coulomb        Energy = 624.64806403854618
    7    -915.4065953989      4.39e-04  
 Alpha HF Exchange    Energy =  -6.92716956309291
 Beta HF Exchange     Energy =  -6.74490945913449
 DFT Correlation      Energy =  -2.69538725069991
 DFT Exchange         Energy = -54.20956941027468
 One-Electron (alpha) Energy = -854.06986444817278
 One-Electron (beta)  Energy = -829.30864842016945
 Total Coulomb        Energy = 624.73706937918109
    8    -915.4085270057      1.74e-04  
 Alpha HF Exchange    Energy =  -6.92765602489844
 Beta HF Exchange     Energy =  -6.74504901847460
 DFT Correlation      Energy =  -2.69542542345741
 DFT Exchange         Energy = -54.21191373677651
 One-Electron (alpha) Energy = -854.08687493852597
 One-Electron (beta)  Energy = -829.31014020720465
 Total Coulomb        Energy = 624.75823382450278
    9    -915.4088733581      4.07e-05  
 Alpha HF Exchange    Energy =  -6.92770734211212
 Beta HF Exchange     Energy =  -6.74503033135422
 DFT Correlation      Energy =  -2.69543864921796
 DFT Exchange         Energy = -54.21205676133824
 One-Electron (alpha) Energy = -854.08843763982577
 One-Electron (beta)  Energy = -829.30971161641355
 Total Coulomb        Energy = 624.75953979525912
   10    -915.4088903783      1.48e-05  
 Alpha HF Exchange    Energy =  -6.92774438814103
 Beta HF Exchange     Energy =  -6.74501323197736
 DFT Correlation      Energy =  -2.69544460249476
 DFT Exchange         Energy = -54.21213831767830
 One-Electron (alpha) Energy = -854.08831671263044
 One-Electron (beta)  Energy = -829.30821039968305
 Total Coulomb        Energy = 624.75802254621181
   11    -915.4088929397      3.34e-06  
 Alpha HF Exchange    Energy =  -6.92775592432584
 Beta HF Exchange     Energy =  -6.74502571074988
 DFT Correlation      Energy =  -2.69545063355015
 DFT Exchange         Energy = -54.21223710171674
 One-Electron (alpha) Energy = -854.08951296738746
 One-Electron (beta)  Energy = -829.30940582673406
 Total Coulomb        Energy = 624.76054295262611
   12    -915.4088930452      8.04e-07  Convergence criterion met
 ---------------------------------------
 SCF time:   CPU 32.77s  wall 3.00s 
<S^2> =          2.006180787
 Alpha HF Exchange    Energy =  -6.92775592432584
 Beta HF Exchange     Energy =  -6.74502571074988
 DFT Correlation      Energy =  -2.69545063355015
 DFT Exchange         Energy = -54.21223710171674
 One-Electron (alpha) Energy = -854.08951296738746
 One-Electron (beta)  Energy = -829.30940582673406
 Total Coulomb        Energy = 624.76054295262611
 Nuclear repulsion Energy = 213.80995216668666
 SCF   energy in the final basis set =     -915.4088930452
 Total energy in the final basis set =     -915.4088930452
 
 --------------------------------------------------------------
 
                    Orbital Energies (a.u.)
 --------------------------------------------------------------
 
 Alpha MOs
 -- Occupied --
-88.911 -88.872 -10.224 -10.200 -10.200  -7.973  -7.935  -5.944
 -5.934  -5.925  -5.900  -5.896  -5.889  -0.812  -0.740  -0.739
 -0.646  -0.589  -0.482  -0.447  -0.418  -0.413  -0.402  -0.373
 -0.351  -0.327  -0.321  -0.273  -0.236  -0.213
 -- Virtual --
  0.029   0.031   0.073   0.106   0.129   0.139   0.149   0.162
  0.201   0.214   0.262   0.271   0.325   0.331   0.356   0.359
  0.374   0.389   0.390   0.494   0.523   0.525   0.561   0.579
  0.604   0.630   0.671   0.688   0.694   0.727   0.736   0.740
  0.742   0.746   0.767   0.837   0.846   0.862   0.874   0.883
  0.907   0.916   0.949   1.028   1.084   1.144   1.161   1.232
  1.324   1.424   1.515   1.520   1.673   1.683   1.815   1.863
  1.938   1.972   1.986   2.056   2.065   2.066   2.076   2.097
  2.111   2.205   2.213   2.240   2.338   2.341   2.422   2.480
  2.508   2.599   2.603   2.687   2.698   2.753   2.774   2.785
  2.844   2.877   3.203   3.271   3.364   3.378   3.461   3.542
  3.918   3.984   4.222   4.390   4.593
 
 Beta MOs
 -- Occupied --
-88.906 -88.872 -10.222 -10.201 -10.187  -7.967  -7.935  -5.931
 -5.926  -5.921  -5.900  -5.896  -5.889  -0.806  -0.729  -0.699
 -0.630  -0.579  -0.479  -0.444  -0.413  -0.399  -0.393  -0.366
 -0.348  -0.325  -0.259  -0.236
 -- Virtual --
 -0.178  -0.058   0.033   0.042   0.076   0.110   0.131   0.142
  0.158   0.163   0.206   0.218   0.271   0.285   0.332   0.357
  0.365   0.370   0.375   0.391   0.392   0.498   0.524   0.541
  0.581   0.601   0.620   0.638   0.688   0.710   0.734   0.741
  0.742   0.747   0.770   0.791   0.796   0.840   0.849   0.863
  0.876   0.889   0.911   0.919   0.957   1.037   1.094   1.145
  1.164   1.240   1.335   1.456   1.521   1.531   1.673   1.707
  1.823   1.868   1.941   1.989   2.029   2.060   2.062   2.067
  2.079   2.098   2.111   2.210   2.215   2.241   2.339   2.349
  2.439   2.488   2.522   2.603   2.617   2.694   2.700   2.754
  2.775   2.786   2.847   2.881   3.205   3.275   3.366   3.383
  3.467   3.545   3.936   3.985   4.238   4.409   4.595
 --------------------------------------------------------------
 
          Ground-State Mulliken Net Atomic Charges

     Atom                 Charge (a.u.)    Spin (a.u.)
  --------------------------------------------------------
      1 S                    -0.055726       0.021648
      2 S                    -0.074005       1.027560
      3 C                    -0.200667      -0.074188
      4 C                    -0.314248       0.046653
      5 C                    -0.225770       1.075153
      6 H                     0.121295       0.010668
      7 H                     0.125466       0.015230
      8 H                     0.136529      -0.000409
      9 H                     0.136814      -0.000735
     10 H                     0.109221      -0.047140
     11 H                     0.110746      -0.047074
     12 H                     0.056496       0.000066
     13 H                     0.073848      -0.027432
  --------------------------------------------------------
  Sum of atomic charges =     0.000000
  Sum of spin   charges =     2.000000

 -----------------------------------------------------------------
                    Cartesian Multipole Moments
 -----------------------------------------------------------------
    Charge (ESU x 10^10)
                 0.0000
    Dipole Moment (Debye)
         X      -0.2028      Y      -1.4937      Z       0.8280
       Tot       1.7199
    Quadrupole Moments (Debye-Ang)
        XX     -51.5095     XY      -5.9861     YY     -47.0965
        XZ      -4.8374     YZ       2.8400     ZZ     -46.1864
    Octopole Moments (Debye-Ang^2)
       XXX      89.7306    XXY     -22.4184    XYY      13.4176
       YYY     -54.0100    XXZ      13.7383    XYZ     -10.8083
       YYZ       6.3918    XZZ       4.8611    YZZ     -17.2362
       ZZZ       0.5219
    Hexadecapole Moments (Debye-Ang^3)
      XXXX   -3283.7613   XXXY     220.0427   XXYY    -573.4104
      XYYY     335.9506   YYYY    -441.1661   XXXZ     -65.1478
      XXYZ      54.8637   XYYZ     -21.3449   YYYZ      11.7859
      XXZZ    -529.8823   XYZZ      95.6594   YYZZ     -78.4763
      XZZZ      16.5232   YZZZ       1.0459   ZZZZ     -83.2618
 -----------------------------------------------------------------
 Calculating analytic gradient of the SCF energy
 Gradient of SCF Energy
            1           2           3           4           5           6
    1   0.0000371   0.0000458  -0.0004026  -0.0000740  -0.0010784   0.0002984
    2   0.0000036   0.0000102   0.0001150  -0.0000953  -0.0001964   0.0000490
    3   0.0000071  -0.0000190   0.0001878  -0.0000504   0.0002094  -0.0000300
            7           8           9          10          11          12
    1   0.0000442  -0.0000212   0.0000505   0.0005279   0.0006233   0.0000181
    2  -0.0000966   0.0000001  -0.0000023   0.0001503   0.0000371   0.0000218
    3  -0.0000595   0.0000081   0.0000086  -0.0000344  -0.0002881   0.0000127
           13
    1  -0.0000691
    2   0.0000034
    3   0.0000475
 Max gradient component =       1.078E-03
 RMS gradient           =       2.465E-04
 Gradient time:  CPU 9.48 s  wall 0.84 s
 Geometry Optimization Parameters
   NAtoms,    NIC,     NZ,  NCons,   NDum,   NFix, NCnnct, MaxDiis
       13     184       0       1       0       0       0       0

 Cartesian Hessian Update
 Hessian Updated using BFGS Update


** CONSTRAINED OPTIMIZATION IN DELOCALIZED INTERNAL COORDINATES **
   Searching for a Minimum

   Optimization Cycle:   4

                       Coordinates (Angstroms)
     ATOM                X               Y               Z
      1  S         3.1418725280    0.4387937352   -0.0586512302
      2  S        -5.1264797955    1.7892701166   -0.0148080514
      3  C         0.4111429114   -0.0546038372    0.0911727049
      4  C         1.7581214018   -0.7921929524   -0.0816989366
      5  C        -0.7408503236   -1.0030557550    0.0809657463
      6  H         0.4417258606    0.5073498969    1.0325679835
      7  H         0.3120318633    0.6773447760   -0.7202974377
      8  H         1.9008225653   -1.5096149440    0.7301938397
      9  H         1.7728804868   -1.3309880022   -1.0323590008
     10  H        -1.0685418793   -1.4867456318    0.9949622501
     11  H        -1.1343321956   -1.3767678731   -0.8589733046
     12  H         4.1445966776   -0.4440883101   -0.2348455679
     13  H        -4.7047951008    2.0088987812    1.2506670046
   Point Group: c1    Number of degrees of freedom:    33


   Energy is   -915.408893045

              Constraints and their Current Values
                                        Value     Constraint
   Distance(Angs):        2   5             5.200000     5.200000
 Hessian Updated using BFGS Update

 32 Hessian modes will be used to form the next step
  Hessian Eigenvalues:
     0.022793    0.039388    0.044945    0.045000    0.045748    0.047087
     0.050608    0.056065    0.059625    0.064215    0.066248    0.073104
     0.079377    0.085134    0.088644    0.104190    0.123578    0.142483
     0.156812    0.160037    0.220781    0.224279    0.249753    0.258262
     0.268552    0.280928    0.289521    0.306889    0.333279    0.340911
     0.344915    0.345004

 Minimum Search - Taking Simple RFO Step
 Searching for Lamda that Minimizes Along All modes
 Value Taken    Lamda =  -0.00000474
 Step Taken.  Stepsize is  0.010602

                             Maximum     Tolerance    Cnvgd?
         Gradient           0.000224      0.000300     YES
         Displacement       0.004859      0.001200      NO
         Energy change     -0.000062      0.000001      NO


 New Cartesian Coordinates Obtained by Inverse Iteration

 Displacement from previous Coordinates is:  0.011238
 ----------------------------------------------------------------
             Standard Nuclear Orientation (Angstroms)
    I     Atom           X                Y                Z
 ----------------------------------------------------------------
    1      S       3.1411211958     0.4402259234    -0.0582846146
    2      S      -5.1252892534     1.7903041223    -0.0153259988
    3      C       0.4111370886    -0.0559225553     0.0911315155
    4      C       1.7587534726    -0.7921412654    -0.0817787169
    5      C      -0.7409655628    -1.0040463781     0.0811795234
    6      H       0.4399434300     0.5057216750     1.0327989465
    7      H       0.3118027688     0.6765462071    -0.7198953696
    8      H       1.9023104304    -1.5098478658     0.7297050971
    9      H       1.7737184108    -1.3303704788    -1.0327585858
   10      H      -1.0696574227    -1.4873545779     0.9950944375
   11      H      -1.1361029167    -1.3777399701    -0.8581632727
   12      H       4.1444348387    -0.4418403463    -0.2351605401
   13      H      -4.7030114802     2.0100655099     1.2503535784
 ----------------------------------------------------------------
 Nuclear Repulsion Energy =   213.8128777992 hartrees
 There are       30 alpha and       28 beta electrons

                       Distance Matrix (Angstroms)
             S (  1)   S (  2)   C (  3)   C (  4)   C (  5)   H (  6)
   S (  2)  8.376043
   C (  3)  2.778723  5.837114
[...]
   C (  4)  1.851980  7.342284  1.545338
   C (  5)  4.144582  5.200000  1.491929  2.514533
   H (  6)  2.915352  5.792488  1.096855  2.159867  2.138720
   H (  7)  2.914024  5.574658  1.097292  2.158394  2.138958  1.765924
   H (  8)  2.440992  7.794659  2.178218  1.092780  2.769443  2.506944
   H (  9)  2.440272  7.631147  2.177885  1.092814  2.769439  3.068416
   H ( 10)  4.758976  5.299120  2.251568  3.117819  1.084984  2.497612
   H ( 11)  4.729897  5.135493  2.249763  3.073002  1.085198  3.097630
   H ( 12)  1.347565  9.519770  3.767330  2.416049  4.928242  4.029664
   H ( 13)  8.076151  1.351922  5.615167  7.148596  5.105712  5.338895
             H (  7)   H (  8)   H (  9)   H ( 10)   H ( 11)   H ( 12)
   H (  8)  3.067757
   H (  9)  2.503656  1.776197
   H ( 10)  3.085864  3.001142  3.508578
   H ( 11)  2.516349  3.452933  2.939512  1.856113
   H ( 12)  4.020691  2.665157  2.653904  5.472475  5.418823
   H ( 13)  5.521736  7.488981  7.619029  5.029710  5.317962  9.274109

 
 Applying Cartesian multipole field
    Component          Value
    ---------          -----
     (2,0,0)        1.00000E-12
     (0,2,0)        2.00000E-11
     (0,0,2)       -3.00000E-10
 Nucleus-field energy     =     0.0000000007 hartrees
 Requested basis set is 6-31G(d,p)
 There are 46 shells and 123 basis functions
 A cutoff of  1.0D-14 yielded    889 shell pairs
 There are      6301 function pairs
 Smallest overlap matrix eigenvalue = 5.81E-03
 Guess from superposition of atomic densities
 Warning:  Energy on first SCF cycle will be non-variational
 SAD guess density has 58.000000 electrons

 -----------------------------------------------------------------------
  General SCF calculation program by
  Eric Jon Sundstrom, Paul Horn, Yuezhi Mao, Dmitri Zuev, Alec White,
  David Stuck, Shaama M.S., Shane Yost, Joonho Lee, David Small,
  Daniel Levine, Susi Lehtola, Hugh Burton, Evgeny Epifanovsky
 -----------------------------------------------------------------------
 Exchange:     0.2000 Hartree-Fock + 0.0800 Slater + 0.7200 B88
 Correlation:  0.1900 VWN1RPA + 0.8100 LYP
 Using SG-1 standard quadrature grid
 using 12 threads for integral computing
 -------------------------------------------------------
 OpenMP Integral computing Module                
 Release: version 1.0, May 2013, Q-Chem Inc. Pittsburgh 
 -------------------------------------------------------
 -------------------------------------------------------
 OpenMP BLAS3 based DFT computing Module                
 Release: version 1.0, May 2013, Q-Chem Inc. Pittsburgh 
 -------------------------------------------------------
 A unrestricted SCF calculation will be
 performed using DIIS
 SCF converges when DIIS error is below 1.0e-06
 Alpha HF Exchange    Energy =  -6.82165119769066
 Beta HF Exchange     Energy =  -6.82165119769066
 DFT Correlation      Energy =  -2.69153260014193
 DFT Exchange         Energy = -53.80820149318742
 One-Electron (alpha) Energy = -839.85595455327382
 One-Electron (beta)  Energy = -839.85595455327382
 Total Coulomb        Energy = 620.18423184881613
 ---------------------------------------
  Cycle       Energy         DIIS error
 ---------------------------------------
    1    -915.7786091702      2.60e-02  
 Alpha HF Exchange    Energy =  -6.95238677872769
 Beta HF Exchange     Energy =  -6.76837623884322
 DFT Correlation      Energy =  -2.70955252248402
 DFT Exchange         Energy = -54.42495899916035
 One-Electron (alpha) Energy = -855.83928097406806
 One-Electron (beta)  Energy = -829.10239446786682
 Total Coulomb        Energy = 626.85379622173434
    2    -915.0510491832      3.84e-03  
 Alpha HF Exchange    Energy =  -6.92942438810907
 Beta HF Exchange     Energy =  -6.76267555955940
 DFT Correlation      Energy =  -2.70101443071207
 DFT Exchange         Energy = -54.30046493547290
 One-Electron (alpha) Energy = -855.27472734492198
 One-Electron (beta)  Energy = -831.43296435667389
 Total Coulomb        Energy = 634.94217736657833
    3    -908.5669890726      1.30e-02  
 Alpha HF Exchange    Energy =  -6.90694627694389
 Beta HF Exchange     Energy =  -6.72895238441526
 DFT Correlation      Energy =  -2.68759659463990
 DFT Exchange         Energy = -54.06034910516431
 One-Electron (alpha) Energy = -852.98459764182132
 One-Electron (beta)  Energy = -828.40902256443508
 Total Coulomb        Energy = 622.54718277443237
    4    -915.3381772168      2.79e-03  
 Alpha HF Exchange    Energy =  -6.92517720335863
 Beta HF Exchange     Energy =  -6.74519017255482
 DFT Correlation      Energy =  -2.69611972137832
 DFT Exchange         Energy = -54.20595290400719
 One-Electron (alpha) Energy = -854.17520300860849
 One-Electron (beta)  Energy = -829.50351506392576
 Total Coulomb        Energy = 624.96460954906740
    5    -915.3944439485      1.16e-03  
 Alpha HF Exchange    Energy =  -6.92526267938707
 Beta HF Exchange     Energy =  -6.74435576131961
 DFT Correlation      Energy =  -2.69520123705955
 DFT Exchange         Energy = -54.20056335562892
 One-Electron (alpha) Energy = -854.08732135650359
 One-Electron (beta)  Energy = -829.37688370809906
 Total Coulomb        Energy = 624.73393699133271
    6    -915.4035465304      6.40e-04  
 Alpha HF Exchange    Energy =  -6.92535767003293
 Beta HF Exchange     Energy =  -6.74422711522797
 DFT Correlation      Energy =  -2.69507278802231
 DFT Exchange         Energy = -54.19997238996368
 One-Electron (alpha) Energy = -854.09805232433905
 One-Electron (beta)  Energy = -829.36720390716005
 Total Coulomb        Energy = 624.73116142031574
    7    -915.4066201982      4.38e-04  
 Alpha HF Exchange    Energy =  -6.92712531470464
 Beta HF Exchange     Energy =  -6.74493704371889
 DFT Correlation      Energy =  -2.69540573466713
 DFT Exchange         Energy = -54.20952115444375
 One-Electron (alpha) Energy = -854.15515500282470
 One-Electron (beta)  Energy = -829.38857638251454
 Total Coulomb        Energy = 624.82006712066948
    8    -915.4085489360      1.74e-04  
 Alpha HF Exchange    Energy =  -6.92761396727809
 Beta HF Exchange     Energy =  -6.74507787429456
 DFT Correlation      Energy =  -2.69544323919517
 DFT Exchange         Energy = -54.21187987180514
 One-Electron (alpha) Energy = -854.17228410573864
 One-Electron (beta)  Energy = -829.39005456678080
 Total Coulomb        Energy = 624.84135326012563
    9    -915.4088957887      4.07e-05  
 Alpha HF Exchange    Energy =  -6.92766555241909
 Beta HF Exchange     Energy =  -6.74505858606372
 DFT Correlation      Energy =  -2.69545602642265
 DFT Exchange         Energy = -54.21202146407286
 One-Electron (alpha) Energy = -854.17382183250129
 One-Electron (beta)  Energy = -829.38956432629050
 Total Coulomb        Energy = 624.84257039206670
   10    -915.4089128195      1.47e-05  
 Alpha HF Exchange    Energy =  -6.92770292495581
 Beta HF Exchange     Energy =  -6.74504154975254
 DFT Correlation      Energy =  -2.69546181743507
 DFT Exchange         Energy = -54.21210432305553
 One-Electron (alpha) Energy = -854.17371097326793
 One-Electron (beta)  Energy = -829.38806142517353
 Total Coulomb        Energy = 624.84106306828005
   11    -915.4089153691      3.32e-06  
 Alpha HF Exchange    Energy =  -6.92771439082058
 Beta HF Exchange     Energy =  -6.74505403100963
 DFT Correlation      Energy =  -2.69546780033750
 DFT Exchange         Energy = -54.21220284758517
 One-Electron (alpha) Energy = -854.17490500883673
 One-Electron (beta)  Energy = -829.38925706764553
 Total Coulomb        Energy = 624.84358109709797
   12    -915.4089154729      8.03e-07  Convergence criterion met
 ---------------------------------------
 SCF time:   CPU 32.28s  wall 3.00s 
<S^2> =          2.006215443
 Alpha HF Exchange    Energy =  -6.92771439082058
 Beta HF Exchange     Energy =  -6.74505403100963
 DFT Correlation      Energy =  -2.69546780033750
 DFT Exchange         Energy = -54.21220284758517
 One-Electron (alpha) Energy = -854.17490500883673
 One-Electron (beta)  Energy = -829.38925706764553
 Total Coulomb        Energy = 624.84358109709797
 Nuclear repulsion Energy = 213.89210457623079
 SCF   energy in the final basis set =     -915.4089154729
 Total energy in the final basis set =     -915.4089154729
 
 --------------------------------------------------------------
 
                    Orbital Energies (a.u.)
 --------------------------------------------------------------
 
 Alpha MOs
 -- Occupied --
-88.911 -88.872 -10.223 -10.200 -10.200  -7.973  -7.935  -5.944
 -5.934  -5.925  -5.900  -5.896  -5.889  -0.812  -0.740  -0.739
 -0.646  -0.589  -0.482  -0.447  -0.418  -0.413  -0.402  -0.373
 -0.351  -0.327  -0.321  -0.273  -0.236  -0.213
 -- Virtual --
  0.029   0.031   0.073   0.106   0.129   0.138   0.150   0.161
  0.202   0.215   0.262   0.271   0.325   0.331   0.356   0.359
  0.374   0.389   0.390   0.495   0.522   0.526   0.562   0.579
  0.604   0.630   0.671   0.688   0.694   0.726   0.736   0.740
  0.742   0.747   0.770   0.835   0.847   0.861   0.873   0.882
  0.907   0.916   0.949   1.027   1.084   1.144   1.164   1.232
  1.324   1.429   1.509   1.518   1.673   1.683   1.815   1.864
  1.938   1.967   1.990   2.056   2.065   2.066   2.076   2.098
  2.113   2.205   2.212   2.239   2.339   2.341   2.425   2.481
  2.514   2.593   2.602   2.684   2.697   2.753   2.773   2.783
  2.846   2.882   3.203   3.271   3.366   3.377   3.459   3.545
  3.918   3.984   4.222   4.390   4.593
 
 Beta MOs
 -- Occupied --
-88.906 -88.872 -10.222 -10.201 -10.186  -7.967  -7.935  -5.931
 -5.926  -5.921  -5.899  -5.896  -5.889  -0.806  -0.729  -0.699
 -0.631  -0.579  -0.478  -0.444  -0.413  -0.400  -0.393  -0.366
 -0.348  -0.325  -0.259  -0.235
 -- Virtual --
 -0.178  -0.058   0.033   0.042   0.076   0.110   0.131   0.142
  0.158   0.162   0.206   0.219   0.271   0.285   0.332   0.357
  0.365   0.370   0.375   0.391   0.392   0.498   0.524   0.542
  0.581   0.601   0.620   0.638   0.687   0.710   0.734   0.741
  0.742   0.748   0.773   0.791   0.796   0.839   0.849   0.863
  0.874   0.888   0.911   0.919   0.957   1.036   1.094   1.145
  1.166   1.239   1.336   1.465   1.517   1.525   1.673   1.707
  1.824   1.868   1.941   1.983   2.034   2.060   2.062   2.067
  2.079   2.098   2.113   2.210   2.214   2.240   2.341   2.348
  2.442   2.490   2.528   2.602   2.610   2.691   2.699   2.754
  2.775   2.785   2.850   2.886   3.205   3.274   3.368   3.381
  3.465   3.548   3.936   3.985   4.238   4.409   4.596
 --------------------------------------------------------------
 
          Ground-State Mulliken Net Atomic Charges

     Atom                 Charge (a.u.)    Spin (a.u.)
  --------------------------------------------------------
      1 S                    -0.055892       0.021338
      2 S                    -0.074028       1.027560
      3 C                    -0.200297      -0.074646
      4 C                    -0.314010       0.046522
      5 C                    -0.227069       1.076427
      6 H                     0.121307       0.011119
      7 H                     0.125522       0.015390
      8 H                     0.136638      -0.000373
      9 H                     0.136959      -0.000677
     10 H                     0.109336      -0.047675
     11 H                     0.111152      -0.047540
     12 H                     0.056508      -0.000010
     13 H                     0.073873      -0.027435
  --------------------------------------------------------
  Sum of atomic charges =    -0.000000
  Sum of spin   charges =     2.000000

 -----------------------------------------------------------------
                    Cartesian Multipole Moments
 -----------------------------------------------------------------
    Charge (ESU x 10^10)
                 0.0000
    Dipole Moment (Debye)
         X      -0.2129      Y      -1.4787      Z       0.8250
       Tot       1.7066
    Quadrupole Moments (Debye-Ang)
        XX     -51.4859     XY      -5.9495     YY     -47.1234
        XZ      -4.8001     YZ       2.8292     ZZ     -46.2107
    Octopole Moments (Debye-Ang^2)
       XXX      90.7760    XXY     -22.6966    XYY      12.8218
       YYY     -53.8255    XXZ      13.1837    XYZ     -10.6885
       YYZ       6.4587    XZZ       4.8921    YZZ     -17.3950
       ZZZ       0.6404
    Hexadecapole Moments (Debye-Ang^3)
      XXXX   -3277.6575   XXXY     221.9120   XXYY    -569.7725
      XYYY     332.1917   YYYY    -443.0109   XXXZ     -63.2095
      XXYZ      53.8281   XYYZ     -21.4448   YYYZ      12.2883
      XXZZ    -527.8275   XYZZ      95.3215   YYZZ     -79.1139
      XZZZ      15.5727   YZZZ       1.4801   ZZZZ     -83.2710
 -----------------------------------------------------------------
 Calculating analytic gradient of the SCF energy
 Gradient of SCF Energy
            1           2           3           4           5           6
    1   0.0000106   0.0000300  -0.0003216   0.0000357   0.0002079   0.0000676
    2   0.0000110   0.0000079   0.0002200  -0.0000540  -0.0000963  -0.0000467
    3   0.0000141  -0.0000514   0.0000442  -0.0000199  -0.0000352   0.0000249
            7           8           9          10          11          12
    1   0.0000627   0.0000043   0.0000051  -0.0000507   0.0000006   0.0000012
    2  -0.0000445   0.0000176   0.0000015   0.0000439  -0.0000764   0.0000114
    3  -0.0000349   0.0000112   0.0000075  -0.0000510   0.0000103   0.0000009
           13
    1  -0.0000534
    2   0.0000047
    3   0.0000792
 Max gradient component =       3.216E-04
 RMS gradient           =       8.062E-05
 Gradient time:  CPU 9.45 s  wall 0.84 s
 Geometry Optimization Parameters
   NAtoms,    NIC,     NZ,  NCons,   NDum,   NFix, NCnnct, MaxDiis
       13     184       0       1       0       0       0       0

 Cartesian Hessian Update
 Hessian Updated using BFGS Update


** CONSTRAINED OPTIMIZATION IN DELOCALIZED INTERNAL COORDINATES **
   Searching for a Minimum

   Optimization Cycle:  12

                       Coordinates (Angstroms)
     ATOM                X               Y               Z
      1  S         3.1352057310    0.4501329709   -0.0585148844
      2  S        -5.1110682347    1.7944577999   -0.0197922455
      3  C         0.4085750226   -0.0634118248    0.0932821284
      4  C         1.7607162845   -0.7908637699   -0.0816396815
      5  C        -0.7382272491   -1.0176471945    0.0818417756
      6  H         0.4339249038    0.4948586015    1.0370949852
      7  H         0.3047660988    0.6711217088   -0.7152566045
      8  H         1.9094329297   -1.5083342120    0.7290937756
      9  H         1.7777926729   -1.3282529112   -1.0330404737
     10  H        -1.0797475808   -1.4913921330    0.9962374759
     11  H        -1.1559513728   -1.3731190013   -0.8545352425
     12  H         4.1437195911   -0.4251674854   -0.2392935512
     13  H        -4.6809437971    2.0112174511    1.2434185428
   Point Group: c1    Number of degrees of freedom:    33


   Energy is   -915.408915473

              Constraints and their Current Values
                                        Value     Constraint
   Distance(Angs):        2   5             5.200000     5.200000
 Hessian Updated using BFGS Update

 32 Hessian modes will be used to form the next step
  Hessian Eigenvalues:
     0.001473    0.011599    0.031301    0.043165    0.044394    0.045009
     0.045836    0.048591    0.050826    0.060074    0.066512    0.067195
     0.079171    0.082858    0.085206    0.107919    0.123681    0.143250
     0.153383    0.162304    0.221309    0.224173    0.249479    0.258260
     0.275581    0.285866    0.295852    0.307563    0.325919    0.340062
     0.344915    0.344976

 Minimum Search - Taking Simple RFO Step
 Searching for Lamda that Minimizes Along All modes
 Value Taken    Lamda =   0.00000000
 Step Taken.  Stepsize is  0.007940

                             Maximum     Tolerance    Cnvgd?
         Gradient           0.000096      0.000300     YES
         Displacement       0.004080      0.001200      NO
         Energy change     -0.000001      0.000001     YES


                       Distance Matrix (Angstroms)
             S (  1)   S (  2)   C (  3)   C (  4)   C (  5)   H (  6)
   S (  2)  8.355222
   C (  3)  2.778720  5.825026
   C (  4)  1.851980  7.342284  1.545338
   C (  5)  4.144582  5.200000  1.491929  2.514533
   H (  6)  2.915352  5.792488  1.096855  2.159867  2.138720
   H (  7)  2.914024  5.574658  1.097292  2.158394  2.138958  1.765924
   H (  8)  2.440992  7.794659  2.178218  1.092780  2.769443  2.506944
   H (  9)  2.440272  7.631147  2.177885  1.092814  2.769439  3.068416
   H ( 10)  4.758976  5.299120  2.251568  3.117819  1.084984  2.497612
   H ( 11)  4.729897  5.135493  2.249763  3.073002  1.085198  3.097630
   H ( 12)  1.347565  9.519770  3.767330  2.416049  4.928242  4.029664
   H ( 13)  8.076151  1.351922  5.615167  7.148596  5.105712  5.338895
             H (  7)   H (  8)   H (  9)   H ( 10)   H ( 11)   H ( 12)
   H (  8)  3.067757
   H (  9)  2.503656  1.776197
   H ( 10)  3.085864  3.001142  3.508578
   H ( 11)  2.516349  3.452933  2.939512  1.856113
   H ( 12)  4.020691  2.665157  2.653904  5.472475  5.418823
   H ( 13)  5.521736  7.488981  7.619029  5.029710  5.317962  9.274109

 
 Final energy is   -915.408915472906     


 ******************************
 **  OPTIMIZATION CONVERGED  **
 ******************************

                       Coordinates (Angstroms)
     ATOM                X               Y               Z
      1  S         3.1352057310    0.4501329709   -0.0585148844
      2  S        -5.1110682347    1.7944577999   -0.0197922455
      3  C         0.4085750226   -0.0634118248    0.0932821284
      4  C         1.7607162845   -0.7908637699   -0.0816396815
      5  C        -0.7382272491   -1.0176471945    0.0818417756
      6  H         0.4339249038    0.4948586015    1.0370949852
      7  H         0.3047660988    0.6711217088   -0.7152566045
      8  H         1.9094329297   -1.5083342120    0.7290937756
      9  H         1.7777926729   -1.3282529112   -1.0330404737
     10  H        -1.0797475808   -1.4913921330    0.9962374759
     11  H        -1.1559513728   -1.3731190013   -0.8545352425
     12  H         4.1437195911   -0.4251674854   -0.2392935512
     13  H        -4.6809437971    2.0112174511    1.2434185428

Z-matrix Print:
$molecule
0 3
S 
H  1 1.347565
C  1 1.851980 2 96.806236
H  3 1.092780 1 109.249719 2 60.061004 0
H  3 1.092814 1 109.195346 2 -58.722459 0
C  3 1.545338 1 109.422709 2 -179.296745 0
H  6 1.096855 3 108.467799 1 -57.979712 0
H  6 1.097292 3 108.329824 1 58.051135 0
C  6 1.491929 3 111.753858 1 179.984268 0
H  9 1.084984 6 120.981740 3 88.164057 0
H  9 1.085198 6 120.797775 3 -82.450132 0
H  10 5.029710 9 87.863541 6 98.306008 0
S  12 1.351922 10 94.026758 9 51.928135 0
$end

PES scan, value:    5.2000 energy: -915.4089154729
------- Summary of potential scan: ------ 
    5.2000      -915.4089154729
----------------------------------------- 
Archival summary:
1\1\hpc0250\JobtypUnspecified\ProcedureUnspecified\6-31G**\238(3)\knomura\ThuMar1408:14:552019ThuMar1408:14:552019\0\\#,JobtypUnspecified,ProcedureUnspecified,6-31G**,\\0,3\S\H,1,1.34757\C,1,1.85198,2,96.8062\H,3,1.09278,1,109.25,2,60.061,0\H,3,1.09281,1,109.195,2,-58.7225,0\C,3,1.54534,1,109.423,2,-179.297,0\H,6,1.09686,3,108.468,1,-57.9797,0\H,6,1.09729,3,108.33,1,58.0511,0\C,6,1.49193,3,111.754,1,179.984,0\H,9,1.08498,6,120.982,3,88.1641,0\H,9,1.0852,6,120.798,3,-82.4501,0\H,10,5.02971,9,87.8635,6,98.306,0\S,12,1.35192,10,94.0268,9,51.9281,0\\\@

 Total job time:  48.73s(wall), 562.50s(cpu) 
 Thu Mar 14 08:14:55 2019

        *************************************************************
        *                                                           *
        *  Thank you very much for using Q-Chem.  Have a nice day.  *
        *                                                           *
        *************************************************************


