
Running Job 1 of 1 thiol/04/C-S.xyz.data/inputs/bond_triplet_3.6.in
qchem thiol/04/C-S.xyz.data/inputs/bond_triplet_3.6.in_8426.0 /staging/scratch/2868767/qchem8426/ 1
/usr/usc/qchem/5.1.1/exe/qcprog.exe_s thiol/04/C-S.xyz.data/inputs/bond_triplet_3.6.in_8426.0 /staging/scratch/2868767/qchem8426/
Check license passed

                  Welcome to Q-Chem
     A Quantum Leap Into The Future Of Chemistry


 Q-Chem 5.1, Q-Chem, Inc., Pleasanton, CA (2018)

 Yihan Shao,  Zhengting Gan,  E. Epifanovsky,  A. T. B. Gilbert,  M. Wormit,  
 J. Kussmann,  A. W. Lange,  A. Behn,  Jia Deng,  Xintian Feng,  D. Ghosh,  
 M. Goldey,  P. R. Horn,  L. D. Jacobson,  I. Kaliman,  T. Kus,  A. Landau,  
 Jie Liu,  E. I. Proynov,  R. M. Richard,  R. P. Steele,  E. J. Sundstrom,  
 H. L. Woodcock III,  P. M. Zimmerman,  D. Zuev,  B. Albrecht,  E. Alguire,  
 S. A. Baeppler,  D. Barton,  Z. Benda,  Y. A. Bernard,  E. J. Berquist,  
 K. B. Bravaya,  H. Burton,  D. Casanova,  Chun-Min Chang,  Yunqing Chen,  
 A. Chien,  K. D. Closser,  M. P. Coons,  S. Coriani,  S. Dasgupta,  
 A. L. Dempwolff,  M. Diedenhofen,  Hainam Do,  R. G. Edgar,  Po-Tung Fang,  
 S. Faraji,  S. Fatehi,  Qingguo Feng,  K. D. Fenk,  J. Fosso-Tande,  
 Qinghui Ge,  A. Ghysels,  G. Gidofalvi,  J. Gomes,  J. Gonthier,  A. Gunina,  
 D. Hait,  M. W. D. Hanson-Heine,  P. H. P. Harbach,  A. W. Hauser,  
 J. E. Herr,  E. G. Hohenstein,  Z. C. Holden,  Kerwin Hui,  B. C. Huynh,  
 T.-C. Jagau,  Hyunjun Ji,  B. Kaduk,  K. Khistyaev,  Jaehoon Kim,  
 P. Klunzinger,  K. Koh,  D. Kosenkov,  L. Koulias,  T. Kowalczyk,  
 C. M. Krauter,  A. Kunitsa,  Ka Un Lao,  A. Laurent,  K. V. Lawler,  
 Joonho Lee,  D. Lefrancois,  S. Lehtola,  D. S. Levine,  Yi-Pei Li,  
 You-Sheng Lin,  Fenglai Liu,  E. Livshits,  A. Luenser,  P. Manohar,  
 E. Mansoor,  S. F. Manzer,  Shan-Ping Mao,  Yuezhi Mao,  N. Mardirossian,  
 A. V. Marenich,  T. Markovich,  L. A. Martinez-Martinez,  S. A. Maurer,  
 N. J. Mayhall,  S. C. McKenzie,  J.-M. Mewes,  A. F. Morrison,  
 J. W. Mullinax,  K. Nanda,  T. S. Nguyen-Beck,  R. Olivares-Amaya,  
 J. A. Parkhill,  T. M. Perrine,  F. Plasser,  P. Pokhilko,  S. Prager,  
 A. Prociuk,  E. Ramos,  D. R. Rehn,  F. Rob,  M. Schneider,  N. Sergueev,  
 S. M. Sharada,  S. Sharma,  D. W. Small,  T. Stauch,  T. Stein,  
 Yu-Chuan Su,  A. J. W. Thom,  A. Tkatchenko,  T. Tsuchimochi,  N. M. Tubman,  
 L. Vogt,  M. L. Vidal,  O. Vydrov,  M. A. Watson,  J. Wenzel,  
 M. de Wergifosse,  T. A. Wesolowski,  A. White,  J. Witte,  A. Yamada,  
 Jun Yang,  K. Yao,  S. Yeganeh,  S. R. Yost,  Zhi-Qiang You,  A. Zech,  
 Igor Ying Zhang,  Xing Zhang,  Yan Zhao,  Ying Zhu,  B. R. Brooks,  
 G. K. L. Chan,  C. J. Cramer,  M. S. Gordon,  W. J. Hehre,  A. Klamt,  
 M. W. Schmidt,  C. D. Sherrill,  D. G. Truhlar,  A. Aspuru-Guzik,  R. Baer,  
 A. T. Bell,  N. A. Besley,  Jeng-Da Chai,  A. E. DePrince, III,  
 R. A. DiStasio Jr.,  A. Dreuw,  B. D. Dunietz,  T. R. Furlani,  
 Chao-Ping Hsu,  Yousung Jung,  Jing Kong,  D. S. Lambrecht,  WanZhen Liang,  
 C. Ochsenfeld,  V. A. Rassolov,  L. V. Slipchenko,  J. E. Subotnik,  
 T. Van Voorhis,  J. M. Herbert,  A. I. Krylov,  P. M. W. Gill,  M. Head-Gordon

 Contributors to earlier versions of Q-Chem not listed above: 
 R. D. Adamson,  B. Austin,  J. Baker,  G. J. O. Beran,  K. Brandhorst,  
 S. T. Brown,  E. F. C. Byrd,  A. K. Chakraborty,  C.-L. Cheng,  
 Siu Hung Chien,  D. M. Chipman,  D. L. Crittenden,  H. Dachsel,  
 R. J. Doerksen,  A. D. Dutoi,  L. Fusti-Molnar,  W. A. Goddard III,  
 A. Golubeva-Zadorozhnaya,  S. R. Gwaltney,  G. Hawkins,  A. Heyden,  
 S. Hirata,  G. Kedziora,  F. J. Keil,  C. Kelley,  Jihan Kim,  R. A. King,  
 R. Z. Khaliullin,  P. P. Korambath,  W. Kurlancheek,  A. M. Lee,  M. S. Lee,  
 S. V. Levchenko,  Ching Yeh Lin,  D. Liotard,  R. C. Lochan,  I. Lotan,  
 P. E. Maslen,  N. Nair,  D. P. O'Neill,  D. Neuhauser,  E. Neuscamman,  
 C. M. Oana,  R. Olson,  B. Peters,  R. Peverati,  P. A. Pieniazek,  
 Y. M. Rhee,  J. Ritchie,  M. A. Rohrdanz,  E. Rosta,  N. J. Russ,  
 H. F. Schaefer III,  N. E. Schultz,  N. Shenvi,  A. C. Simmonett,  A. Sodt,  
 D. Stuck,  K. S. Thanthiriwatte,  V. Vanovschi,  Tao Wang,  A. Warshel,  
 C. F. Williams,  Q. Wu,  X. Xu,  W. Zhang

 Please cite Q-Chem as follows:
 Y. Shao et al., Mol. Phys. 113, 184-215 (2015)
 DOI: 10.1080/00268976.2014.952696

 Q-Chem 5.1.1 for Intel X86 EM64T Linux

 Parts of Q-Chem use Armadillo 8.300.2 (Tropical Shenanigans).
 http://arma.sourceforge.net/

 Q-Chem begins on Thu Mar 14 08:29:41 2019  

Host: 
0

     Scratch files written to /staging/scratch/2868767/qchem8426//
 Aug318 |scratch|qcdevops|jenkins|workspace|build_RNUM 6013   
Processing $rem in /usr/usc/qchem/5.1.1/config/preferences.
 MEM_TOTAL  2000 
Input Ideriv = 2
Curr. Ideriv = -1
Max.  Ideriv = 2

Checking the input file for inconsistencies... 	...done.

--------------------------------------------------------------
User input:
--------------------------------------------------------------

$comment
potential surface scanner
$end

$rem
JOBTYPE  PES_SCAN
UNRESTRICTED TRUE
SYM_IGNORE  TRUE
GEOM_OPT_MAX_CYCLES 400
SCF_MAX_CYCLES 400
METHOD   B3LYP
BASIS   6-31G**
PDB_PRINT 2
SCF_CONVERGENCE 6
THRESH 14
SCF_PRINT 1
$end
$molecule
0 3
S 2.895630 0.488432 -0.024886
S -3.896705 1.562781 0.373049
C 0.152637 0.117061 0.152484
C 1.461904 -0.681741 -0.038754
C -1.041486 -0.778970 0.140815
H 0.211903 0.664252 1.100717
H 0.080849 0.862615 -0.648767
H 1.580896 -1.408908 0.768264
H 1.441530 -1.215127 -0.992406
H -1.346195 -1.302414 1.042381
H -1.444981 -1.142221 -0.800096
H 3.855941 -0.437445 -0.215484
H -2.843723 0.695293 0.321579
$end
$scan
stre 2 5 3.600000 3.601000 0.100000
$end
--------------------------------------------------------------
 ----------------------------------------------------------------
             Standard Nuclear Orientation (Angstroms)
    I     Atom           X                Y                Z
 ----------------------------------------------------------------
    1      S       2.8956300000     0.4884320000    -0.0248860000
    2      S      -3.8967050000     1.5627810000     0.3730490000
    3      C       0.1526370000     0.1170610000     0.1524840000
    4      C       1.4619040000    -0.6817410000    -0.0387540000
    5      C      -1.0414860000    -0.7789700000     0.1408150000
    6      H       0.2119030000     0.6642520000     1.1007170000
    7      H       0.0808490000     0.8626150000    -0.6487670000
    8      H       1.5808960000    -1.4089080000     0.7682640000
    9      H       1.4415300000    -1.2151270000    -0.9924060000
   10      H      -1.3461950000    -1.3024140000     1.0423810000
   11      H      -1.4449810000    -1.1422210000    -0.8000960000
   12      H       3.8559410000    -0.4374450000    -0.2154840000
   13      H      -2.8437230000     0.6952930000     0.3215790000
 ----------------------------------------------------------------
 Nuclear Repulsion Energy =   231.4670100344 hartrees
 There are       30 alpha and       28 beta electrons
 Requested basis set is 6-31G(d,p)
 There are 46 shells and 123 basis functions

 Total QAlloc Memory Limit   2000 MB
 Mega-Array Size       188 MB
 MEM_STATIC part       192 MB
A total of 1 constraints
  
            1
    1   1.0100000
    2   2.0100000
    3   5.0100000
    4   3.6000000
    5   3.6010000
    6   0.1000000
    7   0.0000000
    8   0.0000000
    9   0.0000000
   10   0.0000000

                       Distance Matrix (Angstroms)
             S (  1)   S (  2)   C (  3)   C (  4)   C (  5)   H (  6)
   S (  2)  6.888279
   C (  3)  2.773696  4.305337
   C (  4)  1.850694  5.824273  1.545586
   C (  5)  4.139402  3.700001  1.492963  2.511705
   H (  6)  2.915525  4.268198  1.096392  2.161618  2.138992
   H (  7)  2.907272  4.165966  1.096817  2.159737  2.139597  1.765564
   H (  8)  2.440801  6.244297  2.178919  1.092799  2.769007  2.506523
   H (  9)  2.439798  6.170737  2.178702  1.092871  2.764017  3.070051
   H ( 10)  4.726443  3.893899  2.247960  3.072378  1.086123  2.509751
   H ( 11)  4.701158  3.834613  2.246238  3.040011  1.086312  3.101886
   H ( 12)  1.347506  8.028125  3.762624  2.412950  4.922233  4.028043
   H ( 13)  5.753521  1.365268  3.056324  4.534808  2.335420  3.153549
             H (  7)   H (  8)   H (  9)   H ( 10)   H ( 11)   H ( 12)
   H (  8)  3.068865
   H (  9)  2.507300  1.776776
   H ( 10)  3.095769  2.941826  3.452447
   H ( 11)  2.523970  3.418597  2.893829  1.852064
   H ( 12)  4.016119  2.662204  2.652881  5.421496  5.379429
   H ( 13)  3.085886  4.919801  4.872336  2.598649  2.567312  6.815939

 
 A cutoff of  1.0D-14 yielded    961 shell pairs
 There are      6884 function pairs
 
 -------------------------------------------------------
 OpenMP Integral Computing Module                       
 Release: version 1.0, May 2013, Q-Chem Inc. Pittsburgh 
 -------------------------------------------------------
 Integral Job Info:
 Integral job number is                      11
 Integral operator is                         1
 short-range coefficients                     0
 long-range coefficients              100000000
 Omega coefficients                           0
 if combine SR and LR in K                    0
 Integral screening is                        0
 Integral computing path is                   2
 max size of driver memory is            800000
 size of driver memory is                593474
 size of scratch memory is             15267112
 max col of scratch BK array               1296
 max len of scratch array in speh3          155
 max len of scratch index in speh4           18
 max int batch size is                      520
 min int batch size is                       52
 fixed nKL is                                52
 max L of basis functions is                  2
 order of int derivative is                   0
 number of shells is                         46
 number of basis is                         123
 number of cartesian basis is               123
 number of contracted shell pairs           961
 number of primitive shell pairs           3533
 maxK2 (contraction) of shell pair           36
 max number of K2 of shell pair               1
 max number of CS2 of shell pair             80
 max number of PS2 of shell pair            324
 mem total for path MDJ                  515204
 -------------------------------------------------------
 Smallest overlap matrix eigenvalue = 5.61E-03

 Scale SEOQF with 1.000000e-01/1.000000e-01/1.000000e+00

 Standard Electronic Orientation quadrupole field applied
 Nucleus-field energy     =     0.0000000113 hartrees
 Guess from superposition of atomic densities
 Warning:  Energy on first SCF cycle will be non-variational
 SAD guess density has 58.000000 electrons

 -----------------------------------------------------------------------
  General SCF calculation program by
  Eric Jon Sundstrom, Paul Horn, Yuezhi Mao, Dmitri Zuev, Alec White,
  David Stuck, Shaama M.S., Shane Yost, Joonho Lee, David Small,
  Daniel Levine, Susi Lehtola, Hugh Burton, Evgeny Epifanovsky
 -----------------------------------------------------------------------
 Exchange:     0.2000 Hartree-Fock + 0.0800 Slater + 0.7200 B88
 Correlation:  0.1900 VWN1RPA + 0.8100 LYP
 Using SG-1 standard quadrature grid
 using 12 threads for integral computing
 -------------------------------------------------------
 OpenMP Integral computing Module                
 Release: version 1.0, May 2013, Q-Chem Inc. Pittsburgh 
 -------------------------------------------------------
 -------------------------------------------------------
 OpenMP BLAS3 based DFT computing Module                
 Release: version 1.0, May 2013, Q-Chem Inc. Pittsburgh 
 -------------------------------------------------------
 A unrestricted SCF calculation will be
 performed using DIIS
 SCF converges when DIIS error is below 1.0e-06
 Alpha HF Exchange    Energy =  -6.82297348027792
 Beta HF Exchange     Energy =  -6.82297348027792
 DFT Correlation      Energy =  -2.69529433771147
 DFT Exchange         Energy = -53.80879149313155
 One-Electron (alpha) Energy = -857.43709349652170
 One-Electron (beta)  Energy = -857.43709349652170
 Total Coulomb        Energy = 637.77010826141418
 ---------------------------------------
  Cycle       Energy         DIIS error
 ---------------------------------------
    1    -915.7871014773      2.60e-02  
 Alpha HF Exchange    Energy =  -6.95109641527450
 Beta HF Exchange     Energy =  -6.76626512896629
 DFT Correlation      Energy =  -2.71209499787795
 DFT Exchange         Energy = -54.41542970862547
 One-Electron (alpha) Energy = -874.12166846881496
 One-Electron (beta)  Energy = -846.31450913831407
 Total Coulomb        Energy = 644.75400146338313
    2    -915.0600523488      3.85e-03  
 Alpha HF Exchange    Energy =  -6.93155226654523
 Beta HF Exchange     Energy =  -6.75965018032302
 DFT Correlation      Energy =  -2.70407390979335
 DFT Exchange         Energy = -54.30308647783764
 One-Electron (alpha) Energy = -872.49479128592418
 One-Electron (beta)  Energy = -846.42878202862937
 Total Coulomb        Energy = 649.28423541915356
    3    -908.8706906842      1.38e-02  
 Alpha HF Exchange    Energy =  -6.90680698215791
 Beta HF Exchange     Energy =  -6.72827584497811
 DFT Correlation      Energy =  -2.69099608887187
 DFT Exchange         Energy = -54.05966513002020
 One-Electron (alpha) Energy = -871.36589791322194
 One-Electron (beta)  Energy = -845.09274792488065
 Total Coulomb        Energy = 640.04087168096339
    4    -915.3365081574      2.85e-03  
 Alpha HF Exchange    Energy =  -6.92505782468327
 Beta HF Exchange     Energy =  -6.74345679370593
 DFT Correlation      Energy =  -2.69909564365190
 DFT Exchange         Energy = -54.20080966857014
 One-Electron (alpha) Energy = -872.51272289166161
 One-Electron (beta)  Energy = -846.10050384960300
 Total Coulomb        Energy = 642.32115033440311
    5    -915.3934862917      1.25e-03  
 Alpha HF Exchange    Energy =  -6.92514304890178
 Beta HF Exchange     Energy =  -6.74280681463328
 DFT Correlation      Energy =  -2.69811742517454
 DFT Exchange         Energy = -54.19584560662881
 One-Electron (alpha) Energy = -872.43336511908228
 One-Electron (beta)  Energy = -845.97358675762871
 Total Coulomb        Energy = 642.09725347783240
    6    -915.4046012485      7.08e-04  
 Alpha HF Exchange    Energy =  -6.92533189568852
 Beta HF Exchange     Energy =  -6.74290012407038
 DFT Correlation      Energy =  -2.69802180072573
 DFT Exchange         Energy = -54.19634429892886
 One-Electron (alpha) Energy = -872.45403397946961
 One-Electron (beta)  Energy = -845.97092868118989
 Total Coulomb        Energy = 642.11127821779939
    7    -915.4092725166      4.46e-04  
 Alpha HF Exchange    Energy =  -6.92693870736138
 Beta HF Exchange     Energy =  -6.74378762213062
 DFT Correlation      Energy =  -2.69837182434670
 DFT Exchange         Energy = -54.20612565505547
 One-Electron (alpha) Energy = -872.50816973000906
 One-Electron (beta)  Energy = -845.99896906589686
 Total Coulomb        Energy = 642.20396967348540
    8    -915.4113828856      1.76e-04  
 Alpha HF Exchange    Energy =  -6.92726013163150
 Beta HF Exchange     Energy =  -6.74406693970252
 DFT Correlation      Energy =  -2.69842089322047
 DFT Exchange         Energy = -54.20853044108433
 One-Electron (alpha) Energy = -872.52292915228054
 One-Electron (beta)  Energy = -846.00649155621363
 Total Coulomb        Energy = 642.22891373512311
    9    -915.4117753333      4.27e-05  
 Alpha HF Exchange    Energy =  -6.92725440596969
 Beta HF Exchange     Energy =  -6.74404358078917
 DFT Correlation      Energy =  -2.69844039373016
 DFT Exchange         Energy = -54.20849278698928
 One-Electron (alpha) Energy = -872.52217942403774
 One-Electron (beta)  Energy = -846.00683216608286
 Total Coulomb        Energy = 642.22843668695702
   10    -915.4117960249      1.54e-05  
 Alpha HF Exchange    Energy =  -6.92726648957199
 Beta HF Exchange     Energy =  -6.74405506208192
 DFT Correlation      Energy =  -2.69845455035157
 DFT Exchange         Energy = -54.20862803241304
 One-Electron (alpha) Energy = -872.52190253191145
 One-Electron (beta)  Energy = -846.00723510580235
 Total Coulomb        Energy = 642.22873231444851
   11    -915.4117994120      2.10e-06  
 Alpha HF Exchange    Energy =  -6.92727507552154
 Beta HF Exchange     Energy =  -6.74406981104074
 DFT Correlation      Energy =  -2.69846224780588
 DFT Exchange         Energy = -54.20873039225548
 One-Electron (alpha) Energy = -872.52303343903372
 One-Electron (beta)  Energy = -846.00872171341803
 Total Coulomb        Energy = 642.23148317761013
   12    -915.4117994557      1.26e-06  
 Alpha HF Exchange    Energy =  -6.92726951707768
 Beta HF Exchange     Energy =  -6.74406413062517
 DFT Correlation      Energy =  -2.69846097254238
 DFT Exchange         Energy = -54.20868758852040
 One-Electron (alpha) Energy = -872.52241915215075
 One-Electron (beta)  Energy = -846.00827085137996
 Total Coulomb        Energy = 642.23036269313843
   13    -915.4117994734      3.02e-07  Convergence criterion met
 ---------------------------------------
 SCF time:   CPU 38.50s  wall 4.00s 
<S^2> =          2.006143118
 Alpha HF Exchange    Energy =  -6.92726951707768
 Beta HF Exchange     Energy =  -6.74406413062517
 DFT Correlation      Energy =  -2.69846097254238
 DFT Exchange         Energy = -54.20868758852040
 One-Electron (alpha) Energy = -872.52241915215075
 One-Electron (beta)  Energy = -846.00827085137996
 Total Coulomb        Energy = 642.23036269313843
 Nuclear repulsion Energy = 231.46701004572324
 SCF   energy in the final basis set =     -915.4117994734
 Total energy in the final basis set =     -915.4117994734
 
 --------------------------------------------------------------
 
                    Orbital Energies (a.u.)
 --------------------------------------------------------------
 
 Alpha MOs
 -- Occupied --
-88.901 -88.878 -10.231 -10.217 -10.210  -7.962  -7.941  -5.934
 -5.924  -5.915  -5.906  -5.902  -5.895  -0.822  -0.750  -0.728
 -0.656  -0.599  -0.492  -0.456  -0.428  -0.418  -0.398  -0.383
 -0.361  -0.333  -0.313  -0.265  -0.241  -0.229
 -- Virtual --
  0.022   0.054   0.072   0.096   0.121   0.131   0.141   0.154
  0.191   0.202   0.250   0.276   0.331   0.337   0.351   0.360
  0.373   0.383   0.386   0.487   0.512   0.514   0.569   0.577
  0.616   0.625   0.678   0.696   0.734   0.736   0.738   0.745
  0.746   0.755   0.824   0.837   0.855   0.864   0.870   0.892
  0.904   0.917   0.970   1.068   1.138   1.144   1.172   1.264
  1.316   1.404   1.520   1.530   1.663   1.672   1.802   1.850
  1.929   1.956   1.982   2.057   2.062   2.064   2.090   2.093
  2.117   2.203   2.207   2.230   2.326   2.340   2.449   2.462
  2.482   2.594   2.596   2.684   2.721   2.748   2.763   2.780
  2.833   2.867   3.196   3.262   3.354   3.363   3.455   3.527
  3.928   3.979   4.229   4.401   4.597
 
 Beta MOs
 -- Occupied --
-88.895 -88.878 -10.230 -10.211 -10.204  -7.957  -7.941  -5.920
 -5.915  -5.911  -5.905  -5.902  -5.895  -0.815  -0.738  -0.687
 -0.640  -0.591  -0.488  -0.452  -0.423  -0.404  -0.386  -0.375
 -0.358  -0.332  -0.250  -0.241
 -- Virtual --
 -0.170  -0.084   0.024   0.064   0.089   0.101   0.123   0.134
  0.148   0.156   0.195   0.206   0.258   0.292   0.343   0.353
  0.363   0.375   0.376   0.386   0.387   0.491   0.516   0.529
  0.572   0.591   0.627   0.636   0.706   0.735   0.736   0.748
  0.750   0.763   0.800   0.805   0.828   0.839   0.857   0.867
  0.876   0.898   0.908   0.929   0.975   1.080   1.141   1.148
  1.175   1.276   1.326   1.431   1.532   1.539   1.664   1.695
  1.810   1.854   1.932   1.987   2.007   2.058   2.062   2.065
  2.090   2.093   2.118   2.205   2.212   2.231   2.327   2.349
  2.463   2.468   2.496   2.597   2.610   2.691   2.725   2.750
  2.764   2.782   2.836   2.871   3.198   3.265   3.356   3.367
  3.461   3.530   3.947   3.979   4.241   4.420   4.601
 --------------------------------------------------------------
 
          Ground-State Mulliken Net Atomic Charges

     Atom                 Charge (a.u.)    Spin (a.u.)
  --------------------------------------------------------
      1 S                    -0.046784       0.020517
      2 S                    -0.085002       1.068897
      3 C                    -0.199342      -0.069773
      4 C                    -0.318313       0.046899
      5 C                    -0.243843       1.021300
      6 H                     0.130131       0.010629
      7 H                     0.131095       0.013562
      8 H                     0.139065      -0.000662
      9 H                     0.138802      -0.000859
     10 H                     0.123622      -0.042950
     11 H                     0.123442      -0.042843
     12 H                     0.058436       0.000325
     13 H                     0.048691      -0.025042
  --------------------------------------------------------
  Sum of atomic charges =     0.000000
  Sum of spin   charges =     2.000000

 -----------------------------------------------------------------
                    Cartesian Multipole Moments
 -----------------------------------------------------------------
    Charge (ESU x 10^10)
                 0.0000
    Dipole Moment (Debye)
         X       0.9074      Y      -2.6297      Z      -0.2263
       Tot       2.7911
    Quadrupole Moments (Debye-Ang)
        XX     -55.9373     XY      -1.0984     YY     -49.7738
        XZ      -0.0760     YZ      -0.3478     ZZ     -46.7085
    Octopole Moments (Debye-Ang^2)
       XXX      83.7703    XXY     -40.6844    XYY      16.0457
       YYY     -61.3348    XXZ     -12.4917    XYZ       2.4141
       YYZ      -7.2747    XZZ       0.9084    YZZ     -19.0680
       ZZZ     -17.5874
    Hexadecapole Moments (Debye-Ang^3)
      XXXX   -2268.5069   XXXY     184.2227   XXYY    -431.2223
      XYYY     212.4029   YYYY    -360.8475   XXXZ      65.6322
      XXYZ     -10.0915   XYYZ      27.3512   YYYZ     -26.5450
      XXZZ    -373.0677   XYZZ      56.6516   YYZZ     -68.2724
      XZZZ      62.7569   YZZZ     -20.1699   ZZZZ     -88.2039
 -----------------------------------------------------------------
 Calculating analytic gradient of the SCF energy
 Gradient of SCF Energy
            1           2           3           4           5           6
    1  -0.0000023  -0.0004566  -0.0000308   0.0000017   0.0004233   0.0000028
    2  -0.0000003   0.0004192   0.0000341   0.0000010  -0.0004246   0.0000010
    3  -0.0000015  -0.0000451   0.0000032  -0.0000041  -0.0000553   0.0000003
            7           8           9          10          11          12
    1  -0.0000002  -0.0000006  -0.0000009   0.0000288   0.0000126  -0.0000005
    2   0.0000060  -0.0000026  -0.0000011  -0.0000151   0.0000042  -0.0000053
    3   0.0000039   0.0000012   0.0000015  -0.0000034  -0.0000166   0.0000091
           13
    1   0.0000227
    2  -0.0000167
    3   0.0001067
 Max gradient component =       4.566E-04
 RMS gradient           =       1.400E-04
 Gradient time:  CPU 10.46 s  wall 0.93 s
 Geometry Optimization Parameters
   NAtoms,    NIC,     NZ,  NCons,   NDum,   NFix, NCnnct, MaxDiis
       13      91       0       1       0       0       0       0


** CONSTRAINED OPTIMIZATION IN DELOCALIZED INTERNAL COORDINATES **
   Searching for a Minimum

   Optimization Cycle:   1

                       Coordinates (Angstroms)
     ATOM                X               Y               Z
      1  S         2.8956300000    0.4884320000   -0.0248860000
      2  S        -3.8967050000    1.5627810000    0.3730490000
      3  C         0.1526370000    0.1170610000    0.1524840000
      4  C         1.4619040000   -0.6817410000   -0.0387540000
      5  C        -1.0414860000   -0.7789700000    0.1408150000
      6  H         0.2119030000    0.6642520000    1.1007170000
      7  H         0.0808490000    0.8626150000   -0.6487670000
      8  H         1.5808960000   -1.4089080000    0.7682640000
      9  H         1.4415300000   -1.2151270000   -0.9924060000
     10  H        -1.3461950000   -1.3024140000    1.0423810000
     11  H        -1.4449810000   -1.1422210000   -0.8000960000
     12  H         3.8559410000   -0.4374450000   -0.2154840000
     13  H        -2.8437230000    0.6952930000    0.3215790000
   Point Group: c1    Number of degrees of freedom:    33


   Energy is   -915.411799473

              Constraints and their Current Values
                                        Value     Constraint
   Distance(Angs):        2   5             3.700001     3.600000

 Attempting to Generate Delocalized Internal Coordinates

   Using Lagrange Multiplier Algorithm


 34 Hessian modes will be used to form the next step
  Hessian Eigenvalues:
    -0.994717    0.045000    0.045000    0.045000    0.051025    0.065251
     0.069244    0.078526    0.079555    0.085132    0.086414    0.102142
     0.102946    0.105128    0.123349    0.125655    0.130914    0.136841
     0.142263    0.160000    0.190018    0.219364    0.220728    0.224982
     0.258307    0.280298    0.323834    0.331270    0.340366    0.340842
     0.344829    0.344912    0.352646    1.005311

 Minimum Search - Taking P-RFO Step
 Searching for Lamda that Maximizes Along the Constraint modes Only
 Value Taken    Lamda =   0.01762023
 Searching for Lamda that Minimizes Along All other modes
 Value Taken    Lamda =  -0.01747592
 Step Taken.  Stepsize is  0.185719

                             Maximum     Tolerance    Cnvgd?
         Gradient            0.188974       0.000300      NO
         Displacement        0.185715       0.001200      NO
         Energy change     *********       0.000001      NO


 New Cartesian Coordinates Obtained by Inverse Iteration

 Displacement from previous Coordinates is:  0.202448
 ----------------------------------------------------------------
             Standard Nuclear Orientation (Angstroms)
    I     Atom           X                Y                Z
 ----------------------------------------------------------------
    1      S       2.8844888788     0.4931810108    -0.0238421765
    2      S      -3.8118220444     1.5273574545     0.3797118275
    3      C       0.1412292771     0.1215441843     0.1492065312
    4      C       1.4511269957    -0.6774559678    -0.0368376134
    5      C      -1.0525653625    -0.7749282623     0.1380436608
    6      H       0.1984109228     0.6717821650     1.0958017098
    7      H       0.0708096168     0.8644914683    -0.6545800908
    8      H       1.5687165485    -1.4019988084     0.7727408650
    9      H       1.4328254980    -1.2138964235    -0.9888170892
   10      H      -1.3612746172    -1.2959824566     1.0396362444
   11      H      -1.4483758635    -1.1454807887    -0.8078442417
   12      H       3.8454602565    -0.4329884779    -0.2096299102
   13      H      -2.8108301067     0.6879829024     0.3253062829
 ----------------------------------------------------------------
 Nuclear Repulsion Energy =   233.1676848724 hartrees
 There are       30 alpha and       28 beta electrons

                       Distance Matrix (Angstroms)
             S (  1)   S (  2)   C (  3)   C (  4)   C (  5)   H (  6)
   S (  2)  6.787706
   C (  3)  2.773722  4.201911
   C (  4)  1.850699  5.721307  1.545589
   C (  5)  4.139409  3.601725  1.492961  2.511685
   H (  6)  2.915564  4.162543  1.096391  2.161623  2.138975
   H (  7)  2.907317  4.072343  1.096815  2.159742  2.139608  1.765575
   H (  8)  2.440801  6.138876  2.178921  1.092798  2.768967  2.506526
   H (  9)  2.439798  6.074016  2.178697  1.092872  2.763996  3.070049
   H ( 10)  4.728488  3.796305  2.249392  3.074244  1.086125  2.511548
   H ( 11)  4.698254  3.760350  2.246807  3.036547  1.090266  3.104548
   H ( 12)  1.347506  7.926175  3.762658  2.412976  4.922241  4.028106
   H ( 13)  5.709335  1.307476  3.011066  4.489972  2.294923  3.106358
             H (  7)   H (  8)   H (  9)   H ( 10)   H ( 11)   H ( 12)
   H (  8)  3.068868
   H (  9)  2.507289  1.776777
   H ( 10)  3.096592  2.944031  3.453745
   H ( 11)  2.524164  3.415684  2.887690  1.855646
   H ( 12)  4.016145  2.662254  2.652877  5.423607  5.374961
   H ( 13)  3.048800  4.873259  4.832461  2.558827  2.549883  6.771184

 
 Applying Cartesian multipole field
    Component          Value
    ---------          -----
     (2,0,0)        1.00000E-11
     (0,2,0)        2.00000E-11
     (0,0,2)       -3.00000E-10
 Nucleus-field energy     =     0.0000000107 hartrees
 Requested basis set is 6-31G(d,p)
 There are 46 shells and 123 basis functions
 A cutoff of  1.0D-14 yielded    964 shell pairs
 There are      6893 function pairs
 Smallest overlap matrix eigenvalue = 5.57E-03
 Guess from superposition of atomic densities
 Warning:  Energy on first SCF cycle will be non-variational
 SAD guess density has 58.000000 electrons

 -----------------------------------------------------------------------
  General SCF calculation program by
  Eric Jon Sundstrom, Paul Horn, Yuezhi Mao, Dmitri Zuev, Alec White,
  David Stuck, Shaama M.S., Shane Yost, Joonho Lee, David Small,
  Daniel Levine, Susi Lehtola, Hugh Burton, Evgeny Epifanovsky
 -----------------------------------------------------------------------
 Exchange:     0.2000 Hartree-Fock + 0.0800 Slater + 0.7200 B88
 Correlation:  0.1900 VWN1RPA + 0.8100 LYP
 Using SG-1 standard quadrature grid
 using 12 threads for integral computing
 -------------------------------------------------------
 OpenMP Integral computing Module                
 Release: version 1.0, May 2013, Q-Chem Inc. Pittsburgh 
 -------------------------------------------------------
 -------------------------------------------------------
 OpenMP BLAS3 based DFT computing Module                
 Release: version 1.0, May 2013, Q-Chem Inc. Pittsburgh 
 -------------------------------------------------------
 A unrestricted SCF calculation will be
 performed using DIIS
 SCF converges when DIIS error is below 1.0e-06
 Alpha HF Exchange    Energy =  -6.82588634200279
 Beta HF Exchange     Energy =  -6.82588634200279
 DFT Correlation      Energy =  -2.69627496049031
 DFT Exchange         Energy = -53.81580036062969
 One-Electron (alpha) Energy = -859.11310506721327
 One-Electron (beta)  Energy = -859.11310506721327
 Total Coulomb        Energy = 639.40806744833151
 ---------------------------------------
  Cycle       Energy         DIIS error
 ---------------------------------------
    1    -915.8143058081      2.62e-02  
 Alpha HF Exchange    Energy =  -6.95347513170185
 Beta HF Exchange     Energy =  -6.76856584119405
 DFT Correlation      Energy =  -2.71317226130533
 DFT Exchange         Energy = -54.43140298761938
 One-Electron (alpha) Energy = -875.92233250682239
 One-Electron (beta)  Energy = -848.01483153132801
 Total Coulomb        Energy = 646.57750461391674
    2    -915.0585907630      3.85e-03  
 Alpha HF Exchange    Energy =  -6.93338115600458
 Beta HF Exchange     Energy =  -6.76085538942976
 DFT Correlation      Energy =  -2.70450627489324
 DFT Exchange         Energy = -54.31312473222379
 One-Electron (alpha) Energy = -874.12377024502177
 One-Electron (beta)  Energy = -847.82623095359565
 Total Coulomb        Energy = 650.63476620484573
    3    -908.8594176632      1.38e-02  
 Alpha HF Exchange    Energy =  -6.90908669048258
 Beta HF Exchange     Energy =  -6.73010585677512
 DFT Correlation      Energy =  -2.69206556201725
 DFT Exchange         Energy = -54.07372195410477
 One-Electron (alpha) Energy = -873.15232822749124
 One-Electron (beta)  Energy = -846.69939208027131
 Total Coulomb        Energy = 641.75342982580844
    4    -915.3355856622      2.84e-03  
 Alpha HF Exchange    Energy =  -6.92706422579945
 Beta HF Exchange     Energy =  -6.74517849074792
 DFT Correlation      Energy =  -2.70009669041494
 DFT Exchange         Energy = -54.21357850042756
 One-Electron (alpha) Energy = -874.28555062491807
 One-Electron (beta)  Energy = -847.70118989468472
 Total Coulomb        Energy = 644.01289301998440
    5    -915.3920805239      1.25e-03  
 Alpha HF Exchange    Energy =  -6.92719186556199
 Beta HF Exchange     Energy =  -6.74458654553823
 DFT Correlation      Energy =  -2.69911961628829
 DFT Exchange         Energy = -54.20897539892797
 One-Electron (alpha) Energy = -874.20791967161290
 One-Electron (beta)  Energy = -847.57706665607498
 Total Coulomb        Energy = 643.79414519254021
    6    -915.4030296784      7.07e-04  
 Alpha HF Exchange    Energy =  -6.92743222718540
 Beta HF Exchange     Energy =  -6.74473042663672
 DFT Correlation      Energy =  -2.69903267638602
 DFT Exchange         Energy = -54.20980014723034
 One-Electron (alpha) Energy = -874.23246264663453
 One-Electron (beta)  Energy = -847.57846224310254
 Total Coulomb        Energy = 643.81660975440377
    7    -915.4076257297      4.48e-04  
 Alpha HF Exchange    Energy =  -6.92902562102228
 Beta HF Exchange     Energy =  -6.74560127880263
 DFT Correlation      Energy =  -2.69936804762345
 DFT Exchange         Energy = -54.21941002429772
 One-Electron (alpha) Energy = -874.28517490524109
 One-Electron (beta)  Energy = -847.60552663821909
 Total Coulomb        Energy = 643.90668413345134
    8    -915.4097374987      1.79e-04  
 Alpha HF Exchange    Energy =  -6.92939253161763
 Beta HF Exchange     Energy =  -6.74590303691596
 DFT Correlation      Energy =  -2.69941817665137
 DFT Exchange         Energy = -54.22204328146830
 One-Electron (alpha) Energy = -874.30174873858402
 One-Electron (beta)  Energy = -847.61379663445621
 Total Coulomb        Energy = 643.93447836910013
    9    -915.4101391475      4.33e-05  
 Alpha HF Exchange    Energy =  -6.92940555501555
 Beta HF Exchange     Energy =  -6.74589060864845
 DFT Correlation      Energy =  -2.69944167252996
 DFT Exchange         Energy = -54.22211011647771
 One-Electron (alpha) Energy = -874.30256180087076
 One-Electron (beta)  Energy = -847.61522929041348
 Total Coulomb        Energy = 643.93679367814150
   10    -915.4101604827      1.56e-05  
 Alpha HF Exchange    Energy =  -6.92941460319672
 Beta HF Exchange     Energy =  -6.74589268786583
 DFT Correlation      Energy =  -2.69945134556323
 DFT Exchange         Energy = -54.22218842359441
 One-Electron (alpha) Energy = -874.30166575725991
 One-Electron (beta)  Energy = -847.61469116328817
 Total Coulomb        Energy = 643.93545523967032
   11    -915.4101638580      2.36e-06  
 Alpha HF Exchange    Energy =  -6.92942775248697
 Beta HF Exchange     Energy =  -6.74591078290475
 DFT Correlation      Energy =  -2.69946029490233
 DFT Exchange         Energy = -54.22232117848939
 One-Electron (alpha) Energy = -874.30321469562170
 One-Electron (beta)  Energy = -847.61646792345834
 Total Coulomb        Energy = 643.93895383897768
   12    -915.4101639058      1.30e-06  
 Alpha HF Exchange    Energy =  -6.92942261969219
 Beta HF Exchange     Energy =  -6.74590496691205
 DFT Correlation      Energy =  -2.69945912925274
 DFT Exchange         Energy = -54.22227955455723
 One-Electron (alpha) Energy = -874.30264282865653
 One-Electron (beta)  Energy = -847.61602165139846
 Total Coulomb        Energy = 643.93788194352885
   13    -915.4101639238      2.68e-07  Convergence criterion met
 ---------------------------------------
 SCF time:   CPU 38.05s  wall 3.00s 
<S^2> =          2.006029889
 Alpha HF Exchange    Energy =  -6.92942261969219
 Beta HF Exchange     Energy =  -6.74590496691205
 DFT Correlation      Energy =  -2.69945912925274
 DFT Exchange         Energy = -54.22227955455723
 One-Electron (alpha) Energy = -874.30264282865653
 One-Electron (beta)  Energy = -847.61602165139846
 Total Coulomb        Energy = 643.93788194352885
 Nuclear repulsion Energy = 233.16768488309964
 SCF   energy in the final basis set =     -915.4101639238
 Total energy in the final basis set =     -915.4101639238
 
 --------------------------------------------------------------
 
                    Orbital Energies (a.u.)
 --------------------------------------------------------------
 
 Alpha MOs
 -- Occupied --
-88.898 -88.878 -10.231 -10.217 -10.210  -7.961  -7.941  -5.932
 -5.922  -5.913  -5.906  -5.902  -5.895  -0.822  -0.750  -0.736
 -0.656  -0.599  -0.492  -0.456  -0.428  -0.421  -0.401  -0.382
 -0.360  -0.333  -0.313  -0.266  -0.241  -0.229
 -- Virtual --
  0.022   0.063   0.080   0.095   0.121   0.130   0.141   0.154
  0.190   0.202   0.249   0.269   0.334   0.337   0.351   0.359
  0.374   0.383   0.386   0.488   0.512   0.515   0.570   0.577
  0.620   0.634   0.685   0.691   0.731   0.737   0.737   0.745
  0.747   0.756   0.823   0.836   0.855   0.865   0.870   0.892
  0.904   0.917   0.974   1.083   1.143   1.145   1.208   1.269
  1.317   1.404   1.521   1.532   1.663   1.673   1.803   1.850
  1.927   1.955   1.982   2.059   2.066   2.072   2.093   2.106
  2.126   2.203   2.208   2.230   2.325   2.341   2.451   2.466
  2.480   2.594   2.597   2.685   2.748   2.763   2.780   2.812
  2.836   2.867   3.196   3.260   3.353   3.363   3.452   3.527
  3.930   3.979   4.231   4.403   4.598
 
 Beta MOs
 -- Occupied --
-88.892 -88.878 -10.230 -10.210 -10.203  -7.955  -7.940  -5.918
 -5.914  -5.910  -5.905  -5.902  -5.895  -0.815  -0.738  -0.696
 -0.640  -0.590  -0.488  -0.452  -0.423  -0.405  -0.389  -0.375
 -0.358  -0.332  -0.251  -0.241
 -- Virtual --
 -0.171  -0.083   0.025   0.067   0.099   0.103   0.123   0.134
  0.147   0.156   0.195   0.206   0.258   0.285   0.345   0.353
  0.363   0.375   0.377   0.386   0.387   0.493   0.517   0.529
  0.573   0.591   0.628   0.643   0.718   0.733   0.735   0.744
  0.748   0.763   0.800   0.805   0.827   0.839   0.857   0.866
  0.877   0.897   0.907   0.929   0.978   1.093   1.147   1.149
  1.214   1.281   1.328   1.431   1.534   1.541   1.664   1.696
  1.811   1.854   1.931   1.987   2.006   2.060   2.068   2.073
  2.094   2.104   2.129   2.205   2.214   2.231   2.327   2.350
  2.465   2.472   2.494   2.598   2.609   2.692   2.749   2.764
  2.782   2.816   2.839   2.871   3.198   3.264   3.355   3.366
  3.458   3.529   3.950   3.979   4.243   4.422   4.602
 --------------------------------------------------------------
 
          Ground-State Mulliken Net Atomic Charges

     Atom                 Charge (a.u.)    Spin (a.u.)
  --------------------------------------------------------
      1 S                    -0.046935       0.020680
      2 S                    -0.081899       1.064248
      3 C                    -0.198326      -0.069845
      4 C                    -0.318184       0.046877
      5 C                    -0.247383       1.023573
      6 H                     0.129513       0.010471
      7 H                     0.131420       0.013785
      8 H                     0.138995      -0.000660
      9 H                     0.138713      -0.000873
     10 H                     0.124052      -0.042864
     11 H                     0.122548      -0.042990
     12 H                     0.058366       0.000335
     13 H                     0.049121      -0.022737
  --------------------------------------------------------
  Sum of atomic charges =     0.000000
  Sum of spin   charges =     2.000000

 -----------------------------------------------------------------
                    Cartesian Multipole Moments
 -----------------------------------------------------------------
    Charge (ESU x 10^10)
                 0.0000
    Dipole Moment (Debye)
         X       0.8749      Y      -2.6256      Z      -0.2255
       Tot       2.7767
    Quadrupole Moments (Debye-Ang)
        XX     -55.6990     XY      -1.1159     YY     -49.7527
        XZ       0.1391     YZ      -0.1308     ZZ     -46.6498
    Octopole Moments (Debye-Ang^2)
       XXX      79.7618    XXY     -40.1056    XYY      14.9903
       YYY     -60.0845    XXZ     -13.9870    XYZ       1.8106
       YYZ      -6.6435    XZZ       0.1701    YZZ     -18.5649
       ZZZ     -17.7413
    Hexadecapole Moments (Debye-Ang^3)
      XXXX   -2200.1505   XXXY     172.7327   XXYY    -419.4477
      XYYY     199.9943   YYYY    -351.2494   XXXZ      74.4477
      XXYZ      -8.9744   XYYZ      24.8676   YYYZ     -24.4592
      XXZZ    -364.5993   XYZZ      52.5599   YYZZ     -66.4118
      XZZZ      62.4390   YZZZ     -19.7261   ZZZZ     -88.4104
 -----------------------------------------------------------------
 Calculating analytic gradient of the SCF energy
 Gradient of SCF Energy
            1           2           3           4           5           6
    1  -0.0000224   0.0247090  -0.0001435   0.0000128   0.0003896  -0.0000502
    2  -0.0000012  -0.0205240   0.0001432  -0.0000523   0.0010782  -0.0000448
    3  -0.0000034  -0.0014870  -0.0002249  -0.0000227   0.0026109  -0.0000116
            7           8           9          10          11          12
    1   0.0000415   0.0000003   0.0000083  -0.0000176  -0.0007101  -0.0000044
    2  -0.0000207   0.0000022  -0.0000046  -0.0000114  -0.0007483  -0.0000075
    3   0.0000009   0.0000066   0.0000037  -0.0000047  -0.0023798   0.0000137
           13
    1  -0.0242135
    2   0.0201913
    3   0.0014982
 Max gradient component =       2.471E-02
 RMS gradient           =       7.242E-03
 Gradient time:  CPU 10.24 s  wall 0.89 s
 Geometry Optimization Parameters
   NAtoms,    NIC,     NZ,  NCons,   NDum,   NFix, NCnnct, MaxDiis
       13      91       0       1       0       0       0       0

 Cartesian Hessian Update
 Hessian Updated using BFGS Update


** CONSTRAINED OPTIMIZATION IN DELOCALIZED INTERNAL COORDINATES **
   Searching for a Minimum

   Optimization Cycle:   2

                       Coordinates (Angstroms)
     ATOM                X               Y               Z
      1  S         2.8844888788    0.4931810108   -0.0238421765
      2  S        -3.8118220444    1.5273574545    0.3797118275
      3  C         0.1412292771    0.1215441843    0.1492065312
      4  C         1.4511269957   -0.6774559678   -0.0368376134
      5  C        -1.0525653625   -0.7749282623    0.1380436608
      6  H         0.1984109228    0.6717821650    1.0958017098
      7  H         0.0708096168    0.8644914683   -0.6545800908
      8  H         1.5687165485   -1.4019988084    0.7727408650
      9  H         1.4328254980   -1.2138964235   -0.9888170892
     10  H        -1.3612746172   -1.2959824566    1.0396362444
     11  H        -1.4483758635   -1.1454807887   -0.8078442417
     12  H         3.8454602565   -0.4329884779   -0.2096299102
     13  H        -2.8108301067    0.6879829024    0.3253062829
   Point Group: c1    Number of degrees of freedom:    33


   Energy is   -915.410163924

              Constraints and their Current Values
                                        Value     Constraint
   Distance(Angs):        2   5             3.601725     3.600000
 Hessian Updated using BFGS Update

   Using Lagrange Multiplier Algorithm


 33 Hessian modes will be used to form the next step
  Hessian Eigenvalues:
    -0.952642    0.045000    0.045000    0.053106    0.067091    0.069244
     0.078526    0.079555    0.085132    0.088301    0.102142    0.102937
     0.105149    0.123349    0.129129    0.130914    0.142263    0.160000
     0.189575    0.219360    0.220717    0.224981    0.235575    0.258307
     0.280298    0.323890    0.331275    0.340366    0.340843    0.344829
     0.344912    0.352646    1.062467

 Minimum Search - Taking P-RFO Step
 Searching for Lamda that Maximizes Along the Constraint modes Only
 Value Taken    Lamda =   0.00018934
 Searching for Lamda that Minimizes Along All other modes
 Value Taken    Lamda =  -0.00192030
 Step Taken.  Stepsize is  0.095442

                             Maximum     Tolerance    Cnvgd?
         Gradient            0.017937       0.000300      NO
         Displacement        0.080774       0.001200      NO
         Energy change      0.001636       0.000001      NO


 New Cartesian Coordinates Obtained by Inverse Iteration

 Displacement from previous Coordinates is:  0.055655
 ----------------------------------------------------------------
             Standard Nuclear Orientation (Angstroms)
    I     Atom           X                Y                Z
 ----------------------------------------------------------------
    1      S       2.8831292150     0.4929620662    -0.0233675159
    2      S      -3.8115933912     1.5299875176     0.3818533486
    3      C       0.1393067443     0.1234117985     0.1484981745
    4      C       1.4487714574    -0.6764826722    -0.0366207799
    5      C      -1.0550211334    -0.7724809744     0.1369697853
    6      H       0.1965247947     0.6739852736     1.0949277410
    7      H       0.0695849819     0.8661572069    -0.6555542298
    8      H       1.5654279964    -1.4008360856     0.7732645096
    9      H       1.4304888280    -1.2132556844    -0.9884129362
   10      H      -1.3637280534    -1.2930411427     1.0388424118
   11      H      -1.4493129679    -1.1440011431    -0.8068487487
   12      H       3.8434047025    -0.4340744845    -0.2084861913
   13      H      -2.7887831744     0.6712763243     0.3238304309
 ----------------------------------------------------------------
 Nuclear Repulsion Energy =   233.0995053142 hartrees
 There are       30 alpha and       28 beta electrons

                       Distance Matrix (Angstroms)
             S (  1)   S (  2)   C (  3)   C (  4)   C (  5)   H (  6)
   S (  2)  6.786673
   C (  3)  2.773926  4.200300
   C (  4)  1.850718  5.719709  1.545574
   C (  5)  4.139575  3.600003  1.493042  2.511638
   H (  6)  2.915681  4.160075  1.096419  2.161547  2.139232
   H (  7)  2.907742  4.071908  1.096828  2.159855  2.139619  1.765568
   H (  8)  2.440785  6.136391  2.178873  1.092800  2.768836  2.506441
   H (  9)  2.439807  6.073091  2.178623  1.092871  2.763789  3.069960
   H ( 10)  4.727990  3.793833  2.249037  3.073584  1.086120  2.511320
   H ( 11)  4.697185  3.760797  2.245604  3.034916  1.088249  3.103322
   H ( 12)  1.347514  7.924963  3.762788  2.413000  4.922239  4.028203
   H ( 13)  5.685326  1.336747  2.984059  4.461306  2.263909  3.083288
             H (  7)   H (  8)   H (  9)   H ( 10)   H ( 11)   H ( 12)
   H (  8)  3.068929
   H (  9)  2.507352  1.776767
   H ( 10)  3.096369  2.943146  3.453082
   H ( 11)  2.524020  3.413413  2.886351  1.853676
   H ( 12)  4.016489  2.662262  2.652842  5.422904  5.373536
   H ( 13)  3.027778  4.843015  4.803717  2.529934  2.523460  6.744707

 
 Applying Cartesian multipole field
    Component          Value
    ---------          -----
     (2,0,0)        1.00000E-11
     (0,2,0)        2.00000E-11
     (0,0,2)       -3.00000E-10
 Nucleus-field energy     =     0.0000000106 hartrees
 Requested basis set is 6-31G(d,p)
 There are 46 shells and 123 basis functions
 A cutoff of  1.0D-14 yielded    964 shell pairs
 There are      6893 function pairs
 Smallest overlap matrix eigenvalue = 5.56E-03
 Guess from superposition of atomic densities
 Warning:  Energy on first SCF cycle will be non-variational
 SAD guess density has 58.000000 electrons

 -----------------------------------------------------------------------
  General SCF calculation program by
  Eric Jon Sundstrom, Paul Horn, Yuezhi Mao, Dmitri Zuev, Alec White,
  David Stuck, Shaama M.S., Shane Yost, Joonho Lee, David Small,
  Daniel Levine, Susi Lehtola, Hugh Burton, Evgeny Epifanovsky
 -----------------------------------------------------------------------
 Exchange:     0.2000 Hartree-Fock + 0.0800 Slater + 0.7200 B88
 Correlation:  0.1900 VWN1RPA + 0.8100 LYP
 Using SG-1 standard quadrature grid
 using 12 threads for integral computing
 -------------------------------------------------------
 OpenMP Integral computing Module                
 Release: version 1.0, May 2013, Q-Chem Inc. Pittsburgh 
 -------------------------------------------------------
 -------------------------------------------------------
 OpenMP BLAS3 based DFT computing Module                
 Release: version 1.0, May 2013, Q-Chem Inc. Pittsburgh 
 -------------------------------------------------------
 A unrestricted SCF calculation will be
 performed using DIIS
 SCF converges when DIIS error is below 1.0e-06
 Alpha HF Exchange    Energy =  -6.82472144778616
 Beta HF Exchange     Energy =  -6.82472144778616
 DFT Correlation      Energy =  -2.69611001171120
 DFT Exchange         Energy = -53.81279979183569
 One-Electron (alpha) Energy = -859.05817638593317
 One-Electron (beta)  Energy = -859.05817638593317
 Total Coulomb        Energy = 639.37232840120737
 ---------------------------------------
  Cycle       Energy         DIIS error
 ---------------------------------------
    1    -915.8028717449      2.61e-02  
 Alpha HF Exchange    Energy =  -6.95231918851682
 Beta HF Exchange     Energy =  -6.76722136577751
 DFT Correlation      Energy =  -2.71292743012733
 DFT Exchange         Energy = -54.42312403015514
 One-Electron (alpha) Energy = -875.84611410689104
 One-Electron (beta)  Energy = -847.93255728222414
 Total Coulomb        Energy = 646.47481567735906
    2    -915.0599424015      3.85e-03  
 Alpha HF Exchange    Energy =  -6.93269983657073
 Beta HF Exchange     Energy =  -6.75972460511980
 DFT Correlation      Energy =  -2.70462814751073
 DFT Exchange         Energy = -54.30798436178186
 One-Electron (alpha) Energy = -874.07408831458349
 One-Electron (beta)  Energy = -847.78747019400373
 Total Coulomb        Energy = 650.57596940376527
    3    -908.8911207309      1.39e-02  
 Alpha HF Exchange    Energy =  -6.90805785112460
 Beta HF Exchange     Energy =  -6.72911420690710
 DFT Correlation      Energy =  -2.69186190757564
 DFT Exchange         Energy = -54.06711702365531
 One-Electron (alpha) Energy = -873.08655344054148
 One-Electron (beta)  Energy = -846.63717247970601
 Total Coulomb        Energy = 641.68472363341186
    4    -915.3356479512      2.86e-03  
 Alpha HF Exchange    Energy =  -6.92612282539631
 Beta HF Exchange     Energy =  -6.74410270063830
 DFT Correlation      Energy =  -2.69989686542064
 DFT Exchange         Energy = -54.20693306793729
 One-Electron (alpha) Energy = -874.22125869590184
 One-Electron (beta)  Energy = -847.63365086585588
 Total Coulomb        Energy = 643.93976794865330
    5    -915.3926917476      1.26e-03  
 Alpha HF Exchange    Energy =  -6.92624204685603
 Beta HF Exchange     Energy =  -6.74351362535006
 DFT Correlation      Energy =  -2.69891531033863
 DFT Exchange         Energy = -54.20225470582668
 One-Electron (alpha) Energy = -874.14493845918298
 One-Electron (beta)  Energy = -847.50910211053747
 Total Coulomb        Energy = 643.72143789988377
    6    -915.4040230334      7.18e-04  
 Alpha HF Exchange    Energy =  -6.92650990923216
 Beta HF Exchange     Energy =  -6.74367268110387
 DFT Correlation      Energy =  -2.69883159180347
 DFT Exchange         Energy = -54.20322968704156
 One-Electron (alpha) Energy = -874.17021080498205
 One-Electron (beta)  Energy = -847.50955647858791
 Total Coulomb        Energy = 643.74359699675813
    7    -915.4089088311      4.47e-04  
 Alpha HF Exchange    Energy =  -6.92811856261651
 Beta HF Exchange     Energy =  -6.74457407415004
 DFT Correlation      Energy =  -2.69917472458785
 DFT Exchange         Energy = -54.21303526890796
 One-Electron (alpha) Energy = -874.22401199046408
 One-Electron (beta)  Energy = -847.53756600404768
 Total Coulomb        Energy = 643.83594978208930
    8    -915.4110255178      1.76e-04  
 Alpha HF Exchange    Energy =  -6.92845857577674
 Beta HF Exchange     Energy =  -6.74487432137419
 DFT Correlation      Energy =  -2.69922341276997
 DFT Exchange         Energy = -54.21556925173146
 One-Electron (alpha) Energy = -874.23998824726607
 One-Electron (beta)  Energy = -847.54604126555796
 Total Coulomb        Energy = 643.86323334918472
    9    -915.4114164004      4.21e-05  
 Alpha HF Exchange    Energy =  -6.92846038879707
 Beta HF Exchange     Energy =  -6.74485655456346
 DFT Correlation      Energy =  -2.69924464101275
 DFT Exchange         Energy = -54.21557713787357
 One-Electron (alpha) Energy = -874.23988343986059
 One-Electron (beta)  Energy = -847.54696497379564
 Total Coulomb        Energy = 643.86404525639227
   10    -915.4114365547      1.52e-05  
 Alpha HF Exchange    Energy =  -6.92846905075324
 Beta HF Exchange     Energy =  -6.74486473343754
 DFT Correlation      Energy =  -2.69925619150977
 DFT Exchange         Energy = -54.21568181144734
 One-Electron (alpha) Energy = -874.23925859207293
 One-Electron (beta)  Energy = -847.54699311405955
 Total Coulomb        Energy = 643.86357836638194
   11    -915.4114398020      2.10e-06  
 Alpha HF Exchange    Energy =  -6.92848057484533
 Beta HF Exchange     Energy =  -6.74488131899165
 DFT Correlation      Energy =  -2.69926473621502
 DFT Exchange         Energy = -54.21580288097894
 One-Electron (alpha) Energy = -874.24062300636444
 One-Electron (beta)  Energy = -847.54865856369815
 Total Coulomb        Energy = 643.86676591292940
   12    -915.4114398433      1.27e-06  
 Alpha HF Exchange    Energy =  -6.92847467584945
 Beta HF Exchange     Energy =  -6.74487523590028
 DFT Correlation      Energy =  -2.69926326734528
 DFT Exchange         Energy = -54.21575703272305
 One-Electron (alpha) Energy = -874.23998187980078
 One-Electron (beta)  Energy = -847.54817058145397
 Total Coulomb        Energy = 643.86557748685186
   13    -915.4114398614      2.89e-07  Convergence criterion met
 ---------------------------------------
 SCF time:   CPU 38.84s  wall 3.00s 
<S^2> =          2.006090497
 Alpha HF Exchange    Energy =  -6.92847467584945
 Beta HF Exchange     Energy =  -6.74487523590028
 DFT Correlation      Energy =  -2.69926326734528
 DFT Exchange         Energy = -54.21575703272305
 One-Electron (alpha) Energy = -874.23998187980078
 One-Electron (beta)  Energy = -847.54817058145397
 Total Coulomb        Energy = 643.86557748685186
 Nuclear repulsion Energy = 233.09950532485618
 SCF   energy in the final basis set =     -915.4114398614
 Total energy in the final basis set =     -915.4114398614
 
 --------------------------------------------------------------
 
                    Orbital Energies (a.u.)
 --------------------------------------------------------------
 
 Alpha MOs
 -- Occupied --
-88.899 -88.878 -10.232 -10.217 -10.210  -7.961  -7.941  -5.932
 -5.922  -5.913  -5.906  -5.902  -5.895  -0.822  -0.750  -0.731
 -0.656  -0.600  -0.492  -0.456  -0.429  -0.420  -0.399  -0.383
 -0.361  -0.333  -0.313  -0.265  -0.241  -0.229
 -- Virtual --
  0.022   0.061   0.076   0.095   0.121   0.130   0.141   0.154
  0.190   0.201   0.249   0.273   0.334   0.337   0.351   0.359
  0.374   0.383   0.386   0.487   0.512   0.514   0.569   0.577
  0.619   0.634   0.686   0.693   0.733   0.736   0.738   0.746
  0.747   0.755   0.823   0.836   0.855   0.864   0.871   0.892
  0.904   0.918   0.974   1.082   1.142   1.144   1.191   1.269
  1.316   1.403   1.521   1.532   1.663   1.672   1.801   1.849
  1.927   1.955   1.982   2.058   2.063   2.067   2.093   2.100
  2.125   2.203   2.208   2.230   2.325   2.341   2.451   2.465
  2.480   2.594   2.597   2.684   2.747   2.763   2.771   2.780
  2.833   2.866   3.196   3.261   3.353   3.363   3.454   3.527
  3.930   3.979   4.231   4.404   4.598
 
 Beta MOs
 -- Occupied --
-88.893 -88.878 -10.230 -10.211 -10.204  -7.955  -7.941  -5.918
 -5.914  -5.910  -5.906  -5.902  -5.895  -0.815  -0.739  -0.690
 -0.640  -0.591  -0.489  -0.453  -0.423  -0.405  -0.387  -0.376
 -0.358  -0.332  -0.250  -0.241
 -- Virtual --
 -0.170  -0.084   0.024   0.066   0.097   0.101   0.123   0.134
  0.147   0.156   0.194   0.205   0.258   0.289   0.345   0.353
  0.363   0.375   0.377   0.386   0.387   0.492   0.516   0.529
  0.572   0.591   0.628   0.643   0.720   0.733   0.735   0.747
  0.749   0.765   0.800   0.806   0.827   0.839   0.857   0.866
  0.878   0.897   0.907   0.930   0.978   1.092   1.146   1.147
  1.195   1.282   1.327   1.430   1.534   1.541   1.663   1.695
  1.810   1.854   1.930   1.987   2.006   2.059   2.065   2.069
  2.093   2.099   2.126   2.205   2.213   2.231   2.327   2.350
  2.465   2.470   2.494   2.597   2.609   2.692   2.748   2.764
  2.776   2.782   2.836   2.870   3.198   3.265   3.355   3.367
  3.460   3.529   3.950   3.979   4.243   4.423   4.603
 --------------------------------------------------------------
 
          Ground-State Mulliken Net Atomic Charges

     Atom                 Charge (a.u.)    Spin (a.u.)
  --------------------------------------------------------
      1 S                    -0.046542       0.020576
      2 S                    -0.083183       1.071680
      3 C                    -0.197970      -0.069449
      4 C                    -0.318460       0.046693
      5 C                    -0.247525       1.017721
      6 H                     0.130120       0.010406
      7 H                     0.131625       0.013742
      8 H                     0.139106      -0.000664
      9 H                     0.138795      -0.000878
     10 H                     0.124944      -0.042528
     11 H                     0.123990      -0.042577
     12 H                     0.058455       0.000345
     13 H                     0.046644      -0.025064
  --------------------------------------------------------
  Sum of atomic charges =     0.000000
  Sum of spin   charges =     2.000000

 -----------------------------------------------------------------
                    Cartesian Multipole Moments
 -----------------------------------------------------------------
    Charge (ESU x 10^10)
                 0.0000
    Dipole Moment (Debye)
         X       0.9127      Y      -2.6479      Z      -0.2310
       Tot       2.8103
    Quadrupole Moments (Debye-Ang)
        XX     -55.8119     XY      -1.0832     YY     -49.7574
        XZ       0.0610     YZ      -0.2606     ZZ     -46.6736
    Octopole Moments (Debye-Ang^2)
       XXX      80.5118    XXY     -40.1432    XYY      15.0525
       YYY     -60.3213    XXZ     -13.2889    XYZ       2.1342
       YYZ      -7.0668    XZZ       0.2294    YZZ     -18.7371
       ZZZ     -17.8464
    Hexadecapole Moments (Debye-Ang^3)
      XXXX   -2200.9511   XXXY     172.8340   XXYY    -419.0696
      XYYY     200.2874   YYYY    -351.5913   XXXZ      70.4476
      XXYZ      -9.6930   XYYZ      26.1224   YYYZ     -25.6728
      XXZZ    -364.0342   XYZZ      52.9473   YYZZ     -66.7716
      XZZZ      62.5639   YZZZ     -20.1186   ZZZZ     -88.5229
 -----------------------------------------------------------------
 Calculating analytic gradient of the SCF energy
 Gradient of SCF Energy
            1           2           3           4           5           6
    1   0.0000187   0.0115907  -0.0002076   0.0000154   0.0002229   0.0000025
    2  -0.0000140  -0.0097024   0.0000533   0.0000090   0.0003428  -0.0000108
    3  -0.0000066  -0.0007574  -0.0002435   0.0000096   0.0013531   0.0000265
            7           8           9          10          11          12
    1   0.0000293  -0.0000052  -0.0000084  -0.0000616  -0.0002913   0.0000127
    2   0.0000045   0.0000048   0.0000033   0.0000427  -0.0002839  -0.0000006
    3  -0.0000020   0.0000065   0.0000071  -0.0000249  -0.0011809   0.0000140
           13
    1  -0.0113179
    2   0.0095513
    3   0.0007986
 Max gradient component =       1.159E-02
 RMS gradient           =       3.407E-03
 Gradient time:  CPU 10.30 s  wall 0.94 s
 Geometry Optimization Parameters
   NAtoms,    NIC,     NZ,  NCons,   NDum,   NFix, NCnnct, MaxDiis
       13      91       0       1       0       0       0       0

 Cartesian Hessian Update
 Hessian Updated using BFGS Update


** CONSTRAINED OPTIMIZATION IN DELOCALIZED INTERNAL COORDINATES **
   Searching for a Minimum

   Optimization Cycle:   3

                       Coordinates (Angstroms)
     ATOM                X               Y               Z
      1  S         2.8831292150    0.4929620662   -0.0233675159
      2  S        -3.8115933912    1.5299875176    0.3818533486
      3  C         0.1393067443    0.1234117985    0.1484981745
      4  C         1.4487714574   -0.6764826722   -0.0366207799
      5  C        -1.0550211334   -0.7724809744    0.1369697853
      6  H         0.1965247947    0.6739852736    1.0949277410
      7  H         0.0695849819    0.8661572069   -0.6555542298
      8  H         1.5654279964   -1.4008360856    0.7732645096
      9  H         1.4304888280   -1.2132556844   -0.9884129362
     10  H        -1.3637280534   -1.2930411427    1.0388424118
     11  H        -1.4493129679   -1.1440011431   -0.8068487487
     12  H         3.8434047025   -0.4340744845   -0.2084861913
     13  H        -2.7887831744    0.6712763243    0.3238304309
   Point Group: c1    Number of degrees of freedom:    33


   Energy is   -915.411439861

              Constraints and their Current Values
                                        Value     Constraint
   Distance(Angs):        2   5             3.600003     3.600000
 Hessian Updated using BFGS Update

   Using Lagrange Multiplier Algorithm


 34 Hessian modes will be used to form the next step
  Hessian Eigenvalues:
    -0.925506    0.045000    0.045000    0.045000    0.051618    0.065276
     0.069244    0.078526    0.079554    0.085130    0.086295    0.102141
     0.102944    0.105102    0.123348    0.126229    0.130914    0.141373
     0.142264    0.160004    0.190165    0.219368    0.220763    0.224983
     0.258307    0.280298    0.323844    0.331268    0.340366    0.340846
     0.344829    0.344912    0.352647    1.095825

 Minimum Search - Taking P-RFO Step
 Searching for Lamda that Maximizes Along the Constraint modes Only
 Value Taken    Lamda =   0.00000163
 Searching for Lamda that Minimizes Along All other modes
 Value Taken    Lamda =  -0.00072927
 Step Taken.  Stepsize is  0.081449

                             Maximum     Tolerance    Cnvgd?
         Gradient            0.007022       0.000300      NO
         Displacement        0.069721       0.001200      NO
         Energy change     -0.001276       0.000001      NO


 New Cartesian Coordinates Obtained by Inverse Iteration

 Displacement from previous Coordinates is:  0.045683
 ----------------------------------------------------------------
             Standard Nuclear Orientation (Angstroms)
    I     Atom           X                Y                Z
 ----------------------------------------------------------------
    1      S       2.8815405503     0.4930113352    -0.0226584035
    2      S      -3.8127558910     1.5331889635     0.3830260587
    3      C       0.1381793375     0.1247559591     0.1483104416
    4      C       1.4470333576    -0.6760964526    -0.0365119057
    5      C      -1.0570959443    -0.7701506162     0.1360649468
    6      H       0.1952311960     0.6753598473     1.0946448343
    7      H       0.0692014415     0.8674786144    -0.6557993232
    8      H       1.5631903328    -1.4006637300     0.7732576381
    9      H       1.4288798362    -1.2127093436    -0.9884173653
   10      H      -1.3649843117    -1.2903613497     1.0385025688
   11      H      -1.4507544901    -1.1431704632    -0.8053918861
   12      H       3.8413443923    -0.4344200719    -0.2080383956
   13      H      -2.7708098072     0.6573853077     0.3219067912
 ----------------------------------------------------------------
 Nuclear Repulsion Energy =   233.0284963246 hartrees
 There are       30 alpha and       28 beta electrons

                       Distance Matrix (Angstroms)
             S (  1)   S (  2)   C (  3)   C (  4)   C (  5)   H (  6)
   S (  2)  6.786763
   C (  3)  2.773242  4.201031
   C (  4)  1.850626  5.720344  1.545517
   C (  5)  4.139279  3.600003  1.493215  2.511831
   H (  6)  2.915112  4.160076  1.096343  2.161703  2.139322
   H (  7)  2.906948  4.073318  1.096808  2.159760  2.139492  1.765460
   H (  8)  2.440806  6.136821  2.179018  1.092802  2.769379  2.506886
   H (  9)  2.439753  6.074172  2.178732  1.092889  2.764126  3.070153
   H ( 10)  4.726463  3.793899  2.248222  3.072527  1.086190  2.510276
   H ( 11)  4.696652  3.762218  2.245417  3.034223  1.086486  3.102654
   H ( 12)  1.347486  7.925030  3.762060  2.412582  4.921975  4.027746
   H ( 13)  5.665228  1.362505  2.962439  4.438112  2.238127  3.065101
             H (  7)   H (  8)   H (  9)   H ( 10)   H ( 11)   H ( 12)
   H (  8)  3.068986
   H (  9)  2.507298  1.776757
   H ( 10)  3.095775  2.942232  3.452551
   H ( 11)  2.524946  3.412082  2.886283  1.851747
   H ( 12)  4.015531  2.662058  2.652303  5.421472  5.372659
   H ( 13)  3.010932  4.819008  4.780334  2.506705  2.501070  6.722608

 
 Applying Cartesian multipole field
    Component          Value
    ---------          -----
     (2,0,0)        1.00000E-11
     (0,2,0)        2.00000E-11
     (0,0,2)       -3.00000E-10
 Nucleus-field energy     =     0.0000000106 hartrees
 Requested basis set is 6-31G(d,p)
 There are 46 shells and 123 basis functions
 A cutoff of  1.0D-14 yielded    965 shell pairs
 There are      6911 function pairs
 Smallest overlap matrix eigenvalue = 5.55E-03
 Guess from superposition of atomic densities
 Warning:  Energy on first SCF cycle will be non-variational
 SAD guess density has 58.000000 electrons

 -----------------------------------------------------------------------
  General SCF calculation program by
  Eric Jon Sundstrom, Paul Horn, Yuezhi Mao, Dmitri Zuev, Alec White,
  David Stuck, Shaama M.S., Shane Yost, Joonho Lee, David Small,
  Daniel Levine, Susi Lehtola, Hugh Burton, Evgeny Epifanovsky
 -----------------------------------------------------------------------
 Exchange:     0.2000 Hartree-Fock + 0.0800 Slater + 0.7200 B88
 Correlation:  0.1900 VWN1RPA + 0.8100 LYP
 Using SG-1 standard quadrature grid
 using 12 threads for integral computing
 -------------------------------------------------------
 OpenMP Integral computing Module                
 Release: version 1.0, May 2013, Q-Chem Inc. Pittsburgh 
 -------------------------------------------------------
 -------------------------------------------------------
 OpenMP BLAS3 based DFT computing Module                
 Release: version 1.0, May 2013, Q-Chem Inc. Pittsburgh 
 -------------------------------------------------------
 A unrestricted SCF calculation will be
 performed using DIIS
 SCF converges when DIIS error is below 1.0e-06
 Alpha HF Exchange    Energy =  -6.82375427712414
 Beta HF Exchange     Energy =  -6.82375427712414
 DFT Correlation      Energy =  -2.69596505038421
 DFT Exchange         Energy = -53.81028759088439
 One-Electron (alpha) Energy = -858.99741748010149
 One-Electron (beta)  Energy = -858.99741748010149
 Total Coulomb        Energy = 639.32693662388317
 ---------------------------------------
  Cycle       Energy         DIIS error
 ---------------------------------------
    1    -915.7931631967      2.60e-02  
 Alpha HF Exchange    Energy =  -6.95134705153639
 Beta HF Exchange     Energy =  -6.76596743067712
 DFT Correlation      Energy =  -2.71274610405811
 DFT Exchange         Energy = -54.41612707595144
 One-Electron (alpha) Energy = -875.76674202689264
 One-Electron (beta)  Energy = -847.85129599352047
 Total Coulomb        Energy = 646.37459189039544
    2    -915.0611374571      3.85e-03  
 Alpha HF Exchange    Energy =  -6.93207229070457
 Beta HF Exchange     Energy =  -6.75843922696032
 DFT Correlation      Energy =  -2.70476595291296
 DFT Exchange         Energy = -54.30269602929596
 One-Electron (alpha) Energy = -874.01588163350073
 One-Electron (beta)  Energy = -847.73875110335496
 Total Coulomb        Energy = 650.49479257003122
    3    -908.9293173315      1.40e-02  
 Alpha HF Exchange    Energy =  -6.90715275528215
 Beta HF Exchange     Energy =  -6.72826398207573
 DFT Correlation      Energy =  -2.69168497231657
 DFT Exchange         Energy = -54.06144756634541
 One-Electron (alpha) Energy = -873.01427505735592
 One-Electron (beta)  Energy = -846.57160708065749
 Total Coulomb        Energy = 641.61116345312280
    4    -915.3347716257      2.88e-03  
 Alpha HF Exchange    Energy =  -6.92533062987915
 Beta HF Exchange     Energy =  -6.74318590535097
 DFT Correlation      Energy =  -2.69973189984167
 DFT Exchange         Energy = -54.20138212573406
 One-Electron (alpha) Energy = -874.15171433451201
 One-Electron (beta)  Energy = -847.56356870576928
 Total Coulomb        Energy = 643.86397815554517
    5    -915.3924391104      1.28e-03  
 Alpha HF Exchange    Energy =  -6.92543869830222
 Beta HF Exchange     Energy =  -6.74259500642607
 DFT Correlation      Energy =  -2.69874258325600
 DFT Exchange         Energy = -54.19659046597462
 One-Electron (alpha) Energy = -874.07641641675343
 One-Electron (beta)  Energy = -847.43813108857341
 Total Coulomb        Energy = 643.64522586563430
    6    -915.4041920585      7.27e-04  
 Alpha HF Exchange    Energy =  -6.92574176191737
 Beta HF Exchange     Energy =  -6.74277310591929
 DFT Correlation      Energy =  -2.69866347452016
 DFT Exchange         Energy = -54.19776180704030
 One-Electron (alpha) Energy = -874.10282431977316
 One-Electron (beta)  Energy = -847.43777577328160
 Total Coulomb        Energy = 643.66766633263762
    7    -915.4093775746      4.41e-04  
 Alpha HF Exchange    Energy =  -6.92736260218351
 Beta HF Exchange     Energy =  -6.74370353197894
 DFT Correlation      Energy =  -2.69901421571687
 DFT Exchange         Energy = -54.20774712638547
 One-Electron (alpha) Energy = -874.15769829880128
 One-Electron (beta)  Energy = -847.46686128839679
 Total Coulomb        Energy = 643.76242725533154
    8    -915.4114634729      1.70e-04  
 Alpha HF Exchange    Energy =  -6.92767167788560
 Beta HF Exchange     Energy =  -6.74399752266058
 DFT Correlation      Energy =  -2.69906011641006
 DFT Exchange         Energy = -54.21014643064485
 One-Electron (alpha) Energy = -874.17276821995688
 One-Electron (beta)  Energy = -847.47532894592553
 Total Coulomb        Energy = 643.78864373859562
    9    -915.4118328397      4.03e-05  
 Alpha HF Exchange    Energy =  -6.92766287950579
 Beta HF Exchange     Energy =  -6.74397505453093
 DFT Correlation      Energy =  -2.69907908779446
 DFT Exchange         Energy = -54.21009880001466
 One-Electron (alpha) Energy = -874.17183876649915
 One-Electron (beta)  Energy = -847.47583325511937
 Total Coulomb        Energy = 643.78814044341300
   10    -915.4118510649      1.44e-05  
 Alpha HF Exchange    Energy =  -6.92767043652711
 Beta HF Exchange     Energy =  -6.74398833767702
 DFT Correlation      Energy =  -2.69909198382932
 DFT Exchange         Energy = -54.21022194219035
 One-Electron (alpha) Energy = -874.17142741300643
 One-Electron (beta)  Energy = -847.47636681955112
 Total Coulomb        Energy = 643.78841653781160
   11    -915.4118540598      1.91e-06  
 Alpha HF Exchange    Energy =  -6.92768009210204
 Beta HF Exchange     Energy =  -6.74400309681261
 DFT Correlation      Energy =  -2.69909998253487
 DFT Exchange         Energy = -54.21032916365157
 One-Electron (alpha) Energy = -874.17256425325365
 One-Electron (beta)  Energy = -847.47788183632713
 Total Coulomb        Energy = 643.79120798969132
   12    -915.4118540998      1.14e-06  
 Alpha HF Exchange    Energy =  -6.92767362854388
 Beta HF Exchange     Energy =  -6.74399705082693
 DFT Correlation      Energy =  -2.69909831026318
 DFT Exchange         Energy = -54.21028101159798
 One-Electron (alpha) Energy = -874.17188715753377
 One-Electron (beta)  Energy = -847.47738424815543
 Total Coulomb        Energy = 643.78997095608270
   13    -915.4118541157      3.17e-07  Convergence criterion met
 ---------------------------------------
 SCF time:   CPU 38.49s  wall 3.00s 
<S^2> =          2.006168089
 Alpha HF Exchange    Energy =  -6.92767362854388
 Beta HF Exchange     Energy =  -6.74399705082693
 DFT Correlation      Energy =  -2.69909831026318
 DFT Exchange         Energy = -54.21028101159798
 One-Electron (alpha) Energy = -874.17188715753377
 One-Electron (beta)  Energy = -847.47738424815543
 Total Coulomb        Energy = 643.78997095608270
 Nuclear repulsion Energy = 233.02849633518153
 SCF   energy in the final basis set =     -915.4118541157
 Total energy in the final basis set =     -915.4118541157
 
 --------------------------------------------------------------
 
                    Orbital Energies (a.u.)
 --------------------------------------------------------------
 
 Alpha MOs
 -- Occupied --
-88.899 -88.879 -10.232 -10.218 -10.210  -7.961  -7.941  -5.932
 -5.922  -5.913  -5.906  -5.903  -5.896  -0.822  -0.751  -0.727
 -0.657  -0.600  -0.493  -0.457  -0.429  -0.420  -0.397  -0.383
 -0.361  -0.334  -0.312  -0.264  -0.242  -0.230
 -- Virtual --
  0.021   0.058   0.073   0.095   0.120   0.130   0.141   0.154
  0.190   0.201   0.249   0.276   0.334   0.338   0.351   0.359
  0.374   0.383   0.385   0.487   0.511   0.514   0.569   0.576
  0.619   0.634   0.687   0.695   0.733   0.736   0.740   0.746
  0.748   0.755   0.823   0.836   0.855   0.864   0.871   0.892
  0.904   0.917   0.974   1.079   1.140   1.143   1.180   1.270
  1.316   1.403   1.520   1.533   1.662   1.672   1.800   1.849
  1.926   1.954   1.981   2.056   2.061   2.064   2.093   2.096
  2.124   2.203   2.208   2.230   2.325   2.341   2.448   2.464
  2.480   2.594   2.597   2.684   2.735   2.748   2.763   2.780
  2.832   2.866   3.196   3.262   3.353   3.363   3.455   3.526
  3.929   3.978   4.232   4.405   4.599
 
 Beta MOs
 -- Occupied --
-88.893 -88.878 -10.230 -10.211 -10.205  -7.955  -7.941  -5.918
 -5.914  -5.910  -5.906  -5.902  -5.895  -0.816  -0.739  -0.686
 -0.641  -0.591  -0.489  -0.453  -0.424  -0.405  -0.384  -0.376
 -0.359  -0.332  -0.249  -0.241
 -- Virtual --
 -0.169  -0.086   0.024   0.065   0.094   0.101   0.122   0.134
  0.147   0.156   0.194   0.205   0.257   0.293   0.345   0.353
  0.363   0.375   0.377   0.386   0.387   0.492   0.516   0.528
  0.572   0.590   0.627   0.642   0.721   0.733   0.735   0.750
  0.750   0.766   0.801   0.806   0.827   0.839   0.856   0.866
  0.878   0.897   0.907   0.930   0.978   1.090   1.143   1.146
  1.182   1.282   1.327   1.429   1.533   1.541   1.663   1.694
  1.809   1.853   1.930   1.986   2.005   2.057   2.062   2.065
  2.093   2.095   2.125   2.205   2.213   2.231   2.327   2.350
  2.462   2.470   2.493   2.596   2.610   2.692   2.739   2.750
  2.764   2.782   2.835   2.870   3.198   3.265   3.355   3.367
  3.461   3.529   3.949   3.979   4.243   4.424   4.603
 --------------------------------------------------------------
 
          Ground-State Mulliken Net Atomic Charges

     Atom                 Charge (a.u.)    Spin (a.u.)
  --------------------------------------------------------
      1 S                    -0.046105       0.020456
      2 S                    -0.084655       1.079003
      3 C                    -0.197721      -0.069036
      4 C                    -0.318714       0.046502
      5 C                    -0.247578       1.012072
      6 H                     0.130729       0.010326
      7 H                     0.131843       0.013685
      8 H                     0.139213      -0.000666
      9 H                     0.138892      -0.000886
     10 H                     0.125712      -0.042199
     11 H                     0.125326      -0.042171
     12 H                     0.058521       0.000350
     13 H                     0.044538      -0.027437
  --------------------------------------------------------
  Sum of atomic charges =     0.000000
  Sum of spin   charges =     2.000000

 -----------------------------------------------------------------
                    Cartesian Multipole Moments
 -----------------------------------------------------------------
    Charge (ESU x 10^10)
                 0.0000
    Dipole Moment (Debye)
         X       0.9513      Y      -2.6697      Z      -0.2369
       Tot       2.8440
    Quadrupole Moments (Debye-Ang)
        XX     -55.9164     XY      -1.0372     YY     -49.7520
        XZ      -0.0140     YZ      -0.3753     ZZ     -46.7091
    Octopole Moments (Debye-Ang^2)
       XXX      81.2473    XXY     -40.2596    XYY      15.1278
       YYY     -60.5325    XXZ     -12.6574    XYZ       2.4260
       YYZ      -7.4418    XZZ       0.3589    YZZ     -18.9252
       ZZZ     -17.9495
    Hexadecapole Moments (Debye-Ang^3)
      XXXX   -2202.2462   XXXY     173.5924   XXYY    -418.9708
      XYYY     200.7009   YYYY    -352.0086   XXXZ      66.5721
      XXYZ     -10.3296   XYYZ      27.2209   YYYZ     -26.7261
      XXZZ    -363.8273   XYZZ      53.4554   YYZZ     -67.1676
      XZZZ      62.6166   YZZZ     -20.4736   ZZZZ     -88.6332
 -----------------------------------------------------------------
 Calculating analytic gradient of the SCF energy
 Gradient of SCF Energy
            1           2           3           4           5           6
    1  -0.0000002   0.0018621  -0.0001106   0.0000312   0.0001183   0.0000198
    2   0.0000101  -0.0015631   0.0000639   0.0000128  -0.0002962   0.0000130
    3  -0.0000051  -0.0002100  -0.0000647   0.0000180   0.0000389   0.0000081
            7           8           9          10          11          12
    1   0.0000025  -0.0000023  -0.0000002  -0.0000734   0.0000108  -0.0000132
    2  -0.0000038  -0.0000027  -0.0000058   0.0000874   0.0000727  -0.0000063
    3   0.0000059  -0.0000034   0.0000009  -0.0000038  -0.0000804   0.0000140
           13
    1  -0.0018446
    2   0.0016179
    3   0.0002817
 Max gradient component =       1.862E-03
 RMS gradient           =       5.594E-04
 Gradient time:  CPU 10.45 s  wall 0.93 s
 Geometry Optimization Parameters
   NAtoms,    NIC,     NZ,  NCons,   NDum,   NFix, NCnnct, MaxDiis
       13      91       0       1       0       0       0       0

 Cartesian Hessian Update
 Hessian Updated using BFGS Update


** CONSTRAINED OPTIMIZATION IN DELOCALIZED INTERNAL COORDINATES **
   Searching for a Minimum

   Optimization Cycle:   4

                       Coordinates (Angstroms)
     ATOM                X               Y               Z
      1  S         2.8815405503    0.4930113352   -0.0226584035
      2  S        -3.8127558910    1.5331889635    0.3830260587
      3  C         0.1381793375    0.1247559591    0.1483104416
      4  C         1.4470333576   -0.6760964526   -0.0365119057
      5  C        -1.0570959443   -0.7701506162    0.1360649468
      6  H         0.1952311960    0.6753598473    1.0946448343
      7  H         0.0692014415    0.8674786144   -0.6557993232
      8  H         1.5631903328   -1.4006637300    0.7732576381
      9  H         1.4288798362   -1.2127093436   -0.9884173653
     10  H        -1.3649843117   -1.2903613497    1.0385025688
     11  H        -1.4507544901   -1.1431704632   -0.8053918861
     12  H         3.8413443923   -0.4344200719   -0.2080383956
     13  H        -2.7708098072    0.6573853077    0.3219067912
   Point Group: c1    Number of degrees of freedom:    33


   Energy is   -915.411854116

              Constraints and their Current Values
                                        Value     Constraint
   Distance(Angs):        2   5             3.600003     3.600000
 Hessian Updated using BFGS Update

   Using Lagrange Multiplier Algorithm


 34 Hessian modes will be used to form the next step
  Hessian Eigenvalues:
    -0.932422    0.044997    0.045000    0.045000    0.050951    0.063464
     0.069245    0.078527    0.079554    0.084524    0.085140    0.102133
     0.102950    0.105024    0.119532    0.123352    0.130905    0.133793
     0.142263    0.160006    0.190249    0.219372    0.220761    0.224984
     0.258307    0.280298    0.323979    0.331268    0.340366    0.340846
     0.344829    0.344912    0.352647    1.083283

 Minimum Search - Taking P-RFO Step
 Searching for Lamda that Maximizes Along the Constraint modes Only
 Value Taken    Lamda =   0.00000089
[...]
   H ( 11)  4.696334  3.762466  2.245772  3.033303  1.086448  3.102921
   H ( 12)  1.347502  7.929134  3.762137  2.412709  4.921754  4.028274
   H ( 13)  5.664229  1.368469  2.960053  4.434548  2.232129  3.064447
             H (  7)   H (  8)   H (  9)   H ( 10)   H ( 11)   H ( 12)
   H (  8)  3.069038
   H (  9)  2.507250  1.776787
   H ( 10)  3.095830  2.939716  3.450679
   H ( 11)  2.526086  3.410569  2.885024  1.851373
   H ( 12)  4.015616  2.662311  2.652289  5.419571  5.371777
   H ( 13)  3.010470  4.814529  4.775696  2.502146  2.495603  6.720420

 
 Applying Cartesian multipole field
    Component          Value
    ---------          -----
     (2,0,0)        1.00000E-11
     (0,2,0)        2.00000E-11
     (0,0,2)       -3.00000E-10
 Nucleus-field energy     =     0.0000000106 hartrees
 Requested basis set is 6-31G(d,p)
 There are 46 shells and 123 basis functions
 A cutoff of  1.0D-14 yielded    965 shell pairs
 There are      6911 function pairs
 Smallest overlap matrix eigenvalue = 5.55E-03
 Guess from superposition of atomic densities
 Warning:  Energy on first SCF cycle will be non-variational
 SAD guess density has 58.000000 electrons

 -----------------------------------------------------------------------
  General SCF calculation program by
  Eric Jon Sundstrom, Paul Horn, Yuezhi Mao, Dmitri Zuev, Alec White,
  David Stuck, Shaama M.S., Shane Yost, Joonho Lee, David Small,
  Daniel Levine, Susi Lehtola, Hugh Burton, Evgeny Epifanovsky
 -----------------------------------------------------------------------
 Exchange:     0.2000 Hartree-Fock + 0.0800 Slater + 0.7200 B88
 Correlation:  0.1900 VWN1RPA + 0.8100 LYP
 Using SG-1 standard quadrature grid
 using 12 threads for integral computing
 -------------------------------------------------------
 OpenMP Integral computing Module                
 Release: version 1.0, May 2013, Q-Chem Inc. Pittsburgh 
 -------------------------------------------------------
 -------------------------------------------------------
 OpenMP BLAS3 based DFT computing Module                
 Release: version 1.0, May 2013, Q-Chem Inc. Pittsburgh 
 -------------------------------------------------------
 A unrestricted SCF calculation will be
 performed using DIIS
 SCF converges when DIIS error is below 1.0e-06
 Alpha HF Exchange    Energy =  -6.82351520179709
 Beta HF Exchange     Energy =  -6.82351520179709
 DFT Correlation      Energy =  -2.69592440459454
 DFT Exchange         Energy = -53.80967389681506
 One-Electron (alpha) Energy = -858.94925934836431
 One-Electron (beta)  Energy = -858.94925934836431
 Total Coulomb        Energy = 639.28241164943393
 ---------------------------------------
  Cycle       Energy         DIIS error
 ---------------------------------------
    1    -915.7908166250      2.60e-02  
 Alpha HF Exchange    Energy =  -6.95110978414489
 Beta HF Exchange     Energy =  -6.76562004096664
 DFT Correlation      Energy =  -2.71270342241271
 DFT Exchange         Energy = -54.41438253822388
 One-Electron (alpha) Energy = -875.71328502446488
 One-Electron (beta)  Energy = -847.79894467811789
 Total Coulomb        Energy = 646.31658044351479
    2    -915.0615459175      3.85e-03  
 Alpha HF Exchange    Energy =  -6.93190871580532
 Beta HF Exchange     Energy =  -6.75804618843142
 DFT Correlation      Energy =  -2.70479712237021
 DFT Exchange         Energy = -54.30116094818698
 One-Electron (alpha) Energy = -873.96882410747730
 One-Electron (beta)  Energy = -847.69469380605460
 Total Coulomb        Energy = 650.44104503544179
    3    -908.9404667256      1.40e-02  
 Alpha HF Exchange    Energy =  -6.90693218908074
 Beta HF Exchange     Energy =  -6.72804831068041
 DFT Correlation      Energy =  -2.69163508898471
 DFT Exchange         Energy = -54.06004616321430
 One-Electron (alpha) Energy = -872.96220247373731
 One-Electron (beta)  Energy = -846.52274734483399
 Total Coulomb        Energy = 641.55924301973448
    4    -915.3344494235      2.88e-03  
 Alpha HF Exchange    Energy =  -6.92514459054433
 Beta HF Exchange     Energy =  -6.74295776210417
 DFT Correlation      Energy =  -2.69968754123575
 DFT Exchange         Energy = -54.20005087798823
 One-Electron (alpha) Energy = -874.10088352396929
 One-Electron (beta)  Energy = -847.51398308905323
 Total Coulomb        Energy = 643.81250108044310
    5    -915.3922871772      1.28e-03  
 Alpha HF Exchange    Energy =  -6.92524813985142
 Beta HF Exchange     Energy =  -6.74236458101429
 DFT Correlation      Energy =  -2.69869474636160
 DFT Exchange         Energy = -54.19521248863644
 One-Electron (alpha) Energy = -874.02565393679663
 One-Electron (beta)  Energy = -847.38808555502726
 Total Coulomb        Energy = 643.59318259606721
    6    -915.4041577243      7.29e-04  
 Alpha HF Exchange    Energy =  -6.92556192518913
 Beta HF Exchange     Energy =  -6.74254896211735
 DFT Correlation      Energy =  -2.69861705687127
 DFT Exchange         Energy = -54.19644511567738
 One-Electron (alpha) Energy = -874.05242795724826
 One-Electron (beta)  Energy = -847.38757477056458
 Total Coulomb        Energy = 643.61583671429639
    7    -915.4094199461      4.39e-04  
 Alpha HF Exchange    Energy =  -6.92718365331547
 Beta HF Exchange     Energy =  -6.74348613619713
 DFT Correlation      Energy =  -2.69896950544377
 DFT Exchange         Energy = -54.20646533769103
 One-Electron (alpha) Energy = -874.10749958286181
 One-Electron (beta)  Energy = -847.41695865781253
 Total Coulomb        Energy = 643.71115677791170
    8    -915.4114869681      1.68e-04  
 Alpha HF Exchange    Energy =  -6.92748332885039
 Beta HF Exchange     Energy =  -6.74377746468429
 DFT Correlation      Energy =  -2.69901428163371
 DFT Exchange         Energy = -54.20881968124487
 One-Electron (alpha) Energy = -874.12223101350628
 One-Electron (beta)  Energy = -847.42537108427041
 Total Coulomb        Energy = 643.73692949326733
    9    -915.4118482336      3.96e-05  
 Alpha HF Exchange    Energy =  -6.92747190033028
 Beta HF Exchange     Energy =  -6.74375395823109
 DFT Correlation      Energy =  -2.69903269546430
 DFT Exchange         Energy = -54.20875846213780
 One-Electron (alpha) Energy = -874.12110869126070
 One-Electron (beta)  Energy = -847.42579137886855
 Total Coulomb        Energy = 643.73613214558429
   10    -915.4118658134      1.41e-05  
 Alpha HF Exchange    Energy =  -6.92747894714446
 Beta HF Exchange     Energy =  -6.74376833200528
 DFT Correlation      Energy =  -2.69904581514127
 DFT Exchange         Energy = -54.20888432400459
 One-Electron (alpha) Energy = -874.12073628827682
 One-Electron (beta)  Energy = -847.42644142704523
 Total Coulomb        Energy = 643.73656729346953
   11    -915.4118687129      1.86e-06  
 Alpha HF Exchange    Energy =  -6.92748809999207
 Beta HF Exchange     Energy =  -6.74378257195483
 DFT Correlation      Energy =  -2.69905364965839
 DFT Exchange         Energy = -54.20898768206416
 One-Electron (alpha) Energy = -874.12180854912481
 One-Electron (beta)  Energy = -847.42791145476428
 Total Coulomb        Energy = 643.73924412707447
   12    -915.4118687532      1.09e-06  
 Alpha HF Exchange    Energy =  -6.92748151092955
 Beta HF Exchange     Energy =  -6.74377658217824
 DFT Correlation      Energy =  -2.69905194109994
 DFT Exchange         Energy = -54.20893919008272
 One-Electron (alpha) Energy = -874.12112726278315
 One-Electron (beta)  Energy = -847.42741683715280
 Total Coulomb        Energy = 643.73800542874824
   13    -915.4118687682      3.23e-07  Convergence criterion met
 ---------------------------------------
 SCF time:   CPU 38.00s  wall 4.00s 
<S^2> =          2.006188556
 Alpha HF Exchange    Energy =  -6.92748151092955
 Beta HF Exchange     Energy =  -6.74377658217824
 DFT Correlation      Energy =  -2.69905194109994
 DFT Exchange         Energy = -54.20893919008272
 One-Electron (alpha) Energy = -874.12112726278315
 One-Electron (beta)  Energy = -847.42741683715280
 Total Coulomb        Energy = 643.73800542874824
 Nuclear repulsion Energy = 232.97791912727578
 SCF   energy in the final basis set =     -915.4118687682
 Total energy in the final basis set =     -915.4118687682
 
 --------------------------------------------------------------
 
                    Orbital Energies (a.u.)
 --------------------------------------------------------------
 
 Alpha MOs
 -- Occupied --
-88.899 -88.879 -10.232 -10.218 -10.210  -7.961  -7.941  -5.932
 -5.922  -5.913  -5.906  -5.903  -5.896  -0.823  -0.751  -0.727
 -0.657  -0.600  -0.493  -0.457  -0.429  -0.420  -0.397  -0.383
 -0.361  -0.334  -0.312  -0.264  -0.242  -0.230
 -- Virtual --
  0.021   0.058   0.073   0.095   0.120   0.130   0.141   0.154
  0.190   0.201   0.248   0.277   0.334   0.338   0.351   0.359
  0.374   0.383   0.385   0.486   0.511   0.514   0.569   0.576
  0.619   0.634   0.688   0.696   0.733   0.736   0.740   0.746
  0.748   0.755   0.823   0.836   0.855   0.864   0.871   0.892
  0.904   0.917   0.973   1.078   1.140   1.142   1.178   1.270
  1.316   1.402   1.521   1.533   1.662   1.672   1.800   1.849
  1.926   1.954   1.982   2.055   2.061   2.064   2.093   2.095
  2.124   2.203   2.208   2.230   2.325   2.340   2.448   2.464
  2.479   2.594   2.597   2.685   2.728   2.748   2.763   2.781
  2.832   2.866   3.196   3.261   3.353   3.362   3.455   3.526
  3.929   3.978   4.232   4.405   4.599
 
 Beta MOs
 -- Occupied --
-88.894 -88.879 -10.230 -10.211 -10.205  -7.955  -7.941  -5.918
 -5.914  -5.910  -5.906  -5.902  -5.896  -0.816  -0.739  -0.685
 -0.641  -0.592  -0.489  -0.453  -0.424  -0.405  -0.384  -0.376
 -0.359  -0.332  -0.249  -0.241
 -- Virtual --
 -0.169  -0.087   0.024   0.065   0.093   0.100   0.122   0.134
  0.147   0.156   0.194   0.205   0.257   0.293   0.345   0.353
  0.363   0.375   0.377   0.386   0.387   0.492   0.516   0.528
  0.572   0.590   0.627   0.642   0.721   0.733   0.735   0.750
  0.751   0.766   0.801   0.806   0.827   0.838   0.856   0.866
  0.878   0.897   0.907   0.930   0.978   1.089   1.142   1.146
  1.180   1.283   1.327   1.428   1.534   1.542   1.663   1.694
  1.808   1.853   1.930   1.986   2.005   2.056   2.061   2.064
  2.093   2.094   2.125   2.205   2.213   2.230   2.327   2.349
  2.461   2.470   2.493   2.596   2.610   2.692   2.732   2.749
  2.764   2.783   2.835   2.869   3.198   3.265   3.355   3.366
  3.461   3.529   3.949   3.979   4.243   4.424   4.603
 --------------------------------------------------------------
 
          Ground-State Mulliken Net Atomic Charges

     Atom                 Charge (a.u.)    Spin (a.u.)
  --------------------------------------------------------
      1 S                    -0.046016       0.020463
      2 S                    -0.085077       1.080882
      3 C                    -0.197655      -0.068881
      4 C                    -0.318790       0.046439
      5 C                    -0.247496       1.010515
      6 H                     0.130885       0.010290
      7 H                     0.131903       0.013634
      8 H                     0.139241      -0.000671
      9 H                     0.138932      -0.000889
     10 H                     0.125870      -0.042068
     11 H                     0.125595      -0.042026
     12 H                     0.058543       0.000358
     13 H                     0.044065      -0.028046
  --------------------------------------------------------
  Sum of atomic charges =    -0.000000
  Sum of spin   charges =     2.000000

 -----------------------------------------------------------------
                    Cartesian Multipole Moments
 -----------------------------------------------------------------
    Charge (ESU x 10^10)
                 0.0000
    Dipole Moment (Debye)
         X       0.9630      Y      -2.6736      Z      -0.2391
       Tot       2.8518
    Quadrupole Moments (Debye-Ang)
        XX     -55.9724     XY      -1.0290     YY     -49.7400
        XZ      -0.0293     YZ      -0.3995     ZZ     -46.7199
    Octopole Moments (Debye-Ang^2)
       XXX      81.5471    XXY     -40.2673    XYY      15.1939
       YYY     -60.4490    XXZ     -12.5418    XYZ       2.4974
       YYZ      -7.5263    XZZ       0.4228    YZZ     -18.9278
       ZZZ     -17.9819
    Hexadecapole Moments (Debye-Ang^3)
      XXXX   -2206.0028   XXXY     173.6509   XXYY    -419.3454
      XYYY     200.8523   YYYY    -351.1391   XXXZ      65.7567
      XXYZ     -10.4544   XYYZ      27.4890   YYYZ     -26.9173
      XXZZ    -364.3081   XYZZ      53.6017   YYZZ     -67.1129
      XZZZ      62.6762   YZZZ     -20.5210   ZZZZ     -88.6672
 -----------------------------------------------------------------
 Calculating analytic gradient of the SCF energy
 Gradient of SCF Energy
            1           2           3           4           5           6
    1  -0.0000037  -0.0001313  -0.0000668   0.0000070   0.0001864   0.0000011
    2   0.0000003   0.0001267   0.0000680   0.0000042  -0.0002874   0.0000062
    3  -0.0000025  -0.0000959   0.0000181  -0.0000001  -0.0001012  -0.0000039
            7           8           9          10          11          12
    1   0.0000018  -0.0000012  -0.0000011  -0.0000522  -0.0000106  -0.0000004
    2   0.0000038  -0.0000023  -0.0000021   0.0000708   0.0000369  -0.0000051
    3  -0.0000014   0.0000022   0.0000032   0.0000135  -0.0000157   0.0000117
           13
    1   0.0000711
    2  -0.0000200
    3   0.0001722
 Max gradient component =       2.874E-04
 RMS gradient           =       7.588E-05
 Gradient time:  CPU 10.38 s  wall 0.93 s
 Geometry Optimization Parameters
   NAtoms,    NIC,     NZ,  NCons,   NDum,   NFix, NCnnct, MaxDiis
       13      91       0       1       0       0       0       0

 Cartesian Hessian Update
 Hessian Updated using BFGS Update


** CONSTRAINED OPTIMIZATION IN DELOCALIZED INTERNAL COORDINATES **
   Searching for a Minimum

   Optimization Cycle:   6

                       Coordinates (Angstroms)
     ATOM                X               Y               Z
      1  S         2.8825552854    0.4913332359   -0.0224121491
      2  S        -3.8168783036    1.5310450072    0.3832170231
      3  C         0.1387555602    0.1264326716    0.1484377099
      4  C         1.4465998553   -0.6759939860   -0.0365001272
      5  C        -1.0572587833   -0.7675286573    0.1361152452
      6  H         0.1960527774    0.6767897693    1.0948490473
      7  H         0.0705487563    0.8692990764   -0.6556126363
      8  H         1.5618924766   -1.4008344051    0.7731578470
      9  H         1.4277831489   -1.2123825084   -0.9885094982
     10  H        -1.3636647815   -1.2886695624    1.0386033215
     11  H        -1.4505307396   -1.1419538037   -0.8049014544
     12  H         3.8412902884   -0.4371035068   -0.2084056409
     13  H        -2.7689455405    0.6531746693    0.3208573121
   Point Group: c1    Number of degrees of freedom:    33


   Energy is   -915.411868768

              Constraints and their Current Values
                                        Value     Constraint
   Distance(Angs):        2   5             3.600000     3.600000
 Hessian Updated using BFGS Update

 32 Hessian modes will be used to form the next step
  Hessian Eigenvalues:
     0.021165    0.045000    0.045002    0.045110    0.053253    0.069234
     0.078460    0.079555    0.081164    0.085134    0.101604    0.102221
     0.105109    0.123348    0.128618    0.130928    0.142262    0.159247
     0.165249    0.199395    0.220145    0.220983    0.225141    0.258308
     0.280342    0.322877    0.331282    0.340369    0.340850    0.344832
     0.344913    0.352585

 Minimum Search - Taking Simple RFO Step
 Searching for Lamda that Minimizes Along All modes
 Value Taken    Lamda =  -0.00000120
 Step Taken.  Stepsize is  0.007215

                             Maximum     Tolerance    Cnvgd?
         Gradient           0.000089      0.000300     YES
         Displacement       0.004167      0.001200      NO
         Energy change     -0.000001      0.000001     YES


                       Distance Matrix (Angstroms)
             S (  1)   S (  2)   C (  3)   C (  4)   C (  5)   H (  6)
   S (  2)  6.791756
   C (  3)  2.773225  4.204176
   C (  4)  1.850627  5.722883  1.545493
   C (  5)  4.139082  3.600000  1.493241  2.511470
   H (  6)  2.915470  4.164107  1.096298  2.161907  2.139162
   H (  7)  2.907092  4.077887  1.096813  2.159803  2.139623  1.765482
   H (  8)  2.440775  6.138334  2.179022  1.092809  2.768908  2.507095
   H (  9)  2.439745  6.075731  2.178685  1.092881  2.763713  3.070263
   H ( 10)  4.724886  3.794546  2.247705  3.070636  1.086258  2.509764
   H ( 11)  4.696334  3.762466  2.245772  3.033303  1.086448  3.102921
   H ( 12)  1.347502  7.929134  3.762137  2.412709  4.921754  4.028274
   H ( 13)  5.664229  1.368469  2.960053  4.434548  2.232129  3.064447
             H (  7)   H (  8)   H (  9)   H ( 10)   H ( 11)   H ( 12)
   H (  8)  3.069038
   H (  9)  2.507250  1.776787
   H ( 10)  3.095830  2.939716  3.450679
   H ( 11)  2.526086  3.410569  2.885024  1.851373
   H ( 12)  4.015616  2.662311  2.652289  5.419571  5.371777
   H ( 13)  3.010470  4.814529  4.775696  2.502146  2.495603  6.720420

 
 Final energy is   -915.411868768202     


 ******************************
 **  OPTIMIZATION CONVERGED  **
 ******************************

                       Coordinates (Angstroms)
     ATOM                X               Y               Z
      1  S         2.8825552854    0.4913332359   -0.0224121491
      2  S        -3.8168783036    1.5310450072    0.3832170231
      3  C         0.1387555602    0.1264326716    0.1484377099
      4  C         1.4465998553   -0.6759939860   -0.0365001272
      5  C        -1.0572587833   -0.7675286573    0.1361152452
      6  H         0.1960527774    0.6767897693    1.0948490473
      7  H         0.0705487563    0.8692990764   -0.6556126363
      8  H         1.5618924766   -1.4008344051    0.7731578470
      9  H         1.4277831489   -1.2123825084   -0.9885094982
     10  H        -1.3636647815   -1.2886695624    1.0386033215
     11  H        -1.4505307396   -1.1419538037   -0.8049014544
     12  H         3.8412902884   -0.4371035068   -0.2084056409
     13  H        -2.7689455405    0.6531746693    0.3208573121

Z-matrix Print:
$molecule
0 3
S 
H  1 1.347502
C  1 1.850627 2 96.684882
H  3 1.092809 1 109.322157 2 60.021740 0
H  3 1.092881 1 109.243058 2 -58.888637 0
C  3 1.545493 1 109.159806 2 -179.390505 0
H  6 1.096298 3 108.646145 1 -58.419849 0
H  6 1.096813 3 108.454806 1 57.814368 0
C  6 1.493241 3 111.467297 1 179.636544 0
H  9 1.086258 6 120.416999 3 83.111083 0
H  9 1.086448 6 120.225025 3 -78.487269 0
H  9 2.232129 6 103.442965 3 -177.419673 0
S  12 1.368469 9 177.848511 6 84.670841 0
$end

PES scan, value:    3.6000 energy: -915.4118687682
------- Summary of potential scan: ------ 
    3.6000      -915.4118687682
----------------------------------------- 
Archival summary:
1\1\hpc0250\JobtypUnspecified\ProcedureUnspecified\6-31G**\238(3)\knomura\ThuMar1408:30:102019ThuMar1408:30:102019\0\\#,JobtypUnspecified,ProcedureUnspecified,6-31G**,\\0,3\S\H,1,1.3475\C,1,1.85063,2,96.6849\H,3,1.09281,1,109.322,2,60.0217,0\H,3,1.09288,1,109.243,2,-58.8886,0\C,3,1.54549,1,109.16,2,-179.391,0\H,6,1.0963,3,108.646,1,-58.4198,0\H,6,1.09681,3,108.455,1,57.8144,0\C,6,1.49324,3,111.467,1,179.637,0\H,9,1.08626,6,120.417,3,83.1111,0\H,9,1.08645,6,120.225,3,-78.4873,0\H,9,2.23213,6,103.443,3,-177.42,0\S,12,1.36847,9,177.849,6,84.6708,0\\\@

 Total job time:  28.31s(wall), 324.64s(cpu) 
 Thu Mar 14 08:30:10 2019

        *************************************************************
        *                                                           *
        *  Thank you very much for using Q-Chem.  Have a nice day.  *
        *                                                           *
        *************************************************************


