
Running Job 1 of 1 selenium/02/Se-H.xyz.data/inputs/bond_singlet_2.3.in
qchem selenium/02/Se-H.xyz.data/inputs/bond_singlet_2.3.in_473.0 /staging/scratch/2868765/qchem473/ 1
/usr/usc/qchem/5.1.1/exe/qcprog.exe_s selenium/02/Se-H.xyz.data/inputs/bond_singlet_2.3.in_473.0 /staging/scratch/2868765/qchem473/
Check license passed

                  Welcome to Q-Chem
     A Quantum Leap Into The Future Of Chemistry


 Q-Chem 5.1, Q-Chem, Inc., Pleasanton, CA (2018)

 Yihan Shao,  Zhengting Gan,  E. Epifanovsky,  A. T. B. Gilbert,  M. Wormit,  
 J. Kussmann,  A. W. Lange,  A. Behn,  Jia Deng,  Xintian Feng,  D. Ghosh,  
 M. Goldey,  P. R. Horn,  L. D. Jacobson,  I. Kaliman,  T. Kus,  A. Landau,  
 Jie Liu,  E. I. Proynov,  R. M. Richard,  R. P. Steele,  E. J. Sundstrom,  
 H. L. Woodcock III,  P. M. Zimmerman,  D. Zuev,  B. Albrecht,  E. Alguire,  
 S. A. Baeppler,  D. Barton,  Z. Benda,  Y. A. Bernard,  E. J. Berquist,  
 K. B. Bravaya,  H. Burton,  D. Casanova,  Chun-Min Chang,  Yunqing Chen,  
 A. Chien,  K. D. Closser,  M. P. Coons,  S. Coriani,  S. Dasgupta,  
 A. L. Dempwolff,  M. Diedenhofen,  Hainam Do,  R. G. Edgar,  Po-Tung Fang,  
 S. Faraji,  S. Fatehi,  Qingguo Feng,  K. D. Fenk,  J. Fosso-Tande,  
 Qinghui Ge,  A. Ghysels,  G. Gidofalvi,  J. Gomes,  J. Gonthier,  A. Gunina,  
 D. Hait,  M. W. D. Hanson-Heine,  P. H. P. Harbach,  A. W. Hauser,  
 J. E. Herr,  E. G. Hohenstein,  Z. C. Holden,  Kerwin Hui,  B. C. Huynh,  
 T.-C. Jagau,  Hyunjun Ji,  B. Kaduk,  K. Khistyaev,  Jaehoon Kim,  
 P. Klunzinger,  K. Koh,  D. Kosenkov,  L. Koulias,  T. Kowalczyk,  
 C. M. Krauter,  A. Kunitsa,  Ka Un Lao,  A. Laurent,  K. V. Lawler,  
 Joonho Lee,  D. Lefrancois,  S. Lehtola,  D. S. Levine,  Yi-Pei Li,  
 You-Sheng Lin,  Fenglai Liu,  E. Livshits,  A. Luenser,  P. Manohar,  
 E. Mansoor,  S. F. Manzer,  Shan-Ping Mao,  Yuezhi Mao,  N. Mardirossian,  
 A. V. Marenich,  T. Markovich,  L. A. Martinez-Martinez,  S. A. Maurer,  
 N. J. Mayhall,  S. C. McKenzie,  J.-M. Mewes,  A. F. Morrison,  
 J. W. Mullinax,  K. Nanda,  T. S. Nguyen-Beck,  R. Olivares-Amaya,  
 J. A. Parkhill,  T. M. Perrine,  F. Plasser,  P. Pokhilko,  S. Prager,  
 A. Prociuk,  E. Ramos,  D. R. Rehn,  F. Rob,  M. Schneider,  N. Sergueev,  
 S. M. Sharada,  S. Sharma,  D. W. Small,  T. Stauch,  T. Stein,  
 Yu-Chuan Su,  A. J. W. Thom,  A. Tkatchenko,  T. Tsuchimochi,  N. M. Tubman,  
 L. Vogt,  M. L. Vidal,  O. Vydrov,  M. A. Watson,  J. Wenzel,  
 M. de Wergifosse,  T. A. Wesolowski,  A. White,  J. Witte,  A. Yamada,  
 Jun Yang,  K. Yao,  S. Yeganeh,  S. R. Yost,  Zhi-Qiang You,  A. Zech,  
 Igor Ying Zhang,  Xing Zhang,  Yan Zhao,  Ying Zhu,  B. R. Brooks,  
 G. K. L. Chan,  C. J. Cramer,  M. S. Gordon,  W. J. Hehre,  A. Klamt,  
 M. W. Schmidt,  C. D. Sherrill,  D. G. Truhlar,  A. Aspuru-Guzik,  R. Baer,  
 A. T. Bell,  N. A. Besley,  Jeng-Da Chai,  A. E. DePrince, III,  
 R. A. DiStasio Jr.,  A. Dreuw,  B. D. Dunietz,  T. R. Furlani,  
 Chao-Ping Hsu,  Yousung Jung,  Jing Kong,  D. S. Lambrecht,  WanZhen Liang,  
 C. Ochsenfeld,  V. A. Rassolov,  L. V. Slipchenko,  J. E. Subotnik,  
 T. Van Voorhis,  J. M. Herbert,  A. I. Krylov,  P. M. W. Gill,  M. Head-Gordon

 Contributors to earlier versions of Q-Chem not listed above: 
 R. D. Adamson,  B. Austin,  J. Baker,  G. J. O. Beran,  K. Brandhorst,  
 S. T. Brown,  E. F. C. Byrd,  A. K. Chakraborty,  C.-L. Cheng,  
 Siu Hung Chien,  D. M. Chipman,  D. L. Crittenden,  H. Dachsel,  
 R. J. Doerksen,  A. D. Dutoi,  L. Fusti-Molnar,  W. A. Goddard III,  
 A. Golubeva-Zadorozhnaya,  S. R. Gwaltney,  G. Hawkins,  A. Heyden,  
 S. Hirata,  G. Kedziora,  F. J. Keil,  C. Kelley,  Jihan Kim,  R. A. King,  
 R. Z. Khaliullin,  P. P. Korambath,  W. Kurlancheek,  A. M. Lee,  M. S. Lee,  
 S. V. Levchenko,  Ching Yeh Lin,  D. Liotard,  R. C. Lochan,  I. Lotan,  
 P. E. Maslen,  N. Nair,  D. P. O'Neill,  D. Neuhauser,  E. Neuscamman,  
 C. M. Oana,  R. Olson,  B. Peters,  R. Peverati,  P. A. Pieniazek,  
 Y. M. Rhee,  J. Ritchie,  M. A. Rohrdanz,  E. Rosta,  N. J. Russ,  
 H. F. Schaefer III,  N. E. Schultz,  N. Shenvi,  A. C. Simmonett,  A. Sodt,  
 D. Stuck,  K. S. Thanthiriwatte,  V. Vanovschi,  Tao Wang,  A. Warshel,  
 C. F. Williams,  Q. Wu,  X. Xu,  W. Zhang

 Please cite Q-Chem as follows:
 Y. Shao et al., Mol. Phys. 113, 184-215 (2015)
 DOI: 10.1080/00268976.2014.952696

 Q-Chem 5.1.1 for Intel X86 EM64T Linux

 Parts of Q-Chem use Armadillo 8.300.2 (Tropical Shenanigans).
 http://arma.sourceforge.net/

 Q-Chem begins on Thu Mar 14 00:43:16 2019  

Host: 
0

     Scratch files written to /staging/scratch/2868765/qchem473//
 Aug318 |scratch|qcdevops|jenkins|workspace|build_RNUM 6013   
Processing $rem in /usr/usc/qchem/5.1.1/config/preferences.
 MEM_TOTAL  2000 
Input Ideriv = 2
Curr. Ideriv = -1
Max.  Ideriv = 2

Checking the input file for inconsistencies... 	...done.

--------------------------------------------------------------
User input:
--------------------------------------------------------------

$comment
potential surface scanner
$end

$rem
JOBTYPE  PES_SCAN
UNRESTRICTED TRUE
SYM_IGNORE  TRUE
GEOM_OPT_MAX_CYCLES 400
SCF_MAX_CYCLES 400
METHOD   B3LYP
BASIS   6-31G**
PDB_PRINT 2
SCF_CONVERGENCE 6
THRESH 14
SCF_PRINT 1
$end
$molecule
0 1
C 0.063791 0.569385 -0.359348
H 0.123077 0.699485 -1.441314
C 0.386311 1.892980 0.358745
H -0.445293 2.590090 0.184949
H 0.429333 1.717775 1.439384
C 1.684225 2.549173 -0.124039
H 1.850709 3.492280 0.405661
H 2.544697 1.899092 0.055131
H 1.639491 2.771609 -1.195753
Se -1.817889 0.132099 0.088025
H -1.857471 -1.825079 -0.915910
Se 1.362945 -0.892430 0.005544
H 0.868272 -1.147557 1.372429
$end
$scan
stre 10 11 2.300000 2.301000 0.100000
$end
--------------------------------------------------------------
 ----------------------------------------------------------------
             Standard Nuclear Orientation (Angstroms)
    I     Atom           X                Y                Z
 ----------------------------------------------------------------
    1      C       0.0637910000     0.5693850000    -0.3593480000
    2      H       0.1230770000     0.6994850000    -1.4413140000
    3      C       0.3863110000     1.8929800000     0.3587450000
    4      H      -0.4452930000     2.5900900000     0.1849490000
    5      H       0.4293330000     1.7177750000     1.4393840000
    6      C       1.6842250000     2.5491730000    -0.1240390000
    7      H       1.8507090000     3.4922800000     0.4056610000
    8      H       2.5446970000     1.8990920000     0.0551310000
    9      H       1.6394910000     2.7716090000    -1.1957530000
   10      Se     -1.8178890000     0.1320990000     0.0880250000
   11      H      -1.8574710000    -1.8250790000    -0.9159100000
   12      Se      1.3629450000    -0.8924300000     0.0055440000
   13      H       0.8682720000    -1.1475570000     1.3724290000
 ----------------------------------------------------------------
 Nuclear Repulsion Energy =   592.5430501618 hartrees
 There are       47 alpha and       47 beta electrons
 Requested basis set is 6-31G(d,p)
 There are 52 shells and 155 basis functions

 Total QAlloc Memory Limit   2000 MB
 Mega-Array Size       188 MB
 MEM_STATIC part       192 MB
A total of 1 constraints
  
            1
    1   1.0100000
    2  10.0100000
    3  11.0100000
    4   2.3000000
    5   2.3010000
    6   0.1000000
    7   0.0000000
    8   0.0000000
    9   0.0000000
   10   0.0000000

                       Distance Matrix (Angstroms)
             C (  1)   H (  2)   C (  3)   H (  4)   H (  5)   C (  6)
   H (  2)  1.091371
   C (  3)  1.539994  2.175761
   H (  4)  2.153758  2.557765  1.098969
   H (  5)  2.165146  3.070689  1.095595  1.760543
   C (  6)  2.569190  2.755675  1.532400  2.152207  2.170315
   H (  7)  3.510218  3.767723  2.168968  2.476749  2.497551  1.094418
   H (  8)  2.845138  3.089118  2.179644  3.071542  2.534521  1.093215
   H (  9)  2.834113  2.579440  2.181493  2.507112  3.085287  1.095468
   Se( 10)  1.982948  2.535380  2.834165  2.816937  3.064400  4.260519
   H ( 11)  3.120011  3.251468  4.525844  4.764436  4.829979  5.683727
   Se( 12)  1.989435  2.482914  2.972722  3.928086  3.121009  3.458995
   H ( 13)  2.567904  3.447322  3.241097  4.135888  2.899531  4.070750
             H (  7)   H (  8)   H (  9)   Se( 10)   H ( 11)   Se( 12)
   H (  8)  1.772777
   H (  9)  1.768758  1.773526
   Se( 10)  4.985010  4.706963  4.535259
   H ( 11)  6.616000  5.847346  5.782439  2.200000
   Se( 12)  4.429863  3.031764  3.865847  3.342778  3.477066
   H ( 13)  4.840239  3.718568  4.748705  3.240783  3.622873  1.475861

 
 A cutoff of  1.0D-14 yielded   1236 shell pairs
 There are     11078 function pairs
 
 -------------------------------------------------------
 OpenMP Integral Computing Module                       
 Release: version 1.0, May 2013, Q-Chem Inc. Pittsburgh 
 -------------------------------------------------------
 Integral Job Info:
 Integral job number is                      11
 Integral operator is                         1
 short-range coefficients                     0
 long-range coefficients              100000000
 Omega coefficients                           0
 if combine SR and LR in K                    0
 Integral screening is                        0
 Integral computing path is                   2
 max size of driver memory is            800000
 size of driver memory is                593474
 size of scratch memory is             15267112
 max col of scratch BK array               1296
 max len of scratch array in speh3          155
 max len of scratch index in speh4           18
 max int batch size is                      520
 min int batch size is                       52
 fixed nKL is                                52
 max L of basis functions is                  2
 order of int derivative is                   0
 number of shells is                         52
 number of basis is                         155
 number of cartesian basis is               155
 number of contracted shell pairs          1236
 number of primitive shell pairs           5008
 maxK2 (contraction) of shell pair           36
 max number of K2 of shell pair               1
 max number of CS2 of shell pair             83
 max number of PS2 of shell pair            468
 mem total for path MDJ                  535932
 -------------------------------------------------------
 Smallest overlap matrix eigenvalue = 6.74E-04

 Scale SEOQF with 1.000000e-01/1.000000e-01/1.000000e+00

 Standard Electronic Orientation quadrupole field applied
 Nucleus-field energy     =     0.0000000055 hartrees
 Guess from superposition of atomic densities
 Warning:  Energy on first SCF cycle will be non-variational
 SAD guess density has 93.936381 electrons

 -----------------------------------------------------------------------
  General SCF calculation program by
  Eric Jon Sundstrom, Paul Horn, Yuezhi Mao, Dmitri Zuev, Alec White,
  David Stuck, Shaama M.S., Shane Yost, Joonho Lee, David Small,
  Daniel Levine, Susi Lehtola, Hugh Burton, Evgeny Epifanovsky
 -----------------------------------------------------------------------
 Exchange:     0.2000 Hartree-Fock + 0.0800 Slater + 0.7200 B88
 Correlation:  0.1900 VWN1RPA + 0.8100 LYP
 Using SG-1 standard quadrature grid
 using 12 threads for integral computing
 -------------------------------------------------------
 OpenMP Integral computing Module                
 Release: version 1.0, May 2013, Q-Chem Inc. Pittsburgh 
 -------------------------------------------------------
 -------------------------------------------------------
 OpenMP BLAS3 based DFT computing Module                
 Release: version 1.0, May 2013, Q-Chem Inc. Pittsburgh 
 -------------------------------------------------------
 A unrestricted SCF calculation will be
 performed using DIIS
 SCF converges when DIIS error is below 1.0e-06
 Alpha HF Exchange    Energy = -18.85925752977660
 Beta HF Exchange     Energy = -18.85925752977660
 DFT Correlation      Energy =  -5.13846926948245
 DFT Exchange         Energy = -149.87044353389473
 One-Electron (alpha) Energy = -4010.18724327302243
 One-Electron (beta)  Energy = -4010.18724327302243
 Total Coulomb        Energy = 2692.77320063151228
 ---------------------------------------
  Cycle       Energy         DIIS error
 ---------------------------------------
    1   -4927.7856636101      1.50e-01  
 Alpha HF Exchange    Energy = -18.96603431117465
 Beta HF Exchange     Energy = -18.96603431117467
 DFT Correlation      Energy =  -5.19507585323948
 DFT Exchange         Energy = -151.01224633283121
 One-Electron (alpha) Energy = -4021.81012354707445
 One-Electron (beta)  Energy = -4021.81012354707627
 Total Coulomb        Energy = 2723.74273601708273
    2   -4921.4738517181      9.41e-03  
 Alpha HF Exchange    Energy = -18.81684556955799
 Beta HF Exchange     Energy = -18.81684556955800
 DFT Correlation      Energy =  -5.14042572652076
 DFT Exchange         Energy = -149.81048159178664
 One-Electron (alpha) Energy = -4001.52749140743117
 One-Electron (beta)  Energy = -4001.52749140742981
 Total Coulomb        Energy = 2681.77503196997895
    3   -4921.3214991349      4.85e-03  
 Alpha HF Exchange    Energy = -18.96298176812273
 Beta HF Exchange     Energy = -18.96298176812272
 DFT Correlation      Energy =  -5.19678595869135
 DFT Exchange         Energy = -150.96625974400217
 One-Electron (alpha) Energy = -4022.14780895408921
 One-Electron (beta)  Energy = -4022.14780895408830
 Total Coulomb        Energy = 2724.49768429769165
    4   -4921.3438926821      4.23e-03  
 Alpha HF Exchange    Energy = -18.89833516426180
 Beta HF Exchange     Energy = -18.89833516426180
 DFT Correlation      Energy =  -5.16999590723851
 DFT Exchange         Energy = -150.46788181585057
 One-Electron (alpha) Energy = -4013.01073770805760
 One-Electron (beta)  Energy = -4013.01073770805715
 Total Coulomb        Energy = 2705.27573656205050
    5   -4921.6372367383      1.13e-03  
 Alpha HF Exchange    Energy = -18.89349252082796
 Beta HF Exchange     Energy = -18.89349252082797
 DFT Correlation      Energy =  -5.17015745417233
 DFT Exchange         Energy = -150.43225884030988
 One-Electron (alpha) Energy = -4013.02219321436041
 One-Electron (beta)  Energy = -4013.02219321436132
 Total Coulomb        Energy = 2705.23786399981464
    6   -4921.6528735977      2.58e-04  
 Alpha HF Exchange    Energy = -18.89416900561882
 Beta HF Exchange     Energy = -18.89416900561882
 DFT Correlation      Energy =  -5.16974752228461
 DFT Exchange         Energy = -150.43704023122467
 One-Electron (alpha) Energy = -4012.88834824558171
 One-Electron (beta)  Energy = -4012.88834824558262
 Total Coulomb        Energy = 2704.97522655439889
    7   -4921.6535455341      9.05e-05  
 Alpha HF Exchange    Energy = -18.89483992442585
 Beta HF Exchange     Energy = -18.89483992442587
 DFT Correlation      Energy =  -5.17010151479900
 DFT Exchange         Energy = -150.44255690251239
 One-Electron (alpha) Energy = -4013.02517906018147
 One-Electron (beta)  Energy = -4013.02517906018511
 Total Coulomb        Energy = 2705.25598302432263
    8   -4921.6536631948      2.79e-05  
 Alpha HF Exchange    Energy = -18.89489235659491
 Beta HF Exchange     Energy = -18.89489235659489
 DFT Correlation      Energy =  -5.17015028298102
 DFT Exchange         Energy = -150.44285342324008
 One-Electron (alpha) Energy = -4013.04591453935382
 One-Electron (beta)  Energy = -4013.04591453935291
 Total Coulomb        Energy = 2705.29789563807208
    9   -4921.6536716927      9.51e-06  
 Alpha HF Exchange    Energy = -18.89482977413073
 Beta HF Exchange     Energy = -18.89482977413071
 DFT Correlation      Energy =  -5.17012374090756
 DFT Exchange         Energy = -150.44239769439542
 One-Electron (alpha) Energy = -4013.02607691321691
 One-Electron (beta)  Energy = -4013.02607691321464
 Total Coulomb        Energy = 2705.25761144335729
   10   -4921.6536731993      4.27e-06  
 Alpha HF Exchange    Energy = -18.89484356479666
 Beta HF Exchange     Energy = -18.89484356479666
 DFT Correlation      Energy =  -5.17012232803890
 DFT Exchange         Energy = -150.44248208485317
 One-Electron (alpha) Energy = -4013.03049053509676
 One-Electron (beta)  Energy = -4013.03049053509631
 Total Coulomb        Energy = 2705.26654899121286
   11   -4921.6536734541      5.36e-07  Convergence criterion met
 ---------------------------------------
 SCF time:   CPU 55.80s  wall 4.00s 
<S^2> =         -0.000000000
 Alpha HF Exchange    Energy = -18.89484356479666
 Beta HF Exchange     Energy = -18.89484356479666
 DFT Correlation      Energy =  -5.17012232803890
 DFT Exchange         Energy = -150.44248208485317
 One-Electron (alpha) Energy = -4013.03049053509676
 One-Electron (beta)  Energy = -4013.03049053509631
 Total Coulomb        Energy = 2705.26654899121286
 Nuclear repulsion Energy = 592.54305016737237
 SCF   energy in the final basis set =    -4921.6536734541
 Total energy in the final basis set =    -4921.6536734541
 
 --------------------------------------------------------------
 
                    Orbital Energies (a.u.)
 --------------------------------------------------------------
 
 Alpha MOs
 -- Occupied --
*******-453.901 -58.112 -58.097 -52.171 -52.169 -52.166 -52.154
-52.153 -52.151 -10.259 -10.210 -10.187  -7.844  -7.830  -5.790
 -5.786  -5.776  -5.775  -5.772  -5.762  -2.124  -2.123  -2.114
 -2.111  -2.109  -2.109  -2.109  -2.101  -2.097  -2.096  -0.820
 -0.738  -0.689  -0.636  -0.582  -0.470  -0.438  -0.426  -0.387
 -0.378  -0.360  -0.345  -0.320  -0.304  -0.242  -0.224
 -- Virtual --
 -0.113  -0.021   0.029   0.044   0.094   0.118   0.139   0.151
  0.164   0.170   0.190   0.223   0.232   0.241   0.275   0.288
  0.298   0.313   0.335   0.352   0.448   0.457   0.477   0.493
  0.520   0.552   0.573   0.591   0.609   0.629   0.632   0.666
  0.715   0.748   0.772   0.824   0.833   0.850   0.858   0.868
  0.891   0.913   0.921   0.938   0.944   1.007   1.051   1.117
  1.335   1.378   1.439   1.523   1.541   1.607   1.656   1.697
  1.775   1.825   1.864   1.954   2.012   2.021   2.039   2.054
  2.063   2.081   2.095   2.111   2.116   2.147   2.160   2.246
  2.300   2.355   2.437   2.480   2.524   2.594   2.622   2.671
  2.713   2.746   2.814   2.877   2.898   3.185   3.271   3.304
  3.408   3.459   3.524   4.179   4.227   4.266   4.289   4.304
  4.325   4.344   4.352   4.393   4.407   4.488   4.519   4.630
  5.446   5.475  89.688  89.811
 
 Beta MOs
 -- Occupied --
*******-453.901 -58.112 -58.097 -52.171 -52.169 -52.166 -52.154
-52.153 -52.151 -10.259 -10.210 -10.187  -7.844  -7.830  -5.790
 -5.786  -5.776  -5.775  -5.772  -5.762  -2.124  -2.123  -2.114
 -2.111  -2.109  -2.109  -2.109  -2.101  -2.097  -2.096  -0.820
 -0.738  -0.689  -0.636  -0.582  -0.470  -0.438  -0.426  -0.387
 -0.378  -0.360  -0.345  -0.320  -0.304  -0.242  -0.224
 -- Virtual --
 -0.113  -0.021   0.029   0.044   0.094   0.118   0.139   0.151
  0.164   0.170   0.190   0.223   0.232   0.241   0.275   0.288
  0.298   0.313   0.335   0.352   0.448   0.457   0.477   0.493
  0.520   0.552   0.573   0.591   0.609   0.629   0.632   0.666
  0.715   0.748   0.772   0.824   0.833   0.850   0.858   0.868
  0.891   0.913   0.921   0.938   0.944   1.007   1.051   1.117
  1.335   1.378   1.439   1.523   1.541   1.607   1.656   1.697
  1.775   1.825   1.864   1.954   2.012   2.021   2.039   2.054
  2.063   2.081   2.095   2.111   2.116   2.147   2.160   2.246
  2.300   2.355   2.437   2.480   2.524   2.594   2.622   2.671
  2.713   2.746   2.814   2.877   2.898   3.185   3.271   3.304
  3.408   3.459   3.524   4.179   4.227   4.266   4.289   4.304
  4.325   4.344   4.352   4.393   4.407   4.488   4.519   4.630
  5.446   5.475  89.688  89.811
 --------------------------------------------------------------
 
          Ground-State Mulliken Net Atomic Charges

     Atom                 Charge (a.u.)    Spin (a.u.)
  --------------------------------------------------------
      1 C                    -0.227493       0.000000
      2 H                     0.157105      -0.000000
      3 C                    -0.194868       0.000000
      4 H                     0.120628      -0.000000
      5 H                     0.124154      -0.000000
      6 C                    -0.327904       0.000000
      7 H                     0.112198      -0.000000
      8 H                     0.138770      -0.000000
      9 H                     0.108037      -0.000000
     10 Se                   -0.052558       0.000000
     11 H                     0.030608      -0.000000
     12 Se                   -0.058409      -0.000000
     13 H                     0.069731       0.000000
  --------------------------------------------------------
  Sum of atomic charges =    -0.000000
  Sum of spin   charges =    -0.000000

 -----------------------------------------------------------------
                    Cartesian Multipole Moments
 -----------------------------------------------------------------
    Charge (ESU x 10^10)
                -0.0000
    Dipole Moment (Debye)
         X       0.5714      Y       1.2862      Z       0.1187
       Tot       1.4124
    Quadrupole Moments (Debye-Ang)
        XX     -61.8356     XY       1.5404     YY     -55.2705
        XZ       0.0109     YZ      -0.2321     ZZ     -56.5760
    Octopole Moments (Debye-Ang^2)
       XXX     -19.2326    XXY     -21.5874    XYY      -5.0600
       YYY     -49.7487    XXZ       0.7567    XYZ      -4.2466
       YYZ       2.0247    XZZ      -1.1356    YZZ     -18.8280
       ZZZ      -2.9501
    Hexadecapole Moments (Debye-Ang^3)
      XXXX    -826.1544   XXXY     -36.7123   XXYY    -236.7923
      XYYY     -36.2156   YYYY    -637.8506   XXXZ      -6.8720
      XXYZ       3.0313   XYYZ       7.5944   YYYZ      -1.7203
      XXZZ    -159.8209   XYZZ     -14.0841   YYZZ    -124.6017
      XZZZ       2.5687   YZZZ      -7.6508   ZZZZ    -113.6707
 -----------------------------------------------------------------
 Calculating analytic gradient of the SCF energy
 Gradient of SCF Energy
            1           2           3           4           5           6
    1  -0.0000551  -0.0000298  -0.0000720   0.0000051  -0.0000086   0.0000279
    2  -0.0001005   0.0000033   0.0000283   0.0000042  -0.0000292   0.0000225
    3  -0.0000466   0.0000040   0.0000636   0.0000314   0.0000088  -0.0000011
            7           8           9          10          11          12
    1  -0.0000535  -0.0000168  -0.0000395   0.0012857  -0.0011512   0.0000544
    2   0.0000174   0.0000318   0.0000198   0.0569116  -0.0569293   0.0000265
    3   0.0000169  -0.0000017   0.0000150   0.0292312  -0.0292457  -0.0000378
           13
    1   0.0000536
    2  -0.0000063
    3  -0.0000380
 Max gradient component =       5.693E-02
 RMS gradient           =       1.449E-02
 Gradient time:  CPU 19.60 s  wall 1.66 s
 Geometry Optimization Parameters
   NAtoms,    NIC,     NZ,  NCons,   NDum,   NFix, NCnnct, MaxDiis
       13      82       0       1       0       0       0       0


** CONSTRAINED OPTIMIZATION IN DELOCALIZED INTERNAL COORDINATES **
   Searching for a Minimum

   Optimization Cycle:   1

                       Coordinates (Angstroms)
     ATOM                X               Y               Z
      1  C         0.0637910000    0.5693850000   -0.3593480000
      2  H         0.1230770000    0.6994850000   -1.4413140000
      3  C         0.3863110000    1.8929800000    0.3587450000
      4  H        -0.4452930000    2.5900900000    0.1849490000
      5  H         0.4293330000    1.7177750000    1.4393840000
      6  C         1.6842250000    2.5491730000   -0.1240390000
      7  H         1.8507090000    3.4922800000    0.4056610000
      8  H         2.5446970000    1.8990920000    0.0551310000
      9  H         1.6394910000    2.7716090000   -1.1957530000
     10  Se       -1.8178890000    0.1320990000    0.0880250000
     11  H        -1.8574710000   -1.8250790000   -0.9159100000
     12  Se        1.3629450000   -0.8924300000    0.0055440000
     13  H         0.8682720000   -1.1475570000    1.3724290000
   Point Group: c1    Number of degrees of freedom:    33


   Energy is  -4921.653673454

              Constraints and their Current Values
                                        Value     Constraint
   Distance(Angs):       10  11             2.200000     2.300000

 Attempting to Generate Delocalized Internal Coordinates

   Using Lagrange Multiplier Algorithm


 34 Hessian modes will be used to form the next step
  Hessian Eigenvalues:
    -0.979939    0.045000    0.045000    0.045000    0.045000    0.067728
     0.078247    0.081510    0.082730    0.083613    0.085345    0.104589
     0.108967    0.132818    0.154799    0.157371    0.160000    0.160000
     0.160000    0.160000    0.160000    0.179696    0.197505    0.215857
     0.219626    0.285195    0.292029    0.337964    0.341740    0.341883
     0.343071    0.344437    0.346546    1.020472

 Minimum Search - Taking P-RFO Step
 Searching for Lamda that Maximizes Along the Constraint modes Only
 Value Taken    Lamda =   0.03193295
 Searching for Lamda that Minimizes Along All other modes
 Value Taken    Lamda =  -0.00729114
 Step Taken.  Stepsize is  0.184507

                             Maximum     Tolerance    Cnvgd?
         Gradient            0.188973       0.000300      NO
         Displacement        0.184492       0.001200      NO
         Energy change     *********       0.000001      NO


 New Cartesian Coordinates Obtained by Inverse Iteration

 Displacement from previous Coordinates is:  0.166466
 ----------------------------------------------------------------
             Standard Nuclear Orientation (Angstroms)
    I     Atom           X                Y                Z
 ----------------------------------------------------------------
    1      C       0.0606592945     0.5779726736    -0.3542692386
    2      H       0.1171464926     0.7075614405    -1.4364589950
    3      C       0.3905519764     1.9004373481     0.3623517923
    4      H      -0.4390809643     2.6005427382     0.1911526540
    5      H       0.4365265859     1.7253097098     1.4428844966
    6      C       1.6892842389     2.5516498489    -0.1248624709
    7      H       1.8612587911     3.4941742154     0.4041271808
    8      H       2.5478917003     1.8983244495     0.0514744720
    9      H       1.6418282795     2.7741621827    -1.1964508703
   10      Se     -1.8214783886     0.1473022380     0.0988705716
   11      H      -1.8712321222    -1.8976355612    -0.9474805372
   12      Se      1.3552097855    -0.8888348778     0.0069031490
   13      H       0.8636323303    -1.1420644057     1.3752617957
 ----------------------------------------------------------------
 Nuclear Repulsion Energy =   592.0694009527 hartrees
 There are       47 alpha and       47 beta electrons

                       Distance Matrix (Angstroms)
             C (  1)   H (  2)   C (  3)   H (  4)   H (  5)   C (  6)
   H (  2)  1.091384
   C (  3)  1.539899  2.175643
   H (  4)  2.153605  2.557711  1.098976
   H (  5)  2.165045  3.070576  1.095598  1.760555
   C (  6)  2.569134  2.755461  1.532371  2.152253  2.170270
   H (  7)  3.510207  3.767611  2.169037  2.476994  2.497551  1.094421
   H (  8)  2.845045  3.088751  2.179625  3.071584  2.534525  1.093223
   H (  9)  2.834187  2.579360  2.181503  2.507144  3.085277  1.095475
   Se( 10)  1.983244  2.535625  2.834781  2.817433  3.065137  4.261033
   H ( 11)  3.195738  3.313578  4.610497  4.856043  4.915824  5.757614
   Se( 12)  1.989430  2.482856  2.972700  3.928000  3.120861  3.459177
   H ( 13)  2.567990  3.447337  3.241390  4.135974  2.899798  4.071314
             H (  7)   H (  8)   H (  9)   Se( 10)   H ( 11)   Se( 12)
   H (  8)  1.772728
   H (  9)  1.768733  1.773516
   Se( 10)  4.985708  4.707411  4.535719
   H ( 11)  6.695517  5.910658  5.850579  2.297628
   Se( 12)  4.429971  3.031952  3.866233  3.342661  3.512614
   H ( 13)  4.840772  3.719288  4.749329  3.240596  3.666811  1.475866

 
 Applying Cartesian multipole field
    Component          Value
    ---------          -----
     (2,0,0)        1.00000E-11
     (0,2,0)        2.00000E-11
     (0,0,2)       -3.00000E-10
 Nucleus-field energy     =     0.0000000054 hartrees
 Requested basis set is 6-31G(d,p)
 There are 52 shells and 155 basis functions
 A cutoff of  1.0D-14 yielded   1236 shell pairs
 There are     11078 function pairs
 Smallest overlap matrix eigenvalue = 6.74E-04
 Guess from superposition of atomic densities
 Warning:  Energy on first SCF cycle will be non-variational
 SAD guess density has 93.936381 electrons

 -----------------------------------------------------------------------
  General SCF calculation program by
  Eric Jon Sundstrom, Paul Horn, Yuezhi Mao, Dmitri Zuev, Alec White,
  David Stuck, Shaama M.S., Shane Yost, Joonho Lee, David Small,
  Daniel Levine, Susi Lehtola, Hugh Burton, Evgeny Epifanovsky
 -----------------------------------------------------------------------
 Exchange:     0.2000 Hartree-Fock + 0.0800 Slater + 0.7200 B88
 Correlation:  0.1900 VWN1RPA + 0.8100 LYP
 Using SG-1 standard quadrature grid
 using 12 threads for integral computing
 -------------------------------------------------------
 OpenMP Integral computing Module                
 Release: version 1.0, May 2013, Q-Chem Inc. Pittsburgh 
 -------------------------------------------------------
 -------------------------------------------------------
 OpenMP BLAS3 based DFT computing Module                
 Release: version 1.0, May 2013, Q-Chem Inc. Pittsburgh 
 -------------------------------------------------------
 A unrestricted SCF calculation will be
 performed using DIIS
 SCF converges when DIIS error is below 1.0e-06
 Alpha HF Exchange    Energy = -18.85814394295301
 Beta HF Exchange     Energy = -18.85814394295301
 DFT Correlation      Energy =  -5.13778794624647
 DFT Exchange         Energy = -149.86787702871382
 One-Electron (alpha) Energy = -4009.71541207691916
 One-Electron (beta)  Energy = -4009.71541207691916
 Total Coulomb        Energy = 2692.30830494332122
 ---------------------------------------
  Cycle       Energy         DIIS error
 ---------------------------------------
    1   -4927.7750711133      1.50e-01  
 Alpha HF Exchange    Energy = -18.96633989957982
 Beta HF Exchange     Energy = -18.96633989957978
 DFT Correlation      Energy =  -5.19527034913575
 DFT Exchange         Energy = -151.01554062478510
 One-Electron (alpha) Energy = -4021.66985756394797
 One-Electron (beta)  Energy = -4021.66985756394342
 Total Coulomb        Energy = 2723.96534590374131
    2   -4921.4484590391      9.44e-03  
 Alpha HF Exchange    Energy = -18.81463935202569
 Beta HF Exchange     Energy = -18.81463935202571
 DFT Correlation      Energy =  -5.13828616126990
 DFT Exchange         Energy = -149.79091245642570
 One-Electron (alpha) Energy = -4000.19111097693940
 One-Electron (beta)  Energy = -4000.19111097694122
 Total Coulomb        Energy = 2679.62157334822314
    3   -4921.2497249693      5.09e-03  
 Alpha HF Exchange    Energy = -18.96657900943244
 Beta HF Exchange     Energy = -18.96657900943242
 DFT Correlation      Energy =  -5.19847045478133
 DFT Exchange         Energy = -150.99183720715070
 One-Electron (alpha) Energy = -4022.46749021453206
 One-Electron (beta)  Energy = -4022.46749021452979
 Total Coulomb        Energy = 2725.71790485705378
    4   -4921.2711402947      4.44e-03  
 Alpha HF Exchange    Energy = -18.89697615544609
 Beta HF Exchange     Energy = -18.89697615544606
 DFT Correlation      Energy =  -5.16932945054762
 DFT Exchange         Energy = -150.46064443804028
 One-Electron (alpha) Energy = -4012.49415752954565
 One-Electron (beta)  Energy = -4012.49415752954337
 Total Coulomb        Energy = 2704.71874836259713
    5   -4921.6240919379      1.20e-03  
 Alpha HF Exchange    Energy = -18.89136213289604
 Beta HF Exchange     Energy = -18.89136213289607
 DFT Correlation      Energy =  -5.16914884251596
 DFT Exchange         Energy = -150.41916878993257
 One-Electron (alpha) Energy = -4012.44191883315852
 One-Electron (beta)  Energy = -4012.44191883316216
 Total Coulomb        Energy = 2704.54443634229847
    6   -4921.6410422642      3.17e-04  
 Alpha HF Exchange    Energy = -18.89272362905846
 Beta HF Exchange     Energy = -18.89272362905849
 DFT Correlation      Energy =  -5.16878666655794
 DFT Exchange         Energy = -150.42959831793323
 One-Electron (alpha) Energy = -4012.30887126952666
 One-Electron (beta)  Energy = -4012.30887126952712
 Total Coulomb        Energy = 2704.29024817542131
    7   -4921.6419256481      1.15e-04  
 Alpha HF Exchange    Energy = -18.89366657929581
 Beta HF Exchange     Energy = -18.89366657929581
 DFT Correlation      Energy =  -5.16936877572147
 DFT Exchange         Energy = -150.43716932129092
 One-Electron (alpha) Energy = -4012.54264515579007
 One-Electron (beta)  Energy = -4012.54264515579007
 Total Coulomb        Energy = 2704.76757302008264
    8   -4921.6421875890      2.62e-05  
 Alpha HF Exchange    Energy = -18.89365538984394
 Beta HF Exchange     Energy = -18.89365538984395
 DFT Correlation      Energy =  -5.16938737910427
 DFT Exchange         Energy = -150.43699999138576
 One-Electron (alpha) Energy = -4012.54067212538257
 One-Electron (beta)  Energy = -4012.54067212538257
 Total Coulomb        Energy = 2704.76344874193910
    9   -4921.6421927009      9.44e-06  
 Alpha HF Exchange    Energy = -18.89361093013691
 Beta HF Exchange     Energy = -18.89361093013688
 DFT Correlation      Energy =  -5.16935122448681
 DFT Exchange         Energy = -150.43667633035452
 One-Electron (alpha) Energy = -4012.52326358946857
 One-Electron (beta)  Energy = -4012.52326358946630
 Total Coulomb        Energy = 2704.72818200447682
   10   -4921.6421936315      5.39e-06  
 Alpha HF Exchange    Energy = -18.89363254115164
 Beta HF Exchange     Energy = -18.89363254115164
 DFT Correlation      Energy =  -5.16935994792529
 DFT Exchange         Energy = -150.43681839101015
 One-Electron (alpha) Energy = -4012.53148333328181
 One-Electron (beta)  Energy = -4012.53148333328272
 Total Coulomb        Energy = 2704.74481490656581
   11   -4921.6421942231      9.81e-07  Convergence criterion met
 ---------------------------------------
 SCF time:   CPU 54.86s  wall 4.00s 
<S^2> =         -0.000000000
 Alpha HF Exchange    Energy = -18.89363254115164
 Beta HF Exchange     Energy = -18.89363254115164
 DFT Correlation      Energy =  -5.16935994792529
 DFT Exchange         Energy = -150.43681839101015
 One-Electron (alpha) Energy = -4012.53148333328181
 One-Electron (beta)  Energy = -4012.53148333328272
 Total Coulomb        Energy = 2704.74481490656581
 Nuclear repulsion Energy = 592.06940095811160
 SCF   energy in the final basis set =    -4921.6421942231
 Total energy in the final basis set =    -4921.6421942231
 
 --------------------------------------------------------------
 
                    Orbital Energies (a.u.)
 --------------------------------------------------------------
 
 Alpha MOs
 -- Occupied --
*******-453.901 -58.114 -58.097 -52.172 -52.170 -52.167 -52.154
-52.153 -52.151 -10.260 -10.210 -10.188  -7.845  -7.830  -5.792
 -5.787  -5.776  -5.776  -5.772  -5.762  -2.125  -2.125  -2.115
 -2.112  -2.110  -2.109  -2.109  -2.101  -2.098  -2.096  -0.821
 -0.738  -0.689  -0.636  -0.582  -0.470  -0.439  -0.426  -0.387
 -0.378  -0.361  -0.345  -0.319  -0.299  -0.242  -0.224
 -- Virtual --
 -0.125  -0.021   0.029   0.043   0.093   0.118   0.138   0.150
  0.164   0.170   0.190   0.222   0.232   0.242   0.275   0.288
  0.298   0.313   0.335   0.353   0.448   0.456   0.475   0.492
  0.520   0.552   0.568   0.591   0.608   0.628   0.631   0.667
  0.715   0.748   0.771   0.825   0.832   0.851   0.860   0.868
  0.890   0.912   0.921   0.938   0.944   1.007   1.051   1.116
  1.335   1.377   1.438   1.527   1.542   1.606   1.656   1.698
  1.774   1.825   1.864   1.953   2.011   2.020   2.038   2.053
  2.061   2.081   2.094   2.110   2.115   2.131   2.152   2.245
  2.299   2.354   2.436   2.479   2.523   2.593   2.621   2.671
  2.712   2.746   2.814   2.876   2.897   3.184   3.271   3.304
  3.408   3.458   3.524   4.179   4.225   4.263   4.281   4.300
  4.324   4.343   4.352   4.393   4.407   4.487   4.519   4.630
  5.443   5.475  89.685  89.810
 
 Beta MOs
 -- Occupied --
*******-453.901 -58.114 -58.097 -52.172 -52.170 -52.167 -52.154
-52.153 -52.151 -10.260 -10.210 -10.188  -7.845  -7.830  -5.792
 -5.787  -5.776  -5.776  -5.772  -5.762  -2.125  -2.125  -2.115
 -2.112  -2.110  -2.109  -2.109  -2.101  -2.098  -2.096  -0.821
 -0.738  -0.689  -0.636  -0.582  -0.470  -0.439  -0.426  -0.387
 -0.378  -0.361  -0.345  -0.319  -0.299  -0.242  -0.224
 -- Virtual --
 -0.125  -0.021   0.029   0.043   0.093   0.118   0.138   0.150
  0.164   0.170   0.190   0.222   0.232   0.242   0.275   0.288
  0.298   0.313   0.335   0.353   0.448   0.456   0.475   0.492
  0.520   0.552   0.568   0.591   0.608   0.628   0.631   0.667
  0.715   0.748   0.771   0.825   0.832   0.851   0.860   0.868
  0.890   0.912   0.921   0.938   0.944   1.007   1.051   1.116
  1.335   1.377   1.438   1.527   1.542   1.606   1.656   1.698
  1.774   1.825   1.864   1.953   2.011   2.020   2.038   2.053
  2.061   2.081   2.094   2.110   2.115   2.131   2.152   2.245
  2.299   2.354   2.436   2.479   2.523   2.593   2.621   2.671
  2.712   2.746   2.814   2.876   2.897   3.184   3.271   3.304
  3.408   3.458   3.524   4.179   4.225   4.263   4.281   4.300
  4.324   4.343   4.352   4.393   4.407   4.487   4.519   4.630
  5.443   5.475  89.685  89.810
 --------------------------------------------------------------
 
          Ground-State Mulliken Net Atomic Charges

     Atom                 Charge (a.u.)    Spin (a.u.)
  --------------------------------------------------------
      1 C                    -0.228317      -0.000000
      2 H                     0.157600       0.000000
      3 C                    -0.195202      -0.000000
      4 H                     0.120840       0.000000
      5 H                     0.124451       0.000000
      6 C                    -0.327749       0.000000
      7 H                     0.112463      -0.000000
      8 H                     0.138995      -0.000000
      9 H                     0.108275       0.000000
     10 Se                   -0.052159       0.000000
     11 H                     0.027983      -0.000000
     12 Se                   -0.056914       0.000000
     13 H                     0.069733       0.000000
  --------------------------------------------------------
  Sum of atomic charges =    -0.000000
  Sum of spin   charges =     0.000000

 -----------------------------------------------------------------
                    Cartesian Multipole Moments
 -----------------------------------------------------------------
    Charge (ESU x 10^10)
                 0.0000
    Dipole Moment (Debye)
         X       0.6097      Y       1.3362      Z       0.1389
       Tot       1.4753
    Quadrupole Moments (Debye-Ang)
        XX     -61.8778     XY       1.4676     YY     -55.2272
        XZ      -0.0313     YZ      -0.2231     ZZ     -56.5903
    Octopole Moments (Debye-Ang^2)
       XXX     -18.3593    XXY     -21.6821    XYY      -4.6883
       YYY     -50.7859    XXZ       0.6565    XYZ      -4.2374
       YYZ       1.7160    XZZ      -0.9163    YZZ     -19.1669
       ZZZ      -3.5754
    Hexadecapole Moments (Debye-Ang^3)
      XXXX    -827.2648   XXXY     -37.6971   XXYY    -237.5113
      XYYY     -36.2972   YYYY    -640.7115   XXXZ      -6.6626
      XXYZ       2.8665   XYYZ       7.9213   YYYZ      -2.0520
      XXZZ    -160.0752   XYZZ     -14.2038   YYZZ    -125.2088
      XZZZ       3.1941   YZZZ      -8.4239   ZZZZ    -114.4560
 -----------------------------------------------------------------
 Calculating analytic gradient of the SCF energy
 Gradient of SCF Energy
            1           2           3           4           5           6
    1   0.0002498   0.0000248   0.0001929  -0.0000622  -0.0000098  -0.0001136
    2   0.0004184  -0.0000114  -0.0001748  -0.0000500  -0.0000345   0.0000120
    3   0.0001336  -0.0000172  -0.0002944   0.0000111   0.0000309   0.0001526
            7           8           9          10          11          12
    1   0.0000173   0.0000077  -0.0000307   0.0009817  -0.0013050  -0.0000438
    2   0.0000325   0.0000500   0.0000269   0.0534608  -0.0537004  -0.0000489
    3  -0.0000103  -0.0000052   0.0000015   0.0274852  -0.0274014  -0.0000751
           13
    1   0.0000910
    2   0.0000194
    3  -0.0000115
 Max gradient component =       5.370E-02
 RMS gradient           =       1.364E-02
 Gradient time:  CPU 20.05 s  wall 1.71 s
 Geometry Optimization Parameters
   NAtoms,    NIC,     NZ,  NCons,   NDum,   NFix, NCnnct, MaxDiis
       13      82       0       1       0       0       0       0

 Cartesian Hessian Update
 Hessian Updated using BFGS Update
**WARNING** Hereditary positive definiteness endangered


** CONSTRAINED OPTIMIZATION IN DELOCALIZED INTERNAL COORDINATES **
   Searching for a Minimum

   Optimization Cycle:   2

                       Coordinates (Angstroms)
     ATOM                X               Y               Z
      1  C         0.0606592945    0.5779726736   -0.3542692386
      2  H         0.1171464926    0.7075614405   -1.4364589950
      3  C         0.3905519764    1.9004373481    0.3623517923
      4  H        -0.4390809643    2.6005427382    0.1911526540
      5  H         0.4365265859    1.7253097098    1.4428844966
      6  C         1.6892842389    2.5516498489   -0.1248624709
      7  H         1.8612587911    3.4941742154    0.4041271808
      8  H         2.5478917003    1.8983244495    0.0514744720
      9  H         1.6418282795    2.7741621827   -1.1964508703
     10  Se       -1.8214783886    0.1473022380    0.0988705716
     11  H        -1.8712321222   -1.8976355612   -0.9474805372
     12  Se        1.3552097855   -0.8888348778    0.0069031490
     13  H         0.8636323303   -1.1420644057    1.3752617957
   Point Group: c1    Number of degrees of freedom:    33


   Energy is  -4921.642194223

              Constraints and their Current Values
                                        Value     Constraint
   Distance(Angs):       10  11             2.297628     2.300000
 Hessian Updated using BFGS Update
**WARNING** Hereditary positive definiteness endangered

   Using Lagrange Multiplier Algorithm


 29 Hessian modes will be used to form the next step
  Hessian Eigenvalues:
    -1.010097    0.044927    0.044998    0.067727    0.078243    0.081507
     0.082730    0.083613    0.085339    0.104578    0.108946    0.132810
     0.154799    0.157004    0.159968    0.159995    0.179696    0.197445
     0.215841    0.219457    0.285101    0.292021    0.337964    0.341739
     0.341883    0.343070    0.344437    0.346545    0.990016

 Minimum Search - Taking P-RFO Step
 Searching for Lamda that Maximizes Along the Constraint modes Only
 Value Taken    Lamda =   0.00000517
 Searching for Lamda that Minimizes Along All other modes
 Value Taken    Lamda =  -0.00007695
 Step Taken.  Stepsize is  0.006747

                             Maximum     Tolerance    Cnvgd?
         Gradient            0.007649       0.000300      NO
         Displacement        0.007754       0.001200      NO
         Energy change      0.011479       0.000001      NO


 New Cartesian Coordinates Obtained by Inverse Iteration

 Displacement from previous Coordinates is:  0.012728
 ----------------------------------------------------------------
             Standard Nuclear Orientation (Angstroms)
    I     Atom           X                Y                Z
 ----------------------------------------------------------------
    1      C       0.0605379232     0.5778940307    -0.3532596933
    2      H       0.1168262135     0.7078707760    -1.4353844855
    3      C       0.3902999420     1.9007943865     0.3634348503
    4      H      -0.4390289929     2.6013024292     0.1925436036
    5      H       0.4370203534     1.7261690136     1.4439717090
    6      C       1.6888862091     2.5510884023    -0.1257246421
    7      H       1.8616099614     3.4937706458     0.4026855465
    8      H       2.5472666633     1.8973156374     0.0500615813
    9      H       1.6403488634     2.7729928654    -1.1973907629
   10      Se     -1.8203832766     0.1479779867     0.0995808521
   11      H      -1.8690732575    -1.8973312488    -0.9512941559
   12      Se      1.3554222348    -0.8885173809     0.0082514882
   13      H       0.8624651629    -1.1424255439     1.3760281087
 ----------------------------------------------------------------
 Nuclear Repulsion Energy =   592.1887537017 hartrees
 There are       47 alpha and       47 beta electrons

                       Distance Matrix (Angstroms)
             C (  1)   H (  2)   C (  3)   H (  4)   H (  5)   C (  6)
   H (  2)  1.091355
   C (  3)  1.540279  2.175685
   H (  4)  2.154449  2.558165  1.098955
   H (  5)  2.165714  3.070855  1.095553  1.760509
   C (  6)  2.568421  2.753912  1.532477  2.152171  2.170624
   H (  7)  3.509651  3.766166  2.168840  2.476610  2.497628  1.094395
   H (  8)  2.843829  3.086806  2.179615  3.071459  2.534840  1.093223
   H (  9)  2.833164  2.577303  2.181634  2.507032  3.085553  1.095475
   Se( 10)  1.981857  2.534241  2.833567  2.817017  3.064954  4.259187
   H ( 11)  3.194962  3.311377  4.610752  4.857067  4.917837  5.755786
   Se( 12)  1.989417  2.483276  2.972857  3.928468  3.121112  3.458328
   H ( 13)  2.567688  3.447262  3.241832  4.136426  2.900768  4.071889
             H (  7)   H (  8)   H (  9)   Se( 10)   H ( 11)   Se( 12)
   H (  8)  1.772890
   H (  9)  1.768819  1.773541
   Se( 10)  4.984303  4.705210  4.533156
   H ( 11)  6.694418  5.908140  5.847096  2.300000
   Se( 12)  4.429024  3.030364  3.865412  3.341916  3.512236
   H ( 13)  4.841487  3.719781  4.749536  3.239156  3.667099  1.475903

 
 Applying Cartesian multipole field
    Component          Value
    ---------          -----
     (2,0,0)        1.00000E-11
     (0,2,0)        2.00000E-11
     (0,0,2)       -3.00000E-10
 Nucleus-field energy     =     0.0000000054 hartrees
 Requested basis set is 6-31G(d,p)
 There are 52 shells and 155 basis functions
 A cutoff of  1.0D-14 yielded   1236 shell pairs
 There are     11078 function pairs
 Smallest overlap matrix eigenvalue = 6.74E-04
 Guess from superposition of atomic densities
 Warning:  Energy on first SCF cycle will be non-variational
 SAD guess density has 93.936381 electrons

 -----------------------------------------------------------------------
  General SCF calculation program by
  Eric Jon Sundstrom, Paul Horn, Yuezhi Mao, Dmitri Zuev, Alec White,
  David Stuck, Shaama M.S., Shane Yost, Joonho Lee, David Small,
  Daniel Levine, Susi Lehtola, Hugh Burton, Evgeny Epifanovsky
 -----------------------------------------------------------------------
 Exchange:     0.2000 Hartree-Fock + 0.0800 Slater + 0.7200 B88
 Correlation:  0.1900 VWN1RPA + 0.8100 LYP
 Using SG-1 standard quadrature grid
 using 12 threads for integral computing
 -------------------------------------------------------
 OpenMP Integral computing Module                
 Release: version 1.0, May 2013, Q-Chem Inc. Pittsburgh 
 -------------------------------------------------------
 -------------------------------------------------------
 OpenMP BLAS3 based DFT computing Module                
 Release: version 1.0, May 2013, Q-Chem Inc. Pittsburgh 
 -------------------------------------------------------
 A unrestricted SCF calculation will be
 performed using DIIS
 SCF converges when DIIS error is below 1.0e-06
 Alpha HF Exchange    Energy = -18.85819904271294
 Beta HF Exchange     Energy = -18.85819904271294
 DFT Correlation      Energy =  -5.13780600239192
 DFT Exchange         Energy = -149.86798489525646
 One-Electron (alpha) Energy = -4009.83445418607062
 One-Electron (beta)  Energy = -4009.83445418607062
 Total Coulomb        Energy = 2692.42642159538582
 ---------------------------------------
  Cycle       Energy         DIIS error
 ---------------------------------------
    1   -4927.7759220528      1.50e-01  
 Alpha HF Exchange    Energy = -18.96638612965342
 Beta HF Exchange     Energy = -18.96638612965341
 DFT Correlation      Energy =  -5.19531075826376
 DFT Exchange         Energy = -151.01589217881940
 One-Electron (alpha) Energy = -4021.79749757787113
 One-Electron (beta)  Energy = -4021.79749757787067
 Total Coulomb        Energy = 2724.10239485807870
    2   -4921.4478217870      9.44e-03  
 Alpha HF Exchange    Energy = -18.81460363236562
 Beta HF Exchange     Energy = -18.81460363236560
 DFT Correlation      Energy =  -5.13826145164320
 DFT Exchange         Energy = -149.79054643146304
 One-Electron (alpha) Energy = -4000.28960230482517
 One-Electron (beta)  Energy = -4000.28960230482426
 Total Coulomb        Energy = 2679.70065158245143
    3   -4921.2478144680      5.09e-03  
 Alpha HF Exchange    Energy = -18.96669536182722
 Beta HF Exchange     Energy = -18.96669536182719
 DFT Correlation      Energy =  -5.19854779981472
 DFT Exchange         Energy = -150.99266696762430
 One-Electron (alpha) Energy = -4022.60344434588933
 One-Electron (beta)  Energy = -4022.60344434588569
 Total Coulomb        Energy = 2725.87345718122697
    4   -4921.2692832946      4.45e-03  
 Alpha HF Exchange    Energy = -18.89698753106909
 Beta HF Exchange     Energy = -18.89698753106909
 DFT Correlation      Energy =  -5.16935014503675
 DFT Exchange         Energy = -150.46077776077135
 One-Electron (alpha) Energy = -4012.61456630756948
 One-Electron (beta)  Energy = -4012.61456630757039
 Total Coulomb        Energy = 2704.84068180206214
    5   -4921.6238000740      1.20e-03  
 Alpha HF Exchange    Energy = -18.89134190361468
 Beta HF Exchange     Energy = -18.89134190361467
 DFT Correlation      Energy =  -5.16915624711926
 DFT Exchange         Energy = -150.41906488472029
 One-Electron (alpha) Energy = -4012.55766110351078
 One-Electron (beta)  Energy = -4012.55766110351124
 Total Coulomb        Energy = 2704.65670591421667
    6   -4921.6407675248      3.18e-04  
 Alpha HF Exchange    Energy = -18.89272255478927
 Beta HF Exchange     Energy = -18.89272255478926
 DFT Correlation      Energy =  -5.16879782308423
 DFT Exchange         Energy = -150.42965035028641
 One-Electron (alpha) Energy = -4012.42559819827193
 One-Electron (beta)  Energy = -4012.42559819827284
 Total Coulomb        Energy = 2704.40468245608645
    7   -4921.6416535163      1.16e-04  
 Alpha HF Exchange    Energy = -18.89367166225455
 Beta HF Exchange     Energy = -18.89367166225455
 DFT Correlation      Energy =  -5.16938486533094
 DFT Exchange         Energy = -150.43726635224996
 One-Electron (alpha) Energy = -4012.66167758411757
 One-Electron (beta)  Energy = -4012.66167758411666
 Total Coulomb        Energy = 2704.88667638319157
    8   -4921.6419196201      2.62e-05  
 Alpha HF Exchange    Energy = -18.89365823305603
 Beta HF Exchange     Energy = -18.89365823305602
 DFT Correlation      Energy =  -5.16940224244150
 DFT Exchange         Energy = -150.43708164966134
 One-Electron (alpha) Energy = -4012.65877040364376
 One-Electron (beta)  Energy = -4012.65877040364330
 Total Coulomb        Energy = 2704.88066275321125
    9   -4921.6419247052      9.34e-06  
 Alpha HF Exchange    Energy = -18.89361515472900
 Beta HF Exchange     Energy = -18.89361515472901
 DFT Correlation      Energy =  -5.16936628057591
 DFT Exchange         Energy = -150.43676734272961
 One-Electron (alpha) Energy = -4012.64180220440494
 One-Electron (beta)  Energy = -4012.64180220440630
 Total Coulomb        Energy = 2704.84628904495366
   10   -4921.6419255895      5.34e-06  
 Alpha HF Exchange    Energy = -18.89363673015445
 Beta HF Exchange     Energy = -18.89363673015445
 DFT Correlation      Energy =  -5.16937528763155
 DFT Exchange         Energy = -150.43690948524301
 One-Electron (alpha) Energy = -4012.65003447993195
 One-Electron (beta)  Energy = -4012.65003447993149
 Total Coulomb        Energy = 2704.86294731100634
   11   -4921.6419261750      1.00e-06  
 Alpha HF Exchange    Energy = -18.89363630139817
 Beta HF Exchange     Energy = -18.89363630139817
 DFT Correlation      Energy =  -5.16937814926228
 DFT Exchange         Energy = -150.43691110031114
 One-Electron (alpha) Energy = -4012.65006847702534
 One-Electron (beta)  Energy = -4012.65006847702534
 Total Coulomb        Energy = 2704.86301891504263
   12   -4921.6419261843      1.71e-07  Convergence criterion met
 ---------------------------------------
 SCF time:   CPU 59.13s  wall 5.00s 
<S^2> =          0.000000000
 Alpha HF Exchange    Energy = -18.89363630139817
 Beta HF Exchange     Energy = -18.89363630139817
 DFT Correlation      Energy =  -5.16937814926228
 DFT Exchange         Energy = -150.43691110031114
 One-Electron (alpha) Energy = -4012.65006847702534
 One-Electron (beta)  Energy = -4012.65006847702534
 Total Coulomb        Energy = 2704.86301891504263
 Nuclear repulsion Energy = 592.18875370707156
 SCF   energy in the final basis set =    -4921.6419261843
 Total energy in the final basis set =    -4921.6419261843
 
 --------------------------------------------------------------
 
                    Orbital Energies (a.u.)
 --------------------------------------------------------------
 
 Alpha MOs
 -- Occupied --
*******-453.901 -58.114 -58.097 -52.172 -52.170 -52.167 -52.155
-52.153 -52.151 -10.260 -10.210 -10.188  -7.845  -7.830  -5.792
 -5.787  -5.776  -5.776  -5.772  -5.762  -2.125  -2.125  -2.115
 -2.112  -2.110  -2.109  -2.109  -2.101  -2.098  -2.096  -0.821
 -0.738  -0.689  -0.636  -0.582  -0.470  -0.439  -0.426  -0.387
 -0.378  -0.361  -0.345  -0.319  -0.298  -0.242  -0.224
 -- Virtual --
 -0.125  -0.021   0.029   0.043   0.093   0.117   0.138   0.150
  0.164   0.170   0.190   0.222   0.232   0.242   0.275   0.288
  0.298   0.313   0.335   0.353   0.448   0.456   0.475   0.492
  0.520   0.552   0.568   0.591   0.608   0.628   0.632   0.667
  0.715   0.748   0.771   0.825   0.832   0.851   0.860   0.868
  0.890   0.912   0.921   0.938   0.944   1.007   1.051   1.116
  1.335   1.378   1.439   1.527   1.542   1.606   1.656   1.698
  1.774   1.825   1.864   1.953   2.011   2.020   2.038   2.053
  2.061   2.081   2.094   2.110   2.115   2.131   2.152   2.246
  2.299   2.354   2.436   2.479   2.523   2.593   2.621   2.671
  2.712   2.746   2.814   2.876   2.897   3.184   3.271   3.304
  3.408   3.458   3.524   4.179   4.225   4.263   4.280   4.300
  4.324   4.343   4.352   4.393   4.406   4.487   4.519   4.630
  5.443   5.475  89.685  89.810
 
 Beta MOs
 -- Occupied --
*******-453.901 -58.114 -58.097 -52.172 -52.170 -52.167 -52.155
-52.153 -52.151 -10.260 -10.210 -10.188  -7.845  -7.830  -5.792
 -5.787  -5.776  -5.776  -5.772  -5.762  -2.125  -2.125  -2.115
 -2.112  -2.110  -2.109  -2.109  -2.101  -2.098  -2.096  -0.821
 -0.738  -0.689  -0.636  -0.582  -0.470  -0.439  -0.426  -0.387
 -0.378  -0.361  -0.345  -0.319  -0.298  -0.242  -0.224
 -- Virtual --
 -0.125  -0.021   0.029   0.043   0.093   0.117   0.138   0.150
  0.164   0.170   0.190   0.222   0.232   0.242   0.275   0.288
  0.298   0.313   0.335   0.353   0.448   0.456   0.475   0.492
  0.520   0.552   0.568   0.591   0.608   0.628   0.632   0.667
  0.715   0.748   0.771   0.825   0.832   0.851   0.860   0.868
  0.890   0.912   0.921   0.938   0.944   1.007   1.051   1.116
  1.335   1.378   1.439   1.527   1.542   1.606   1.656   1.698
  1.774   1.825   1.864   1.953   2.011   2.020   2.038   2.053
  2.061   2.081   2.094   2.110   2.115   2.131   2.152   2.246
  2.299   2.354   2.436   2.479   2.523   2.593   2.621   2.671
  2.712   2.746   2.814   2.876   2.897   3.184   3.271   3.304
  3.408   3.458   3.524   4.179   4.225   4.263   4.280   4.300
  4.324   4.343   4.352   4.393   4.406   4.487   4.519   4.630
  5.443   5.475  89.685  89.810
 --------------------------------------------------------------
 
          Ground-State Mulliken Net Atomic Charges

     Atom                 Charge (a.u.)    Spin (a.u.)
  --------------------------------------------------------
      1 C                    -0.228249       0.000000
      2 H                     0.157638      -0.000000
      3 C                    -0.195327      -0.000000
      4 H                     0.120897       0.000000
      5 H                     0.124495       0.000000
      6 C                    -0.327775      -0.000000
      7 H                     0.112429       0.000000
      8 H                     0.139014       0.000000
      9 H                     0.108287       0.000000
     10 Se                   -0.052094       0.000000
     11 H                     0.027776      -0.000000
     12 Se                   -0.056856      -0.000000
     13 H                     0.069765       0.000000
  --------------------------------------------------------
  Sum of atomic charges =     0.000000
  Sum of spin   charges =     0.000000

 -----------------------------------------------------------------
                    Cartesian Multipole Moments
 -----------------------------------------------------------------
    Charge (ESU x 10^10)
                 0.0000
    Dipole Moment (Debye)
         X       0.6098      Y       1.3387      Z       0.1394
       Tot       1.4776
    Quadrupole Moments (Debye-Ang)
        XX     -61.8813     XY       1.4593     YY     -55.2332
        XZ      -0.0360     YZ      -0.2210     ZZ     -56.5851
    Octopole Moments (Debye-Ang^2)
       XXX     -18.4171    XXY     -21.6883    XYY      -4.6982
       YYY     -50.8225    XXZ       0.6059    XYZ      -4.2402
       YYZ       1.6825    XZZ      -0.9510    YZZ     -19.1831
       ZZZ      -3.6860
    Hexadecapole Moments (Debye-Ang^3)
      XXXX    -826.7518   XXXY     -37.6495   XXYY    -237.4838
      XYYY     -36.2480   YYYY    -640.6366   XXXZ      -6.7198
      XXYZ       2.8685   XYYZ       7.9078   YYYZ      -2.0164
      XXZZ    -159.9930   XYZZ     -14.1679   YYZZ    -125.1856
      XZZZ       3.1767   YZZZ      -8.3899   ZZZZ    -114.5400
 -----------------------------------------------------------------
 Calculating analytic gradient of the SCF energy
 Gradient of SCF Energy
            1           2           3           4           5           6
    1   0.0001546  -0.0000396   0.0000339  -0.0000303  -0.0000370  -0.0000639
    2   0.0001712   0.0000028  -0.0001093  -0.0000000   0.0000027  -0.0000238
    3   0.0000588  -0.0000077  -0.0000650   0.0000361   0.0000292   0.0000350
            7           8           9          10          11          12
    1  -0.0000368  -0.0000005  -0.0000146   0.0012392  -0.0012437  -0.0000342
    2   0.0000114   0.0000265   0.0000235   0.0534569  -0.0535457  -0.0000469
    3   0.0000035  -0.0000149  -0.0000098   0.0274676  -0.0274480  -0.0000848
           13
    1   0.0000729
    2   0.0000307
    3  -0.0000002
 Max gradient component =       5.355E-02
 RMS gradient           =       1.362E-02
 Gradient time:  CPU 19.36 s  wall 1.64 s
 Geometry Optimization Parameters
   NAtoms,    NIC,     NZ,  NCons,   NDum,   NFix, NCnnct, MaxDiis
       13      82       0       1       0       0       0       0

 Cartesian Hessian Update
 Hessian Updated using BFGS Update


** CONSTRAINED OPTIMIZATION IN DELOCALIZED INTERNAL COORDINATES **
   Searching for a Minimum

   Optimization Cycle:   3

                       Coordinates (Angstroms)
     ATOM                X               Y               Z
      1  C         0.0605379232    0.5778940307   -0.3532596933
      2  H         0.1168262135    0.7078707760   -1.4353844855
      3  C         0.3902999420    1.9007943865    0.3634348503
      4  H        -0.4390289929    2.6013024292    0.1925436036
      5  H         0.4370203534    1.7261690136    1.4439717090
      6  C         1.6888862091    2.5510884023   -0.1257246421
      7  H         1.8616099614    3.4937706458    0.4026855465
      8  H         2.5472666633    1.8973156374    0.0500615813
      9  H         1.6403488634    2.7729928654   -1.1973907629
     10  Se       -1.8203832766    0.1479779867    0.0995808521
     11  H        -1.8690732575   -1.8973312488   -0.9512941559
     12  Se        1.3554222348   -0.8885173809    0.0082514882
     13  H         0.8624651629   -1.1424255439    1.3760281087
   Point Group: c1    Number of degrees of freedom:    33


   Energy is  -4921.641926184

              Constraints and their Current Values
                                        Value     Constraint
   Distance(Angs):       10  11             2.300000     2.300000
 Hessian Updated using BFGS Update

 29 Hessian modes will be used to form the next step
  Hessian Eigenvalues:
     0.025472    0.044981    0.045001    0.067749    0.077071    0.081813
     0.082710    0.083610    0.086246    0.102975    0.105677    0.132975
     0.154152    0.156069    0.159434    0.159995    0.177331    0.179944
     0.196265    0.213546    0.262143    0.281999    0.294436    0.338123
     0.341592    0.342053    0.343510    0.344547    0.346522

 Minimum Search - Taking Simple RFO Step
 Searching for Lamda that Minimizes Along All modes
 Value Taken    Lamda =  -0.00000140
 Step Taken.  Stepsize is  0.007105

                             Maximum     Tolerance    Cnvgd?
         Gradient           0.000083      0.000300     YES
         Displacement       0.003169      0.001200      NO
         Energy change      0.000268      0.000001      NO


 New Cartesian Coordinates Obtained by Inverse Iteration

 Displacement from previous Coordinates is:  0.014480
 ----------------------------------------------------------------
             Standard Nuclear Orientation (Angstroms)
    I     Atom           X                Y                Z
 ----------------------------------------------------------------
    1      C       0.0605338532     0.5772500618    -0.3519565716
    2      H       0.1170816911     0.7076087839    -1.4339940080
    3      C       0.3902801323     1.9009361024     0.3643132276
    4      H      -0.4390745570     2.6013557522     0.1935121728
    5      H       0.4380538655     1.7268409206     1.4448226902
    6      C       1.6884829827     2.5510620895    -0.1266817697
    7      H       1.8618661071     3.4940685599     0.4009335140
    8      H       2.5469541176     1.8972747789     0.0485272128
    9      H       1.6385225470     2.7722286816    -1.1984094411
   10      Se     -1.8197341085     0.1474812411     0.1005098516
   11      H      -1.8681694638    -1.8950581206    -0.9557504563
   12      Se      1.3563069210    -0.8882106925     0.0105223760
   13      H       0.8610939119    -1.1439361588     1.3771552016
 ----------------------------------------------------------------
 Nuclear Repulsion Energy =   592.2169861768 hartrees
 There are       47 alpha and       47 beta electrons

                       Distance Matrix (Angstroms)
             C (  1)   H (  2)   C (  3)   H (  4)   H (  5)   C (  6)
   H (  2)  1.091328
   C (  3)  1.540753  2.175449
   H (  4)  2.155029  2.558195  1.098904
   H (  5)  2.166217  3.070740  1.095487  1.760656
   C (  6)  2.568443  2.752578  1.532668  2.152105  2.170838
   H (  7)  3.509910  3.765048  2.169096  2.476749  2.498007  1.094395
   H (  8)  2.843438  3.085037  2.179674  3.071338  2.534985  1.093210
   H (  9)  2.832748  2.575449  2.181596  2.506602  3.085553  1.095450
   Se( 10)  1.981120  2.533713  2.833436  2.817156  3.065805  4.258686
   H ( 11)  3.193238  3.308144  4.610069  4.856012  4.919306  5.753705
   Se( 12)  1.989471  2.483736  2.972830  3.928607  3.120721  3.458000
   H ( 13)  2.567724  3.447366  3.243264  4.137470  2.902568  4.074201
             H (  7)   H (  8)   H (  9)   Se( 10)   H ( 11)   Se( 12)
   H (  8)  1.772932
   H (  9)  1.768851  1.773596
   Se( 10)  4.984384  4.704513  4.531670
   H ( 11)  6.693015  5.906241  5.842888  2.300000
   Se( 12)  4.428587  3.029524  3.865227  3.341855  3.513499
   H ( 13)  4.844135  3.722411  4.751239  3.237966  3.668176  1.475912

 
 Applying Cartesian multipole field
    Component          Value
    ---------          -----
     (2,0,0)        1.00000E-11
     (0,2,0)        2.00000E-11
     (0,0,2)       -3.00000E-10
 Nucleus-field energy     =     0.0000000054 hartrees
 Requested basis set is 6-31G(d,p)
 There are 52 shells and 155 basis functions
 A cutoff of  1.0D-14 yielded   1236 shell pairs
 There are     11078 function pairs
 Smallest overlap matrix eigenvalue = 6.74E-04
 Guess from superposition of atomic densities
 Warning:  Energy on first SCF cycle will be non-variational
 SAD guess density has 93.936381 electrons

 -----------------------------------------------------------------------
  General SCF calculation program by
  Eric Jon Sundstrom, Paul Horn, Yuezhi Mao, Dmitri Zuev, Alec White,
  David Stuck, Shaama M.S., Shane Yost, Joonho Lee, David Small,
  Daniel Levine, Susi Lehtola, Hugh Burton, Evgeny Epifanovsky
 -----------------------------------------------------------------------
 Exchange:     0.2000 Hartree-Fock + 0.0800 Slater + 0.7200 B88
 Correlation:  0.1900 VWN1RPA + 0.8100 LYP
 Using SG-1 standard quadrature grid
 using 12 threads for integral computing
 -------------------------------------------------------
 OpenMP Integral computing Module                
 Release: version 1.0, May 2013, Q-Chem Inc. Pittsburgh 
 -------------------------------------------------------
 -------------------------------------------------------
 OpenMP BLAS3 based DFT computing Module                
 Release: version 1.0, May 2013, Q-Chem Inc. Pittsburgh 
 -------------------------------------------------------
 A unrestricted SCF calculation will be
 performed using DIIS
 SCF converges when DIIS error is below 1.0e-06
 Alpha HF Exchange    Energy = -18.85819390024663
 Beta HF Exchange     Energy = -18.85819390024663
 DFT Correlation      Energy =  -5.13781018914338
 DFT Exchange         Energy = -149.86798319581311
 One-Electron (alpha) Energy = -4009.86264022492969
 One-Electron (beta)  Energy = -4009.86264022492969
 Total Coulomb        Energy = 2692.45452354356848
 ---------------------------------------
  Cycle       Energy         DIIS error
 ---------------------------------------
    1   -4927.7759519096      1.50e-01  
 Alpha HF Exchange    Energy = -18.96638681747895
 Beta HF Exchange     Energy = -18.96638681747893
 DFT Correlation      Energy =  -5.19531352311625
 DFT Exchange         Energy = -151.01589210711637
 One-Electron (alpha) Energy = -4021.82514981730083
 One-Electron (beta)  Energy = -4021.82514981729855
 Total Coulomb        Energy = 2724.12945904403523
    2   -4921.4478336736      9.44e-03  
 Alpha HF Exchange    Energy = -18.81460300025822
 Beta HF Exchange     Energy = -18.81460300025823
 DFT Correlation      Energy =  -5.13826380963723
 DFT Exchange         Energy = -149.79054368355480
 One-Electron (alpha) Energy = -4000.31820856989088
 One-Electron (beta)  Energy = -4000.31820856989179
 Total Coulomb        Energy = 2679.72962251151785
    3   -4921.2478219398      5.09e-03  
 Alpha HF Exchange    Energy = -18.96669791841409
 Beta HF Exchange     Energy = -18.96669791841408
 DFT Correlation      Energy =  -5.19855327260597
 DFT Exchange         Energy = -150.99267786930454
 One-Electron (alpha) Energy = -4022.63159631711324
 One-Electron (beta)  Energy = -4022.63159631711324
 Total Coulomb        Energy = 2725.90155092896748
    4   -4921.2692825018      4.45e-03  
 Alpha HF Exchange    Energy = -18.89698954096467
 Beta HF Exchange     Energy = -18.89698954096466
 DFT Correlation      Energy =  -5.16935313684540
 DFT Exchange         Energy = -150.46078615339832
 One-Electron (alpha) Energy = -4012.64204834007523
 One-Electron (beta)  Energy = -4012.64204834007342
 Total Coulomb        Energy = 2704.86742156131413
    5   -4921.6238073089      1.20e-03  
 Alpha HF Exchange    Energy = -18.89134543778733
 Beta HF Exchange     Energy = -18.89134543778733
 DFT Correlation      Energy =  -5.16915973308487
 DFT Exchange         Energy = -150.41908214824394
 One-Electron (alpha) Energy = -4012.58593822773901
 One-Electron (beta)  Energy = -4012.58593822773946
 Total Coulomb        Energy = 2704.68505488091660
    6   -4921.6407681493      3.18e-04  
 Alpha HF Exchange    Energy = -18.89272510427885
 Beta HF Exchange     Energy = -18.89272510427885
 DFT Correlation      Energy =  -5.16880177696258
 DFT Exchange         Energy = -150.42966251487258
 One-Electron (alpha) Energy = -4012.45352589922959
 One-Electron (beta)  Energy = -4012.45352589922732
 Total Coulomb        Energy = 2704.43232550126504
    7   -4921.6416546154      1.16e-04  
 Alpha HF Exchange    Energy = -18.89367480958704
 Beta HF Exchange     Energy = -18.89367480958702
 DFT Correlation      Energy =  -5.16938858221408
 DFT Exchange         Energy = -150.43728102544202
 One-Electron (alpha) Energy = -4012.68988320603466
 One-Electron (beta)  Energy = -4012.68988320603376
 Total Coulomb        Energy = 2704.91487885593824
    8   -4921.6419206008      2.61e-05  
 Alpha HF Exchange    Energy = -18.89366035068596
 Beta HF Exchange     Energy = -18.89366035068598
 DFT Correlation      Energy =  -5.16940559948191
 DFT Exchange         Energy = -150.43708939172984
 One-Electron (alpha) Energy = -4012.68661451193384
 One-Electron (beta)  Energy = -4012.68661451193566
 Total Coulomb        Energy = 2704.90813285629156
    9   -4921.6419256780      9.28e-06  
 Alpha HF Exchange    Energy = -18.89361783270788
 Beta HF Exchange     Energy = -18.89361783270789
 DFT Correlation      Energy =  -5.16936979470895
 DFT Exchange         Energy = -150.43677879068031
 One-Electron (alpha) Energy = -4012.66985051361235
 One-Electron (beta)  Energy = -4012.66985051361280
 Total Coulomb        Energy = 2704.87417255193668
   10   -4921.6419265439      5.30e-06  
 Alpha HF Exchange    Energy = -18.89363930256703
 Beta HF Exchange     Energy = -18.89363930256701
 DFT Correlation      Energy =  -5.16937882084829
 DFT Exchange         Energy = -150.43692029030757
 One-Electron (alpha) Energy = -4012.67804620866173
 One-Electron (beta)  Energy = -4012.67804620866036
 Total Coulomb        Energy = 2704.89075682922885
   11   -4921.6419271222      1.01e-06  
 Alpha HF Exchange    Energy = -18.89363883575991
 Beta HF Exchange     Energy = -18.89363883575993
 DFT Correlation      Energy =  -5.16938165710703
 DFT Exchange         Energy = -150.43692165603150
 One-Electron (alpha) Energy = -4012.67806441055245
 One-Electron (beta)  Energy = -4012.67806441055473
 Total Coulomb        Energy = 2704.89079649191353
   12   -4921.6419271317      1.71e-07  Convergence criterion met
 ---------------------------------------
 SCF time:   CPU 58.51s  wall 5.00s 
<S^2> =          0.000000000
 Alpha HF Exchange    Energy = -18.89363883575991
 Beta HF Exchange     Energy = -18.89363883575993
 DFT Correlation      Energy =  -5.16938165710703
 DFT Exchange         Energy = -150.43692165603150
 One-Electron (alpha) Energy = -4012.67806441055245
 One-Electron (beta)  Energy = -4012.67806441055473
 Total Coulomb        Energy = 2704.89079649191353
 Nuclear repulsion Energy = 592.21698618214714
 SCF   energy in the final basis set =    -4921.6419271317
 Total energy in the final basis set =    -4921.6419271317
 
 --------------------------------------------------------------
 
                    Orbital Energies (a.u.)
 --------------------------------------------------------------
 
 Alpha MOs
 -- Occupied --
*******-453.901 -58.114 -58.097 -52.172 -52.170 -52.167 -52.155
-52.153 -52.151 -10.260 -10.210 -10.188  -7.845  -7.830  -5.792
 -5.787  -5.776  -5.776  -5.772  -5.762  -2.125  -2.125  -2.115
 -2.112  -2.110  -2.109  -2.109  -2.101  -2.098  -2.096  -0.821
 -0.738  -0.689  -0.636  -0.582  -0.470  -0.439  -0.426  -0.387
 -0.378  -0.361  -0.345  -0.319  -0.298  -0.242  -0.224
 -- Virtual --
 -0.125  -0.021   0.029   0.043   0.093   0.118   0.138   0.151
  0.164   0.170   0.190   0.222   0.232   0.242   0.275   0.288
  0.298   0.313   0.335   0.353   0.448   0.456   0.475   0.492
  0.520   0.552   0.568   0.591   0.608   0.628   0.632   0.667
  0.715   0.748   0.771   0.825   0.832   0.851   0.860   0.868
  0.890   0.912   0.921   0.938   0.944   1.007   1.051   1.116
  1.335   1.378   1.439   1.527   1.542   1.606   1.656   1.698
  1.774   1.824   1.864   1.953   2.011   2.020   2.038   2.053
  2.061   2.080   2.094   2.110   2.115   2.131   2.152   2.246
  2.299   2.354   2.436   2.479   2.523   2.593   2.621   2.671
  2.712   2.746   2.814   2.876   2.897   3.184   3.271   3.304
  3.408   3.458   3.524   4.179   4.225   4.263   4.280   4.300
  4.324   4.343   4.352   4.393   4.406   4.487   4.519   4.630
  5.443   5.475  89.685  89.810
 
 Beta MOs
 -- Occupied --
*******-453.901 -58.114 -58.097 -52.172 -52.170 -52.167 -52.155
-52.153 -52.151 -10.260 -10.210 -10.188  -7.845  -7.830  -5.792
 -5.787  -5.776  -5.776  -5.772  -5.762  -2.125  -2.125  -2.115
 -2.112  -2.110  -2.109  -2.109  -2.101  -2.098  -2.096  -0.821
 -0.738  -0.689  -0.636  -0.582  -0.470  -0.439  -0.426  -0.387
 -0.378  -0.361  -0.345  -0.319  -0.298  -0.242  -0.224
 -- Virtual --
 -0.125  -0.021   0.029   0.043   0.093   0.118   0.138   0.151
  0.164   0.170   0.190   0.222   0.232   0.242   0.275   0.288
  0.298   0.313   0.335   0.353   0.448   0.456   0.475   0.492
  0.520   0.552   0.568   0.591   0.608   0.628   0.632   0.667
  0.715   0.748   0.771   0.825   0.832   0.851   0.860   0.868
  0.890   0.912   0.921   0.938   0.944   1.007   1.051   1.116
  1.335   1.378   1.439   1.527   1.542   1.606   1.656   1.698
  1.774   1.824   1.864   1.953   2.011   2.020   2.038   2.053
  2.061   2.080   2.094   2.110   2.115   2.131   2.152   2.246
  2.299   2.354   2.436   2.479   2.523   2.593   2.621   2.671
  2.712   2.746   2.814   2.876   2.897   3.184   3.271   3.304
  3.408   3.458   3.524   4.179   4.225   4.263   4.280   4.300
  4.324   4.343   4.352   4.393   4.406   4.487   4.519   4.630
  5.443   5.475  89.685  89.810
 --------------------------------------------------------------
 
          Ground-State Mulliken Net Atomic Charges

     Atom                 Charge (a.u.)    Spin (a.u.)
  --------------------------------------------------------
      1 C                    -0.228252       0.000000
      2 H                     0.157654      -0.000000
      3 C                    -0.195384       0.000000
      4 H                     0.120914      -0.000000
      5 H                     0.124504      -0.000000
      6 C                    -0.327813      -0.000000
      7 H                     0.112429      -0.000000
      8 H                     0.139004      -0.000000
      9 H                     0.108285       0.000000
     10 Se                   -0.051949      -0.000000
     11 H                     0.027707      -0.000000
     12 Se                   -0.056903      -0.000000
     13 H                     0.069801       0.000000
  --------------------------------------------------------
  Sum of atomic charges =    -0.000000
  Sum of spin   charges =    -0.000000

 -----------------------------------------------------------------
                    Cartesian Multipole Moments
 -----------------------------------------------------------------
    Charge (ESU x 10^10)
                -0.0000
    Dipole Moment (Debye)
         X       0.6068      Y       1.3391      Z       0.1385
       Tot       1.4767
    Quadrupole Moments (Debye-Ang)
        XX     -61.8784     XY       1.4590     YY     -55.2416
        XZ      -0.0398     YZ      -0.2190     ZZ     -56.5798
    Octopole Moments (Debye-Ang^2)
       XXX     -18.5008    XXY     -21.6796    XYY      -4.7128
       YYY     -50.7966    XXZ       0.5266    XYZ      -4.2509
       YYZ       1.6292    XZZ      -1.0021    YZZ     -19.1856
       ZZZ      -3.8546
    Hexadecapole Moments (Debye-Ang^3)
      XXXX    -826.5845   XXXY     -37.6541   XXYY    -237.4933
      XYYY     -36.2466   YYYY    -640.5561   XXXZ      -6.8190
      XXYZ       2.9085   XYYZ       7.9021   YYYZ      -1.9264
      XXZZ    -159.9696   XYZZ     -14.1657   YYZZ    -125.1604
      XZZZ       3.1191   YZZZ      -8.2844   ZZZZ    -114.6288
 -----------------------------------------------------------------
 Calculating analytic gradient of the SCF energy
 Gradient of SCF Energy
            1           2           3           4           5           6
    1   0.0000081  -0.0000477  -0.0000624   0.0000082  -0.0000312   0.0000197
    2  -0.0001189   0.0000620  -0.0000272   0.0000171   0.0000090   0.0000215
    3  -0.0000322   0.0000163   0.0000933   0.0000264   0.0000017  -0.0000261
            7           8           9          10          11          12
    1  -0.0000335  -0.0000163  -0.0000267   0.0013390  -0.0012191   0.0000022
    2   0.0000168   0.0000194   0.0000140   0.0534433  -0.0534554  -0.0000246
    3   0.0000014  -0.0000149   0.0000025   0.0275887  -0.0275942  -0.0000647
           13
    1   0.0000596
    2   0.0000230
    3   0.0000020
 Max gradient component =       5.346E-02
 RMS gradient           =       1.362E-02
 Gradient time:  CPU 19.88 s  wall 1.68 s
 Geometry Optimization Parameters
   NAtoms,    NIC,     NZ,  NCons,   NDum,   NFix, NCnnct, MaxDiis
       13      82       0       1       0       0       0       0

 Cartesian Hessian Update
 Hessian Updated using BFGS Update


** CONSTRAINED OPTIMIZATION IN DELOCALIZED INTERNAL COORDINATES **
   Searching for a Minimum

   Optimization Cycle:   4

                       Coordinates (Angstroms)
     ATOM                X               Y               Z
      1  C         0.0605338532    0.5772500618   -0.3519565716
      2  H         0.1170816911    0.7076087839   -1.4339940080
      3  C         0.3902801323    1.9009361024    0.3643132276
      4  H        -0.4390745570    2.6013557522    0.1935121728
      5  H         0.4380538655    1.7268409206    1.4448226902
      6  C         1.6884829827    2.5510620895   -0.1266817697
      7  H         1.8618661071    3.4940685599    0.4009335140
      8  H         2.5469541176    1.8972747789    0.0485272128
      9  H         1.6385225470    2.7722286816   -1.1984094411
     10  Se       -1.8197341085    0.1474812411    0.1005098516
     11  H        -1.8681694638   -1.8950581206   -0.9557504563
     12  Se        1.3563069210   -0.8882106925    0.0105223760
     13  H         0.8610939119   -1.1439361588    1.3771552016
   Point Group: c1    Number of degrees of freedom:    33


   Energy is  -4921.641927132

              Constraints and their Current Values
                                        Value     Constraint
   Distance(Angs):       10  11             2.300000     2.300000
 Hessian Updated using BFGS Update

 31 Hessian modes will be used to form the next step
  Hessian Eigenvalues:
     0.011968    0.044991    0.045000    0.045032    0.067873    0.077626
     0.081895    0.082912    0.083625    0.086097    0.105301    0.111567
     0.133422    0.154856    0.159379    0.159865    0.159996    0.162603
     0.179478    0.184741    0.197650    0.214459    0.278337    0.293216
     0.306797    0.338058    0.341925    0.342271    0.343466    0.344595
     0.347138

 Minimum Search - Taking Simple RFO Step
 Searching for Lamda that Minimizes Along All modes
 Value Taken    Lamda =   0.00000000
 Step Taken.  Stepsize is  0.007782

                             Maximum     Tolerance    Cnvgd?
         Gradient           0.000064      0.000300     YES
         Displacement       0.003754      0.001200      NO
         Energy change     -0.000001      0.000001     YES


                       Distance Matrix (Angstroms)
             C (  1)   H (  2)   C (  3)   H (  4)   H (  5)   C (  6)
   H (  2)  1.091328
   C (  3)  1.540753  2.175449
   H (  4)  2.155029  2.558195  1.098904
   H (  5)  2.166217  3.070740  1.095487  1.760656
   C (  6)  2.568443  2.752578  1.532668  2.152105  2.170838
   H (  7)  3.509910  3.765048  2.169096  2.476749  2.498007  1.094395
   H (  8)  2.843438  3.085037  2.179674  3.071338  2.534985  1.093210
   H (  9)  2.832748  2.575449  2.181596  2.506602  3.085553  1.095450
   Se( 10)  1.981120  2.533713  2.833436  2.817156  3.065805  4.258686
   H ( 11)  3.193238  3.308144  4.610069  4.856012  4.919306  5.753705
   Se( 12)  1.989471  2.483736  2.972830  3.928607  3.120721  3.458000
   H ( 13)  2.567724  3.447366  3.243264  4.137470  2.902568  4.074201
             H (  7)   H (  8)   H (  9)   Se( 10)   H ( 11)   Se( 12)
   H (  8)  1.772932
   H (  9)  1.768851  1.773596
   Se( 10)  4.984384  4.704513  4.531670
   H ( 11)  6.693015  5.906241  5.842888  2.300000
   Se( 12)  4.428587  3.029524  3.865227  3.341855  3.513499
   H ( 13)  4.844135  3.722411  4.751239  3.237966  3.668176  1.475912

 
 Final energy is   -4921.64192713170     


 ******************************
 **  OPTIMIZATION CONVERGED  **
 ******************************

                       Coordinates (Angstroms)
     ATOM                X               Y               Z
      1  C         0.0605338532    0.5772500618   -0.3519565716
      2  H         0.1170816911    0.7076087839   -1.4339940080
      3  C         0.3902801323    1.9009361024    0.3643132276
      4  H        -0.4390745570    2.6013557522    0.1935121728
      5  H         0.4380538655    1.7268409206    1.4448226902
      6  C         1.6884829827    2.5510620895   -0.1266817697
      7  H         1.8618661071    3.4940685599    0.4009335140
      8  H         2.5469541176    1.8972747789    0.0485272128
      9  H         1.6385225470    2.7722286816   -1.1984094411
     10  Se       -1.8197341085    0.1474812411    0.1005098516
     11  H        -1.8681694638   -1.8950581206   -0.9557504563
     12  Se        1.3563069210   -0.8882106925    0.0105223760
     13  H         0.8610939119   -1.1439361588    1.3771552016

Z-matrix Print:
$molecule
0 1
Se
H  1 1.475912
C  1 1.989471 2 94.462212
H  3 1.091328 1 103.584959 2 -165.423297 0
C  3 1.540753 1 114.125648 2 74.601792 0
H  5 1.095487 3 109.349466 1 -57.663046 0
H  5 1.098904 3 108.288823 1 -173.575213 0
C  5 1.532668 3 113.376355 1 65.828289 0
H  8 1.093210 5 111.107845 3 -61.080325 0
H  8 1.094395 5 110.197055 3 178.904478 0
H  8 1.095450 5 111.126327 3 59.533850 0
Se 3 1.981120 1 114.629759 2 -48.548057 0
H  12 2.300000 3 96.185603 1 -48.259117 0
$end

PES scan, value:    2.3000 energy: -4921.6419271317
------- Summary of potential scan: ------ 
    2.3000     -4921.6419271317
----------------------------------------- 
Archival summary:
1\1\hpc0248\JobtypUnspecified\ProcedureUnspecified\6-31G**\e238\knomura\ThuMar1400:43:442019ThuMar1400:43:442019\0\\#,JobtypUnspecified,ProcedureUnspecified,6-31G**,\\0,1\Se\H,1,1.47591\C,1,1.98947,2,94.4622\H,3,1.09133,1,103.585,2,-165.423,0\C,3,1.54075,1,114.126,2,74.6018,0\H,5,1.09549,3,109.349,1,-57.663,0\H,5,1.0989,3,108.289,1,-173.575,0\C,5,1.53267,3,113.376,1,65.8283,0\H,8,1.09321,5,111.108,3,-61.0803,0\H,8,1.0944,5,110.197,3,178.904,0\H,8,1.09545,5,111.126,3,59.5338,0\Se,3,1.98112,1,114.63,2,-48.5481,0\H,12,2.3,3,96.1856,1,-48.2591,0\\\@

 Total job time:  28.32s(wall), 330.23s(cpu) 
 Thu Mar 14 00:43:44 2019

        *************************************************************
        *                                                           *
        *  Thank you very much for using Q-Chem.  Have a nice day.  *
        *                                                           *
        *************************************************************


