
Running Job 1 of 1 selenium/02/Se-H.xyz.data/inputs/bond_triplet_3.7.in
qchem selenium/02/Se-H.xyz.data/inputs/bond_triplet_3.7.in_5332.0 /staging/scratch/2868765/qchem5332/ 1
/usr/usc/qchem/5.1.1/exe/qcprog.exe_s selenium/02/Se-H.xyz.data/inputs/bond_triplet_3.7.in_5332.0 /staging/scratch/2868765/qchem5332/
Check license passed

                  Welcome to Q-Chem
     A Quantum Leap Into The Future Of Chemistry


 Q-Chem 5.1, Q-Chem, Inc., Pleasanton, CA (2018)

 Yihan Shao,  Zhengting Gan,  E. Epifanovsky,  A. T. B. Gilbert,  M. Wormit,  
 J. Kussmann,  A. W. Lange,  A. Behn,  Jia Deng,  Xintian Feng,  D. Ghosh,  
 M. Goldey,  P. R. Horn,  L. D. Jacobson,  I. Kaliman,  T. Kus,  A. Landau,  
 Jie Liu,  E. I. Proynov,  R. M. Richard,  R. P. Steele,  E. J. Sundstrom,  
 H. L. Woodcock III,  P. M. Zimmerman,  D. Zuev,  B. Albrecht,  E. Alguire,  
 S. A. Baeppler,  D. Barton,  Z. Benda,  Y. A. Bernard,  E. J. Berquist,  
 K. B. Bravaya,  H. Burton,  D. Casanova,  Chun-Min Chang,  Yunqing Chen,  
 A. Chien,  K. D. Closser,  M. P. Coons,  S. Coriani,  S. Dasgupta,  
 A. L. Dempwolff,  M. Diedenhofen,  Hainam Do,  R. G. Edgar,  Po-Tung Fang,  
 S. Faraji,  S. Fatehi,  Qingguo Feng,  K. D. Fenk,  J. Fosso-Tande,  
 Qinghui Ge,  A. Ghysels,  G. Gidofalvi,  J. Gomes,  J. Gonthier,  A. Gunina,  
 D. Hait,  M. W. D. Hanson-Heine,  P. H. P. Harbach,  A. W. Hauser,  
 J. E. Herr,  E. G. Hohenstein,  Z. C. Holden,  Kerwin Hui,  B. C. Huynh,  
 T.-C. Jagau,  Hyunjun Ji,  B. Kaduk,  K. Khistyaev,  Jaehoon Kim,  
 P. Klunzinger,  K. Koh,  D. Kosenkov,  L. Koulias,  T. Kowalczyk,  
 C. M. Krauter,  A. Kunitsa,  Ka Un Lao,  A. Laurent,  K. V. Lawler,  
 Joonho Lee,  D. Lefrancois,  S. Lehtola,  D. S. Levine,  Yi-Pei Li,  
 You-Sheng Lin,  Fenglai Liu,  E. Livshits,  A. Luenser,  P. Manohar,  
 E. Mansoor,  S. F. Manzer,  Shan-Ping Mao,  Yuezhi Mao,  N. Mardirossian,  
 A. V. Marenich,  T. Markovich,  L. A. Martinez-Martinez,  S. A. Maurer,  
 N. J. Mayhall,  S. C. McKenzie,  J.-M. Mewes,  A. F. Morrison,  
 J. W. Mullinax,  K. Nanda,  T. S. Nguyen-Beck,  R. Olivares-Amaya,  
 J. A. Parkhill,  T. M. Perrine,  F. Plasser,  P. Pokhilko,  S. Prager,  
 A. Prociuk,  E. Ramos,  D. R. Rehn,  F. Rob,  M. Schneider,  N. Sergueev,  
 S. M. Sharada,  S. Sharma,  D. W. Small,  T. Stauch,  T. Stein,  
 Yu-Chuan Su,  A. J. W. Thom,  A. Tkatchenko,  T. Tsuchimochi,  N. M. Tubman,  
 L. Vogt,  M. L. Vidal,  O. Vydrov,  M. A. Watson,  J. Wenzel,  
 M. de Wergifosse,  T. A. Wesolowski,  A. White,  J. Witte,  A. Yamada,  
 Jun Yang,  K. Yao,  S. Yeganeh,  S. R. Yost,  Zhi-Qiang You,  A. Zech,  
 Igor Ying Zhang,  Xing Zhang,  Yan Zhao,  Ying Zhu,  B. R. Brooks,  
 G. K. L. Chan,  C. J. Cramer,  M. S. Gordon,  W. J. Hehre,  A. Klamt,  
 M. W. Schmidt,  C. D. Sherrill,  D. G. Truhlar,  A. Aspuru-Guzik,  R. Baer,  
 A. T. Bell,  N. A. Besley,  Jeng-Da Chai,  A. E. DePrince, III,  
 R. A. DiStasio Jr.,  A. Dreuw,  B. D. Dunietz,  T. R. Furlani,  
 Chao-Ping Hsu,  Yousung Jung,  Jing Kong,  D. S. Lambrecht,  WanZhen Liang,  
 C. Ochsenfeld,  V. A. Rassolov,  L. V. Slipchenko,  J. E. Subotnik,  
 T. Van Voorhis,  J. M. Herbert,  A. I. Krylov,  P. M. W. Gill,  M. Head-Gordon

 Contributors to earlier versions of Q-Chem not listed above: 
 R. D. Adamson,  B. Austin,  J. Baker,  G. J. O. Beran,  K. Brandhorst,  
 S. T. Brown,  E. F. C. Byrd,  A. K. Chakraborty,  C.-L. Cheng,  
 Siu Hung Chien,  D. M. Chipman,  D. L. Crittenden,  H. Dachsel,  
 R. J. Doerksen,  A. D. Dutoi,  L. Fusti-Molnar,  W. A. Goddard III,  
 A. Golubeva-Zadorozhnaya,  S. R. Gwaltney,  G. Hawkins,  A. Heyden,  
 S. Hirata,  G. Kedziora,  F. J. Keil,  C. Kelley,  Jihan Kim,  R. A. King,  
 R. Z. Khaliullin,  P. P. Korambath,  W. Kurlancheek,  A. M. Lee,  M. S. Lee,  
 S. V. Levchenko,  Ching Yeh Lin,  D. Liotard,  R. C. Lochan,  I. Lotan,  
 P. E. Maslen,  N. Nair,  D. P. O'Neill,  D. Neuhauser,  E. Neuscamman,  
 C. M. Oana,  R. Olson,  B. Peters,  R. Peverati,  P. A. Pieniazek,  
 Y. M. Rhee,  J. Ritchie,  M. A. Rohrdanz,  E. Rosta,  N. J. Russ,  
 H. F. Schaefer III,  N. E. Schultz,  N. Shenvi,  A. C. Simmonett,  A. Sodt,  
 D. Stuck,  K. S. Thanthiriwatte,  V. Vanovschi,  Tao Wang,  A. Warshel,  
 C. F. Williams,  Q. Wu,  X. Xu,  W. Zhang

 Please cite Q-Chem as follows:
 Y. Shao et al., Mol. Phys. 113, 184-215 (2015)
 DOI: 10.1080/00268976.2014.952696

 Q-Chem 5.1.1 for Intel X86 EM64T Linux

 Parts of Q-Chem use Armadillo 8.300.2 (Tropical Shenanigans).
 http://arma.sourceforge.net/

 Q-Chem begins on Thu Mar 14 04:01:17 2019  

Host: 
0

     Scratch files written to /staging/scratch/2868765/qchem5332//
 Aug318 |scratch|qcdevops|jenkins|workspace|build_RNUM 6013   
Processing $rem in /usr/usc/qchem/5.1.1/config/preferences.
 MEM_TOTAL  2000 
Input Ideriv = 2
Curr. Ideriv = -1
Max.  Ideriv = 2

Checking the input file for inconsistencies... 	...done.

--------------------------------------------------------------
User input:
--------------------------------------------------------------

$comment
potential surface scanner
$end

$rem
JOBTYPE  PES_SCAN
UNRESTRICTED TRUE
SYM_IGNORE  TRUE
GEOM_OPT_MAX_CYCLES 400
SCF_MAX_CYCLES 400
METHOD   B3LYP
BASIS   6-31G**
PDB_PRINT 2
SCF_CONVERGENCE 6
THRESH 14
SCF_PRINT 1
$end
$molecule
0 3
C 0.140352 0.965359 -0.775003
H 0.245279 1.491399 -1.726791
C 0.436109 1.882559 0.408033
H -0.388837 2.605852 0.457657
H 0.385133 1.302831 1.336340
C 1.766196 2.637101 0.309624
H 1.878293 3.319518 1.157736
H 2.619835 1.953310 0.311669
H 1.817541 3.235213 -0.606813
Se -1.571286 0.016094 -0.724162
H -3.082793 -3.314356 0.307076
Se 1.379013 -0.591391 -0.986609
H 1.207363 -1.054590 0.404742
$end
$scan
stre 10 11 3.700000 3.701000 0.100000
$end
--------------------------------------------------------------
 ----------------------------------------------------------------
             Standard Nuclear Orientation (Angstroms)
    I     Atom           X                Y                Z
 ----------------------------------------------------------------
    1      C       0.1403520000     0.9653590000    -0.7750030000
    2      H       0.2452790000     1.4913990000    -1.7267910000
    3      C       0.4361090000     1.8825590000     0.4080330000
    4      H      -0.3888370000     2.6058520000     0.4576570000
    5      H       0.3851330000     1.3028310000     1.3363400000
    6      C       1.7661960000     2.6371010000     0.3096240000
    7      H       1.8782930000     3.3195180000     1.1577360000
    8      H       2.6198350000     1.9533100000     0.3116690000
    9      H       1.8175410000     3.2352130000    -0.6068130000
   10      Se     -1.5712860000     0.0160940000    -0.7241620000
   11      H      -3.0827930000    -3.3143560000     0.3070760000
   12      Se      1.3790130000    -0.5913910000    -0.9866090000
   13      H       1.2073630000    -1.0545900000     0.4047420000
 ----------------------------------------------------------------
 Nuclear Repulsion Energy =   602.2048133993 hartrees
 There are       48 alpha and       46 beta electrons
 Requested basis set is 6-31G(d,p)
 There are 52 shells and 155 basis functions

 Total QAlloc Memory Limit   2000 MB
 Mega-Array Size       188 MB
 MEM_STATIC part       192 MB
A total of 1 constraints
  
            1
    1   1.0100000
    2  10.0100000
    3  11.0100000
    4   3.7000000
    5   3.7010000
    6   0.1000000
    7   0.0000000
    8   0.0000000
    9   0.0000000
   10   0.0000000

                       Distance Matrix (Angstroms)
             C (  1)   H (  2)   C (  3)   H (  4)   H (  5)   C (  6)
   H (  2)  1.092533
   C (  3)  1.525878  2.178737
   H (  4)  2.119129  2.532967  1.098249
   H (  5)  2.152109  3.072115  1.095645  1.751850
   C (  6)  2.571868  2.787976  1.532367  2.160337  2.177558
   H (  7)  3.506848  3.785400  2.169516  2.477763  2.515642  1.094327
   H (  8)  2.881794  3.163415  2.186996  3.082082  2.543023  1.093743
   H (  9)  2.827276  2.601393  2.183561  2.529288  3.092206  1.095551
   Se( 10)  1.957905  2.545918  2.965669  3.082487  3.119124  4.367743
   H ( 11)  5.465850  6.189342  6.277005  6.506069  5.865519  7.676753
   Se( 12)  2.000632  2.484197  2.992411  3.928557  3.157842  3.500470
   H ( 13)  2.571090  3.457036  3.036723  3.993681  2.664840  3.734960
             H (  7)   H (  8)   H (  9)   Se( 10)   H ( 11)   Se( 12)
   H (  8)  1.769813
   H (  9)  1.767606  1.769339
   Se( 10)  5.133590  4.731939  4.675537
   H ( 11)  8.327321  7.763266  8.230755  3.800000
   Se( 12)  4.488063  3.114590  3.870329  3.023604  5.384782
   H ( 13)  4.488872  3.324335  4.449491  3.184600  4.849899  1.476440

 
 A cutoff of  1.0D-14 yielded   1201 shell pairs
 There are     10898 function pairs
 
 -------------------------------------------------------
 OpenMP Integral Computing Module                       
 Release: version 1.0, May 2013, Q-Chem Inc. Pittsburgh 
 -------------------------------------------------------
 Integral Job Info:
 Integral job number is                      11
 Integral operator is                         1
 short-range coefficients                     0
 long-range coefficients              100000000
 Omega coefficients                           0
 if combine SR and LR in K                    0
 Integral screening is                        0
 Integral computing path is                   2
 max size of driver memory is            800000
 size of driver memory is                593474
 size of scratch memory is             15267112
 max col of scratch BK array               1296
 max len of scratch array in speh3          155
 max len of scratch index in speh4           18
 max int batch size is                      520
 min int batch size is                       52
 fixed nKL is                                52
 max L of basis functions is                  2
 order of int derivative is                   0
 number of shells is                         52
 number of basis is                         155
 number of cartesian basis is               155
 number of contracted shell pairs          1201
 number of primitive shell pairs           4863
 maxK2 (contraction) of shell pair           36
 max number of K2 of shell pair               1
 max number of CS2 of shell pair             82
 max number of PS2 of shell pair            474
 mem total for path MDJ                  535932
 -------------------------------------------------------
 Smallest overlap matrix eigenvalue = 6.74E-04

 Scale SEOQF with 1.000000e-01/1.000000e-01/1.000000e-01

 Standard Electronic Orientation quadrupole field applied
 Nucleus-field energy     =     0.0000000093 hartrees
 Guess from superposition of atomic densities
 Warning:  Energy on first SCF cycle will be non-variational
 SAD guess density has 93.936381 electrons

 -----------------------------------------------------------------------
  General SCF calculation program by
  Eric Jon Sundstrom, Paul Horn, Yuezhi Mao, Dmitri Zuev, Alec White,
  David Stuck, Shaama M.S., Shane Yost, Joonho Lee, David Small,
  Daniel Levine, Susi Lehtola, Hugh Burton, Evgeny Epifanovsky
 -----------------------------------------------------------------------
 Exchange:     0.2000 Hartree-Fock + 0.0800 Slater + 0.7200 B88
 Correlation:  0.1900 VWN1RPA + 0.8100 LYP
 Using SG-1 standard quadrature grid
 using 12 threads for integral computing
 -------------------------------------------------------
 OpenMP Integral computing Module                
 Release: version 1.0, May 2013, Q-Chem Inc. Pittsburgh 
 -------------------------------------------------------
 -------------------------------------------------------
 OpenMP BLAS3 based DFT computing Module                
 Release: version 1.0, May 2013, Q-Chem Inc. Pittsburgh 
 -------------------------------------------------------
 A unrestricted SCF calculation will be
 performed using DIIS
 SCF converges when DIIS error is below 1.0e-06
 Alpha HF Exchange    Energy = -18.85752285105036
 Beta HF Exchange     Energy = -18.85752285105036
 DFT Correlation      Energy =  -5.13399208186480
 DFT Exchange         Energy = -149.86705379126218
 One-Electron (alpha) Energy = -4019.82559449394421
 One-Electron (beta)  Energy = -4019.82559449394421
 Total Coulomb        Energy = 2702.33171656029072
 ---------------------------------------
  Cycle       Energy         DIIS error
 ---------------------------------------
    1   -4927.8307505942      1.50e-01  
 Alpha HF Exchange    Energy = -19.04716855523305
 Beta HF Exchange     Energy = -18.88249367220116
 DFT Correlation      Energy =  -5.16900920102020
 DFT Exchange         Energy = -151.00194756899100
 One-Electron (alpha) Energy = -4049.05114653166856
 One-Electron (beta)  Energy = -4009.84678633734666
 Total Coulomb        Energy = 2729.33213851351957
    2   -4921.4615999443      9.32e-03  
 Alpha HF Exchange    Energy = -18.91888519654182
 Beta HF Exchange     Energy = -18.76598906163637
 DFT Correlation      Energy =  -5.12823088241038
 DFT Exchange         Energy = -149.99753741449197
 One-Electron (alpha) Energy = -4035.01453805903020
 One-Electron (beta)  Energy = -3996.95460953620386
 Total Coulomb        Energy = 2701.12136056104737
    3   -4921.4536161806      3.77e-03  
 Alpha HF Exchange    Energy = -19.02654477443802
 Beta HF Exchange     Energy = -18.86162078814263
 DFT Correlation      Energy =  -5.16182775754213
 DFT Exchange         Energy = -150.82617217342317
 One-Electron (alpha) Energy = -4045.97304432310875
 One-Electron (beta)  Energy = -4006.93984663625406
 Total Coulomb        Energy = 2723.11742848730410
    4   -4921.4668145570      3.30e-03  
 Alpha HF Exchange    Energy = -18.99335155128005
 Beta HF Exchange     Energy = -18.83455928163886
 DFT Correlation      Energy =  -5.14921394806559
 DFT Exchange         Energy = -150.56644343883931
 One-Electron (alpha) Energy = -4043.02057825522070
 One-Electron (beta)  Energy = -4004.31434528946738
 Total Coulomb        Energy = 2717.08044334972237
    5   -4921.5932350062      1.09e-03  
 Alpha HF Exchange    Energy = -18.98564486727214
 Beta HF Exchange     Energy = -18.82522156331311
 DFT Correlation      Energy =  -5.14820356139132
 DFT Exchange         Energy = -150.50498387003182
 One-Electron (alpha) Energy = -4042.15601676095548
 One-Electron (beta)  Energy = -4003.39598568894917
 Total Coulomb        Energy = 2715.20377373797191
    6   -4921.6074691653      7.61e-05  
 Alpha HF Exchange    Energy = -18.98473004267565
 Beta HF Exchange     Energy = -18.82457487628721
 DFT Correlation      Energy =  -5.14774132201032
 DFT Exchange         Energy = -150.49765791381003
 One-Electron (alpha) Energy = -4041.97257848709751
 One-Electron (beta)  Energy = -4003.22864232036318
 Total Coulomb        Energy = 2714.84354937426269
    7   -4921.6075621794      6.84e-05  
 Alpha HF Exchange    Energy = -18.98528150836797
 Beta HF Exchange     Energy = -18.82532271108766
 DFT Correlation      Energy =  -5.14786182804408
 DFT Exchange         Energy = -150.50249064451714
 One-Electron (alpha) Energy = -4042.06550439815601
 One-Electron (beta)  Energy = -4003.32395246196847
 Total Coulomb        Energy = 2715.03797301493023
    8   -4921.6076271286      2.85e-05  
 Alpha HF Exchange    Energy = -18.98536443793991
 Beta HF Exchange     Energy = -18.82542549897446
 DFT Correlation      Energy =  -5.14784627969853
 DFT Exchange         Energy = -150.50301813128675
 One-Electron (alpha) Energy = -4042.07510684678755
 One-Electron (beta)  Energy = -4003.33393164565223
 Total Coulomb        Energy = 2715.05823992195747
    9   -4921.6076395098      1.23e-05  
 Alpha HF Exchange    Energy = -18.98534631529042
 Beta HF Exchange     Energy = -18.82547603898066
 DFT Correlation      Energy =  -5.14786102385967
 DFT Exchange         Energy = -150.50310385263899
 One-Electron (alpha) Energy = -4042.06852734094809
 One-Electron (beta)  Energy = -4003.33164730319322
 Total Coulomb        Energy = 2715.04950621958915
   10   -4921.6076422467      5.38e-06  
 Alpha HF Exchange    Energy = -18.98532756079450
 Beta HF Exchange     Energy = -18.82548051163248
 DFT Correlation      Energy =  -5.14784238024357
 DFT Exchange         Energy = -150.50298853551351
 One-Electron (alpha) Energy = -4042.06530286217549
 One-Electron (beta)  Energy = -4003.33065626243069
 Total Coulomb        Energy = 2715.04514181009654
   11   -4921.6076428941      7.01e-07  Convergence criterion met
 ---------------------------------------
 SCF time:   CPU 53.58s  wall 5.00s 
<S^2> =          2.002893355
 Alpha HF Exchange    Energy = -18.98532756079450
 Beta HF Exchange     Energy = -18.82548051163248
 DFT Correlation      Energy =  -5.14784238024357
 DFT Exchange         Energy = -150.50298853551351
 One-Electron (alpha) Energy = -4042.06530286217549
 One-Electron (beta)  Energy = -4003.33065626243069
 Total Coulomb        Energy = 2715.04514181009654
 Nuclear repulsion Energy = 602.20481340862023
 SCF   energy in the final basis set =    -4921.6076428941
 Total energy in the final basis set =    -4921.6076428941
 
 --------------------------------------------------------------
 
                    Orbital Energies (a.u.)
 --------------------------------------------------------------
 
 Alpha MOs
 -- Occupied --
*******-453.889 -58.121 -58.084 -52.178 -52.177 -52.175 -52.142
-52.141 -52.137 -10.260 -10.207 -10.188  -7.854  -7.817  -5.799
 -5.795  -5.788  -5.764  -5.760  -5.748  -2.132  -2.132  -2.126
 -2.123  -2.122  -2.097  -2.097  -2.087  -2.085  -2.082  -0.824
 -0.749  -0.691  -0.641  -0.582  -0.470  -0.444  -0.423  -0.398
 -0.384  -0.362  -0.351  -0.321  -0.307  -0.277  -0.226  -0.223
 -- Virtual --
 -0.024   0.027   0.027   0.093   0.116   0.136   0.148   0.163
  0.169   0.197   0.200   0.230   0.247   0.264   0.280   0.306
  0.312   0.323   0.349   0.433   0.435   0.473   0.493   0.526
  0.546   0.570   0.585   0.597   0.616   0.650   0.682   0.714
  0.737   0.746   0.784   0.806   0.830   0.851   0.864   0.882
  0.905   0.921   0.934   0.948   1.006   1.048   1.104   1.332
  1.384   1.438   1.532   1.561   1.610   1.639   1.719   1.784
  1.825   1.861   1.927   1.959   1.959   1.965   2.036   2.055
  2.059   2.070   2.090   2.106   2.123   2.163   2.241   2.289
  2.355   2.420   2.476   2.527   2.586   2.614   2.676   2.714
  2.756   2.817   2.873   2.896   3.182   3.274   3.302   3.412
  3.457   3.523   4.174   4.235   4.241   4.259   4.290   4.304
  4.348   4.378   4.396   4.412   4.496   4.510   4.624   5.437
  5.477  89.683  89.830
 
 Beta MOs
 -- Occupied --
*******-453.887 -58.120 -58.083 -52.178 -52.177 -52.174 -52.140
-52.139 -52.137 -10.260 -10.207 -10.188  -7.853  -7.815  -5.798
 -5.794  -5.786  -5.760  -5.755  -5.747  -2.132  -2.131  -2.124
 -2.121  -2.120  -2.093  -2.092  -2.085  -2.082  -2.080  -0.821
 -0.745  -0.680  -0.629  -0.576  -0.469  -0.443  -0.419  -0.396
 -0.382  -0.360  -0.346  -0.316  -0.253  -0.213
 -- Virtual --
 -0.136  -0.043  -0.020   0.029   0.035   0.094   0.116   0.138
  0.149   0.164   0.170   0.199   0.203   0.232   0.252   0.266
  0.286   0.314   0.321   0.336   0.356   0.437   0.445   0.478
  0.501   0.540   0.556   0.587   0.592   0.605   0.625   0.653
  0.696   0.718   0.745   0.791   0.806   0.834   0.852   0.865
  0.883   0.905   0.923   0.936   0.948   0.960   1.008   1.048
  1.107   1.333   1.386   1.440   1.537   1.565   1.611   1.641
  1.721   1.784   1.825   1.862   1.928   2.036   2.055   2.058
  2.071   2.090   2.106   2.123   2.162   2.187   2.188   2.191
  2.241   2.289   2.355   2.420   2.476   2.527   2.586   2.614
  2.676   2.714   2.756   2.817   2.873   2.896   3.182   3.274
  3.302   3.412   3.457   3.523   4.175   4.243   4.248   4.266
  4.296   4.307   4.351   4.382   4.400   4.414   4.498   4.514
  4.624   5.444   5.486  89.686  89.832
 --------------------------------------------------------------
 
          Ground-State Mulliken Net Atomic Charges

     Atom                 Charge (a.u.)    Spin (a.u.)
  --------------------------------------------------------
      1 C                    -0.233744      -0.029533
      2 H                     0.155805       0.001846
      3 C                    -0.170795       0.002402
      4 H                     0.122659      -0.000636
      5 H                     0.117931      -0.000302
      6 C                    -0.329048       0.000077
      7 H                     0.112695       0.000288
      8 H                     0.127227       0.000099
      9 H                     0.108441       0.000028
     10 Se                   -0.109948       0.826526
     11 H                     0.002117       0.995157
     12 Se                    0.018473       0.209768
     13 H                     0.078187      -0.005721
  --------------------------------------------------------
  Sum of atomic charges =    -0.000000
  Sum of spin   charges =     2.000000

 -----------------------------------------------------------------
                    Cartesian Multipole Moments
 -----------------------------------------------------------------
    Charge (ESU x 10^10)
                -0.0000
    Dipole Moment (Debye)
         X       1.8935      Y       1.3724      Z       0.8368
       Tot       2.4838
    Quadrupole Moments (Debye-Ang)
        XX     -60.6445     XY      -0.4167     YY     -54.4250
        XZ      -0.6795     YZ      -1.7114     ZZ     -58.8682
    Octopole Moments (Debye-Ang^2)
       XXX     -32.2322    XXY     -25.7837    XYY      -7.7373
       YYY     -62.2572    XXZ      33.7861    XYZ      -1.0444
       YYZ      30.7452    XZZ      -3.2252    YZZ     -18.3830
       ZZZ      91.3091
    Hexadecapole Moments (Debye-Ang^3)
      XXXX    -796.7146   XXXY    -117.9699   XXYY    -242.4600
      XYYY    -115.6465   YYYY    -687.9100   XXXZ       0.6291
      XXYZ     -12.8885   XYYZ       0.8876   YYYZ     -46.8741
      XXZZ    -189.5825   XYZZ     -35.2347   YYZZ    -161.6173
      XZZZ     -13.2452   YZZZ     -51.9129   ZZZZ    -291.0305
 -----------------------------------------------------------------
 Calculating analytic gradient of the SCF energy
 Gradient of SCF Energy
            1           2           3           4           5           6
    1  -0.0000531  -0.0000105   0.0000095   0.0000129  -0.0000485   0.0000035
    2   0.0000210  -0.0000064   0.0000089   0.0000246  -0.0000148  -0.0000147
    3   0.0000199  -0.0000086  -0.0000221  -0.0000093  -0.0000096   0.0000265
            7           8           9          10          11          12
    1  -0.0000349  -0.0000081   0.0000053   0.0000500   0.0000236   0.0000145
    2   0.0000281   0.0000145  -0.0000161  -0.0000077  -0.0000492  -0.0000009
    3  -0.0000060   0.0000427  -0.0000078   0.0000033  -0.0000203  -0.0000143
           13
    1   0.0000358
    2   0.0000127
    3   0.0000056
 Max gradient component =       5.312E-05
 RMS gradient           =       2.338E-05
 Gradient time:  CPU 19.06 s  wall 1.62 s
 Geometry Optimization Parameters
   NAtoms,    NIC,     NZ,  NCons,   NDum,   NFix, NCnnct, MaxDiis
       13      94       0       1       0       0       0       0


** CONSTRAINED OPTIMIZATION IN DELOCALIZED INTERNAL COORDINATES **
   Searching for a Minimum

   Optimization Cycle:   1

                       Coordinates (Angstroms)
     ATOM                X               Y               Z
      1  C         0.1403520000    0.9653590000   -0.7750030000
      2  H         0.2452790000    1.4913990000   -1.7267910000
      3  C         0.4361090000    1.8825590000    0.4080330000
      4  H        -0.3888370000    2.6058520000    0.4576570000
      5  H         0.3851330000    1.3028310000    1.3363400000
      6  C         1.7661960000    2.6371010000    0.3096240000
      7  H         1.8782930000    3.3195180000    1.1577360000
      8  H         2.6198350000    1.9533100000    0.3116690000
      9  H         1.8175410000    3.2352130000   -0.6068130000
     10  Se       -1.5712860000    0.0160940000   -0.7241620000
     11  H        -3.0827930000   -3.3143560000    0.3070760000
     12  Se        1.3790130000   -0.5913910000   -0.9866090000
     13  H         1.2073630000   -1.0545900000    0.4047420000
   Point Group: c1    Number of degrees of freedom:    33


   Energy is  -4921.607642894

              Constraints and their Current Values
                                        Value     Constraint
   Distance(Angs):       10  11             3.800000     3.700000

 Attempting to Generate Delocalized Internal Coordinates

   Using Lagrange Multiplier Algorithm


 34 Hessian modes will be used to form the next step
  Hessian Eigenvalues:
    -0.996878    0.045000    0.045000    0.045635    0.050018    0.062841
     0.066828    0.072106    0.076769    0.077947    0.082263    0.083382
     0.097731    0.106023    0.129800    0.133851    0.151587    0.156442
     0.160000    0.160000    0.160000    0.160981    0.177468    0.179419
     0.219551    0.292059    0.298074    0.338765    0.341684    0.341790
     0.343173    0.343836    0.345216    1.003132

 Minimum Search - Taking P-RFO Step
 Searching for Lamda that Maximizes Along the Constraint modes Only
 Value Taken    Lamda =   0.01765044
 Searching for Lamda that Minimizes Along All other modes
 Value Taken    Lamda =  -0.01744531
 Step Taken.  Stepsize is  0.185726

                             Maximum     Tolerance    Cnvgd?
         Gradient            0.188973       0.000300      NO
         Displacement        0.185714       0.001200      NO
         Energy change     *********       0.000001      NO


 New Cartesian Coordinates Obtained by Inverse Iteration

 Displacement from previous Coordinates is:  0.173661
 ----------------------------------------------------------------
             Standard Nuclear Orientation (Angstroms)
    I     Atom           X                Y                Z
 ----------------------------------------------------------------
    1      C       0.1365838581     0.9571242690    -0.7720782529
    2      H       0.2388283474     1.4826122393    -1.7244587046
    3      C       0.4325539039     1.8758719106     0.4097112010
    4      H      -0.3939670432     2.5972853180     0.4604646572
    5      H       0.3848086774     1.2967378272     1.3385558524
    6      C       1.7606570600     2.6334613535     0.3079738374
    7      H       1.8730415709     3.3165955705     1.1554694642
    8      H       2.6159125962     1.9516896666     0.3084604076
    9      H       1.8085306325     3.2312169580    -0.6088853454
   10      Se     -1.5732566694     0.0047551287    -0.7175573788
   11      H      -3.0383096140    -3.2411830931     0.2925268005
   12      Se      1.3777865317    -0.5974553063    -0.9843427706
   13      H       1.2090281484    -1.0598128421     0.4076592320
 ----------------------------------------------------------------
 Nuclear Repulsion Energy =   602.4073637588 hartrees
 There are       48 alpha and       46 beta electrons

                       Distance Matrix (Angstroms)
             C (  1)   H (  2)   C (  3)   H (  4)   H (  5)   C (  6)
   H (  2)  1.092529
   C (  3)  1.525884  2.178730
   H (  4)  2.119145  2.533144  1.098249
   H (  5)  2.152145  3.072119  1.095641  1.751845
   C (  6)  2.571815  2.787687  1.532368  2.160316  2.177588
   H (  7)  3.506826  3.785252  2.169526  2.477855  2.515588  1.094327
   H (  8)  2.881631  3.162803  2.187020  3.082089  2.543203  1.093744
   H (  9)  2.827284  2.601170  2.183532  2.529106  3.092203  1.095552
   Se( 10)  1.957941  2.545892  2.965651  3.082154  3.119430  4.367699
   H ( 11)  5.370206  6.092791  6.184244  6.411588  5.779675  7.585629
   Se( 12)  2.000589  2.484286  2.992357  3.928479  3.157504  3.500785
   H ( 13)  2.570983  3.457042  3.036637  3.993338  2.664439  3.735573
             H (  7)   H (  8)   H (  9)   Se( 10)   H ( 11)   Se( 12)
   H (  8)  1.769816
   H (  9)  1.767597  1.769344
   Se( 10)  5.133565  4.732061  4.675292
   H ( 11)  8.238356  7.677005  8.136115  3.701725
   Se( 12)  4.488192  3.114873  3.871077  3.023655  5.302980
   H ( 13)  4.489219  3.325404  4.450360  3.184419  4.776140  1.476456

 
 Applying Cartesian multipole field
    Component          Value
    ---------          -----
     (2,0,0)        1.00000E-11
     (0,2,0)        2.00000E-11
     (0,0,2)       -3.00000E-11
 Nucleus-field energy     =     0.0000000093 hartrees
 Requested basis set is 6-31G(d,p)
 There are 52 shells and 155 basis functions
 A cutoff of  1.0D-14 yielded   1202 shell pairs
 There are     10902 function pairs
 Smallest overlap matrix eigenvalue = 6.74E-04
 Guess from superposition of atomic densities
 Warning:  Energy on first SCF cycle will be non-variational
 SAD guess density has 93.936381 electrons

 -----------------------------------------------------------------------
  General SCF calculation program by
  Eric Jon Sundstrom, Paul Horn, Yuezhi Mao, Dmitri Zuev, Alec White,
  David Stuck, Shaama M.S., Shane Yost, Joonho Lee, David Small,
  Daniel Levine, Susi Lehtola, Hugh Burton, Evgeny Epifanovsky
 -----------------------------------------------------------------------
 Exchange:     0.2000 Hartree-Fock + 0.0800 Slater + 0.7200 B88
 Correlation:  0.1900 VWN1RPA + 0.8100 LYP
 Using SG-1 standard quadrature grid
 using 12 threads for integral computing
 -------------------------------------------------------
 OpenMP Integral computing Module                
 Release: version 1.0, May 2013, Q-Chem Inc. Pittsburgh 
 -------------------------------------------------------
 -------------------------------------------------------
 OpenMP BLAS3 based DFT computing Module                
 Release: version 1.0, May 2013, Q-Chem Inc. Pittsburgh 
 -------------------------------------------------------
 A unrestricted SCF calculation will be
 performed using DIIS
 SCF converges when DIIS error is below 1.0e-06
 Alpha HF Exchange    Energy = -18.85754145974847
 Beta HF Exchange     Energy = -18.85754145974847
 DFT Correlation      Energy =  -5.13408345029269
 DFT Exchange         Energy = -149.86704200704699
 One-Electron (alpha) Energy = -4020.02807305275837
 One-Electron (beta)  Energy = -4020.02807305275837
 Total Coulomb        Energy = 2702.53380318581458
 ---------------------------------------
  Cycle       Energy         DIIS error
 ---------------------------------------
    1   -4927.8311875284      1.50e-01  
 Alpha HF Exchange    Energy = -19.04713098625509
 Beta HF Exchange     Energy = -18.88239080871083
 DFT Correlation      Energy =  -5.16917427648577
 DFT Exchange         Energy = -151.00159075948741
 One-Electron (alpha) Energy = -4049.38660195650391
 One-Electron (beta)  Energy = -4009.92846784412359
 Total Coulomb        Energy = 2729.54671032849637
    2   -4921.4612825350      9.32e-03  
 Alpha HF Exchange    Energy = -18.91893013769524
 Beta HF Exchange     Energy = -18.76555261243420
 DFT Correlation      Energy =  -5.12848373368630
 DFT Exchange         Energy = -149.99626664793951
 One-Electron (alpha) Energy = -4035.32803439091595
 One-Electron (beta)  Energy = -3996.97702498315857
 Total Coulomb        Energy = 2701.25426526483852
    3   -4921.4526634729      3.77e-03  
 Alpha HF Exchange    Energy = -19.02663989840646
 Beta HF Exchange     Energy = -18.86163357507665
 DFT Correlation      Energy =  -5.16197862421008
 DFT Exchange         Energy = -150.82664634686188
 One-Electron (alpha) Energy = -4046.30936518718545
 One-Electron (beta)  Energy = -4007.03833387922214
 Total Coulomb        Energy = 2723.35167697334418
    4   -4921.4655567695      3.31e-03  
 Alpha HF Exchange    Energy = -18.99346594960718
 Beta HF Exchange     Energy = -18.83452536224876
 DFT Correlation      Energy =  -5.14936153506604
 DFT Exchange         Energy = -150.56678822210449
 One-Electron (alpha) Energy = -4043.34948271465737
 One-Electron (beta)  Energy = -4004.40261225941777
 Total Coulomb        Energy = 2717.29577286102631
    5   -4921.5930994140      1.09e-03  
 Alpha HF Exchange    Energy = -18.98568964961517
 Beta HF Exchange     Energy = -18.82511759178712
 DFT Correlation      Energy =  -5.14832308876682
 DFT Exchange         Energy = -150.50478308416461
 One-Electron (alpha) Energy = -4042.47649978835352
 One-Electron (beta)  Energy = -4003.47844603336716
 Total Coulomb        Energy = 2715.40402676180202
    6   -4921.6074687062      7.63e-05  
 Alpha HF Exchange    Energy = -18.98478062357569
 Beta HF Exchange     Energy = -18.82448394216403
 DFT Correlation      Energy =  -5.14785301495741
 DFT Exchange         Energy = -150.49751277866966
 One-Electron (alpha) Energy = -4042.29147516725925
 One-Electron (beta)  Energy = -4003.31215460605245
 Total Coulomb        Energy = 2715.04333180629692
    7   -4921.6075645583      6.83e-05  
 Alpha HF Exchange    Energy = -18.98533639362342
 Beta HF Exchange     Energy = -18.82523986914029
 DFT Correlation      Energy =  -5.14797233629051
 DFT Exchange         Energy = -150.50239041455529
 One-Electron (alpha) Energy = -4042.38498871040520
 One-Electron (beta)  Energy = -4003.40889949209441
 Total Coulomb        Energy = 2715.23983412479447
    8   -4921.6076293232      2.88e-05  
 Alpha HF Exchange    Energy = -18.98541794990794
 Beta HF Exchange     Energy = -18.82534385694715
 DFT Correlation      Energy =  -5.14795583226479
 DFT Exchange         Energy = -150.50291588920200
 One-Electron (alpha) Energy = -4042.39419420284958
 One-Electron (beta)  Energy = -4003.41905194379342
 Total Coulomb        Energy = 2715.25987398738016
    9   -4921.6076419195      1.24e-05  
 Alpha HF Exchange    Energy = -18.98539888245159
 Beta HF Exchange     Energy = -18.82539494862809
 DFT Correlation      Energy =  -5.14797003306343
 DFT Exchange         Energy = -150.50300000170961
 One-Electron (alpha) Energy = -4042.38741877223083
 One-Electron (beta)  Energy = -4003.41685851878265
 Total Coulomb        Energy = 2715.25103269089232
   10   -4921.6076446979      5.42e-06  
 Alpha HF Exchange    Energy = -18.98537975288999
 Beta HF Exchange     Energy = -18.82539989999661
 DFT Correlation      Energy =  -5.14795097315618
 DFT Exchange         Energy = -150.50288444387832
 One-Electron (alpha) Energy = -4042.38412143303594
 One-Electron (beta)  Energy = -4003.41595407751129
 Total Coulomb        Energy = 2715.24668144938641
   11   -4921.6076453630      7.23e-07  Convergence criterion met
 ---------------------------------------
 SCF time:   CPU 53.21s  wall 4.00s 
<S^2> =          2.002907740
 Alpha HF Exchange    Energy = -18.98537975288999
 Beta HF Exchange     Energy = -18.82539989999661
 DFT Correlation      Energy =  -5.14795097315618
 DFT Exchange         Energy = -150.50288444387832
 One-Electron (alpha) Energy = -4042.38412143303594
 One-Electron (beta)  Energy = -4003.41595407751129
 Total Coulomb        Energy = 2715.24668144938641
 Nuclear repulsion Energy = 602.40736376810344
 SCF   energy in the final basis set =    -4921.6076453630
 Total energy in the final basis set =    -4921.6076453630
 
 --------------------------------------------------------------
 
                    Orbital Energies (a.u.)
 --------------------------------------------------------------
 
 Alpha MOs
 -- Occupied --
*******-453.889 -58.121 -58.084 -52.178 -52.177 -52.175 -52.142
-52.141 -52.137 -10.260 -10.207 -10.188  -7.854  -7.817  -5.799
 -5.795  -5.788  -5.764  -5.760  -5.748  -2.132  -2.132  -2.126
 -2.123  -2.122  -2.097  -2.097  -2.087  -2.085  -2.082  -0.824
 -0.749  -0.691  -0.641  -0.582  -0.470  -0.444  -0.423  -0.398
 -0.384  -0.362  -0.351  -0.321  -0.306  -0.277  -0.226  -0.223
 -- Virtual --
 -0.024   0.027   0.027   0.093   0.116   0.136   0.148   0.163
  0.169   0.197   0.200   0.230   0.247   0.264   0.281   0.307
  0.312   0.323   0.350   0.433   0.435   0.473   0.493   0.526
  0.546   0.570   0.585   0.597   0.616   0.650   0.682   0.714
  0.737   0.751   0.785   0.806   0.830   0.851   0.864   0.882
  0.905   0.921   0.934   0.948   1.006   1.048   1.104   1.332
  1.384   1.438   1.532   1.561   1.610   1.639   1.719   1.784
  1.825   1.861   1.927   1.959   1.959   1.968   2.036   2.055
  2.059   2.070   2.090   2.106   2.123   2.163   2.241   2.289
  2.355   2.420   2.476   2.527   2.586   2.614   2.676   2.714
  2.756   2.817   2.873   2.896   3.182   3.274   3.302   3.412
  3.457   3.523   4.174   4.235   4.241   4.259   4.290   4.304
  4.348   4.378   4.396   4.412   4.496   4.510   4.624   5.438
  5.477  89.683  89.830
 
 Beta MOs
 -- Occupied --
*******-453.887 -58.120 -58.083 -52.178 -52.177 -52.174 -52.140
-52.139 -52.137 -10.260 -10.207 -10.188  -7.853  -7.815  -5.798
 -5.794  -5.786  -5.760  -5.755  -5.747  -2.132  -2.131  -2.124
 -2.121  -2.120  -2.093  -2.092  -2.085  -2.082  -2.080  -0.822
 -0.745  -0.680  -0.629  -0.576  -0.469  -0.443  -0.419  -0.396
 -0.382  -0.360  -0.346  -0.316  -0.253  -0.213
 -- Virtual --
 -0.136  -0.045  -0.020   0.029   0.035   0.094   0.116   0.138
  0.149   0.164   0.170   0.199   0.203   0.232   0.252   0.266
  0.286   0.314   0.321   0.336   0.357   0.437   0.445   0.478
  0.501   0.540   0.556   0.587   0.592   0.605   0.625   0.653
  0.696   0.718   0.745   0.791   0.807   0.834   0.852   0.865
  0.883   0.905   0.923   0.936   0.948   0.961   1.008   1.048
  1.107   1.333   1.386   1.440   1.537   1.565   1.611   1.641
  1.722   1.784   1.825   1.862   1.928   2.036   2.055   2.058
  2.071   2.090   2.106   2.123   2.161   2.185   2.185   2.191
  2.241   2.289   2.355   2.421   2.476   2.527   2.586   2.614
  2.676   2.714   2.756   2.817   2.873   2.896   3.182   3.274
  3.302   3.412   3.457   3.523   4.175   4.243   4.248   4.267
  4.296   4.307   4.351   4.382   4.400   4.414   4.498   4.514
  4.624   5.444   5.486  89.687  89.832
 --------------------------------------------------------------
 
          Ground-State Mulliken Net Atomic Charges

     Atom                 Charge (a.u.)    Spin (a.u.)
  --------------------------------------------------------
      1 C                    -0.233820      -0.028911
      2 H                     0.155812       0.001868
      3 C                    -0.170816       0.002393
      4 H                     0.122666      -0.000637
      5 H                     0.117923      -0.000294
      6 C                    -0.329066       0.000098
      7 H                     0.112703       0.000294
      8 H                     0.127224       0.000098
      9 H                     0.108447       0.000028
     10 Se                   -0.110145       0.826682
     11 H                     0.002232       0.994156
     12 Se                    0.018621       0.209950
     13 H                     0.078221      -0.005724
  --------------------------------------------------------
  Sum of atomic charges =    -0.000000
  Sum of spin   charges =     2.000000

 -----------------------------------------------------------------
                    Cartesian Multipole Moments
 -----------------------------------------------------------------
    Charge (ESU x 10^10)
                -0.0000
    Dipole Moment (Debye)
         X       1.8951      Y       1.3774      Z       0.8325
       Tot       2.4863
    Quadrupole Moments (Debye-Ang)
        XX     -60.6539     XY      -0.4515     YY     -54.4539
        XZ      -0.6697     YZ      -1.7127     ZZ     -58.8553
    Octopole Moments (Debye-Ang^2)
       XXX     -31.8914    XXY     -25.4171    XYY      -7.6524
       YYY     -61.2782    XXZ      33.6562    XYZ      -1.0255
       YYZ      30.6193    XZZ      -3.1550    YZZ     -18.0338
       ZZZ      90.7723
    Hexadecapole Moments (Debye-Ang^3)
      XXXX    -793.9744   XXXY    -116.4127   XXYY    -241.1262
      XYYY    -114.1364   YYYY    -682.8683   XXXZ       0.6096
      XXYZ     -13.2436   XYYZ       0.9597   YYYZ     -47.8574
      XXZZ    -188.8796   XYZZ     -34.8098   YYZZ    -160.5066
      XZZZ     -13.0383   YZZZ     -52.9199   ZZZZ    -289.1578
 -----------------------------------------------------------------
 Calculating analytic gradient of the SCF energy
 Gradient of SCF Energy
            1           2           3           4           5           6
    1  -0.0000617  -0.0000139   0.0000023   0.0000106  -0.0000498   0.0000020
    2  -0.0000106  -0.0000096  -0.0000002   0.0000236  -0.0000136  -0.0000209
    3  -0.0000032  -0.0000057  -0.0000149  -0.0000102  -0.0000109   0.0000270
            7           8           9          10          11          12
    1  -0.0000358  -0.0000043   0.0000047   0.0000364   0.0000459   0.0000126
    2   0.0000285   0.0000151  -0.0000127   0.0000262  -0.0000359   0.0000110
    3  -0.0000067   0.0000417  -0.0000090   0.0000256  -0.0000373  -0.0000234
           13
    1   0.0000511
    2  -0.0000010
    3   0.0000270
 Max gradient component =       6.171E-05
 RMS gradient           =       2.543E-05
 Gradient time:  CPU 19.32 s  wall 1.64 s
 Geometry Optimization Parameters
   NAtoms,    NIC,     NZ,  NCons,   NDum,   NFix, NCnnct, MaxDiis
       13      94       0       1       0       0       0       0

 Cartesian Hessian Update
 Hessian Updated using BFGS Update


** CONSTRAINED OPTIMIZATION IN DELOCALIZED INTERNAL COORDINATES **
   Searching for a Minimum

   Optimization Cycle:   2

                       Coordinates (Angstroms)
     ATOM                X               Y               Z
      1  C         0.1365838581    0.9571242690   -0.7720782529
      2  H         0.2388283474    1.4826122393   -1.7244587046
      3  C         0.4325539039    1.8758719106    0.4097112010
      4  H        -0.3939670432    2.5972853180    0.4604646572
      5  H         0.3848086774    1.2967378272    1.3385558524
      6  C         1.7606570600    2.6334613535    0.3079738374
      7  H         1.8730415709    3.3165955705    1.1554694642
      8  H         2.6159125962    1.9516896666    0.3084604076
      9  H         1.8085306325    3.2312169580   -0.6088853454
     10  Se       -1.5732566694    0.0047551287   -0.7175573788
     11  H        -3.0383096140   -3.2411830931    0.2925268005
     12  Se        1.3777865317   -0.5974553063   -0.9843427706
     13  H         1.2090281484   -1.0598128421    0.4076592320
   Point Group: c1    Number of degrees of freedom:    33


   Energy is  -4921.607645363

              Constraints and their Current Values
                                        Value     Constraint
   Distance(Angs):       10  11             3.701725     3.700000
 Hessian Updated using BFGS Update

   Using Lagrange Multiplier Algorithm


 33 Hessian modes will be used to form the next step
  Hessian Eigenvalues:
    -0.999929    0.044965    0.045000    0.045757    0.050018    0.062853
     0.066832    0.072107    0.076776    0.077947    0.082263    0.083383
     0.097735    0.106025    0.130191    0.133853    0.151683    0.156688
     0.160000    0.160004    0.161008    0.177775    0.179589    0.219569
     0.292059    0.298094    0.338765    0.341686    0.341792    0.343173
     0.343838    0.345220    1.000072

 Minimum Search - Taking P-RFO Step
 Searching for Lamda that Maximizes Along the Constraint modes Only
 Value Taken    Lamda =   0.00000231
 Searching for Lamda that Minimizes Along All other modes
 Value Taken    Lamda =  -0.00001004
 Step Taken.  Stepsize is  0.004527

                             Maximum     Tolerance    Cnvgd?
         Gradient            0.003259       0.000300      NO
         Displacement        0.003259       0.001200      NO
         Energy change     -0.000002       0.000001      NO


 New Cartesian Coordinates Obtained by Inverse Iteration

 Displacement from previous Coordinates is:  0.006914
 ----------------------------------------------------------------
             Standard Nuclear Orientation (Angstroms)
    I     Atom           X                Y                Z
 ----------------------------------------------------------------
    1      C       0.1370376465     0.9566878756    -0.7720157582
    2      H       0.2393712559     1.4822517006    -1.7243482321
    3      C       0.4327794279     1.8754257334     0.4098691750
    4      H      -0.3941498611     2.5963393259     0.4610128285
    5      H       0.3856900660     1.2961169871     1.3386385402
    6      C       1.7603570323     2.6338880658     0.3077930096
    7      H       1.8728032723     3.3166670096     1.1555676854
    8      H       2.6160366371     1.9526547890     0.3074318290
    9      H       1.8073021138     3.2321412553    -0.6087854999
   10      Se     -1.5729472314     0.0042937539    -0.7178521701
   11      H      -3.0387403793    -3.2393386179     0.2922466269
   12      Se      1.3781442806    -0.5979599803    -0.9839553751
   13      H       1.2085137394    -1.0602688980     0.4078963408
 ----------------------------------------------------------------
 Nuclear Repulsion Energy =   602.3997719260 hartrees
 There are       48 alpha and       46 beta electrons

                       Distance Matrix (Angstroms)
             C (  1)   H (  2)   C (  3)   H (  4)   H (  5)   C (  6)
   H (  2)  1.092532
   C (  3)  1.525908  2.178733
   H (  4)  2.119192  2.533445  1.098246
   H (  5)  2.152185  3.072124  1.095641  1.751843
   C (  6)  2.571800  2.787340  1.532366  2.160275  2.177610
   H (  7)  3.506845  3.785115  2.169542  2.477974  2.515481  1.094328
   H (  8)  2.881422  3.161953  2.187023  3.082067  2.543398  1.093740
   H (  9)  2.827387  2.600962  2.183494  2.528854  3.092189  1.095549
   Se( 10)  1.958070  2.545956  2.965776  3.081880  3.119971  4.367795
   H ( 11)  5.368879  6.091476  6.182726  6.409171  5.778583  7.584614
   Se( 12)  2.000548  2.484405  2.992340  3.928423  3.157045  3.501363
   H ( 13)  2.570675  3.456894  3.036457  3.992760  2.663808  3.736489
             H (  7)   H (  8)   H (  9)   Se( 10)   H ( 11)   Se( 12)
   H (  8)  1.769819
   H (  9)  1.767591  1.769348
   Se( 10)  5.133684  4.732325  4.675145
   H ( 11)  8.237099  7.676818  8.134866  3.700000
   Se( 12)  4.488491  3.115396  3.872287  3.023650  5.302305
   H ( 13)  4.489751  3.326999  4.451626  3.183886  4.775027  1.476399

 
 Applying Cartesian multipole field
    Component          Value
    ---------          -----
     (2,0,0)        1.00000E-11
     (0,2,0)        2.00000E-11
     (0,0,2)       -3.00000E-11
 Nucleus-field energy     =     0.0000000093 hartrees
 Requested basis set is 6-31G(d,p)
 There are 52 shells and 155 basis functions
 A cutoff of  1.0D-14 yielded   1202 shell pairs
 There are     10902 function pairs
 Smallest overlap matrix eigenvalue = 6.74E-04
 Guess from superposition of atomic densities
 Warning:  Energy on first SCF cycle will be non-variational
 SAD guess density has 93.936381 electrons

 -----------------------------------------------------------------------
  General SCF calculation program by
  Eric Jon Sundstrom, Paul Horn, Yuezhi Mao, Dmitri Zuev, Alec White,
  David Stuck, Shaama M.S., Shane Yost, Joonho Lee, David Small,
  Daniel Levine, Susi Lehtola, Hugh Burton, Evgeny Epifanovsky
 -----------------------------------------------------------------------
 Exchange:     0.2000 Hartree-Fock + 0.0800 Slater + 0.7200 B88
 Correlation:  0.1900 VWN1RPA + 0.8100 LYP
 Using SG-1 standard quadrature grid
 using 12 threads for integral computing
 -------------------------------------------------------
 OpenMP Integral computing Module                
 Release: version 1.0, May 2013, Q-Chem Inc. Pittsburgh 
 -------------------------------------------------------
 -------------------------------------------------------
 OpenMP BLAS3 based DFT computing Module                
 Release: version 1.0, May 2013, Q-Chem Inc. Pittsburgh 
 -------------------------------------------------------
 A unrestricted SCF calculation will be
 performed using DIIS
 SCF converges when DIIS error is below 1.0e-06
 Alpha HF Exchange    Energy = -18.85753525072207
 Beta HF Exchange     Energy = -18.85753525072207
 DFT Correlation      Energy =  -5.13408297255287
 DFT Exchange         Energy = -149.86702904774327
 One-Electron (alpha) Energy = -4020.02049408075891
 One-Electron (beta)  Energy = -4020.02049408075891
 Total Coulomb        Energy = 2702.52629024881435
 ---------------------------------------
  Cycle       Energy         DIIS error
 ---------------------------------------
    1   -4927.8311084991      1.50e-01  
 Alpha HF Exchange    Energy = -19.04712746054201
 Beta HF Exchange     Energy = -18.88238603493508
 DFT Correlation      Energy =  -5.16917495167234
 DFT Exchange         Energy = -151.00156458319066
 One-Electron (alpha) Energy = -4049.38085690568869
 One-Electron (beta)  Energy = -4009.91878318035333
 Total Coulomb        Energy = 2729.53884315259074
    2   -4921.4612780284      9.32e-03  
 Alpha HF Exchange    Energy = -18.91892977418871
 Beta HF Exchange     Energy = -18.76554237675256
 DFT Correlation      Energy =  -5.12848786148714
 DFT Exchange         Energy = -149.99623504007585
 One-Electron (alpha) Energy = -4035.32238999599758
 One-Electron (beta)  Energy = -3996.96657957892057
 Total Coulomb        Energy = 2701.24574511839592
    3   -4921.4526475737      3.77e-03  
 Alpha HF Exchange    Energy = -19.02663800666891
 Beta HF Exchange     Energy = -18.86163050507434
 DFT Correlation      Energy =  -5.16197801742141
 DFT Exchange         Energy = -150.82662723317034
 One-Electron (alpha) Energy = -4046.30348113583022
 One-Electron (beta)  Energy = -4007.02892159926341
 Total Coulomb        Energy = 2723.34397300370347
    4   -4921.4655315584      3.31e-03  
 Alpha HF Exchange    Energy = -18.99346597239095
 Beta HF Exchange     Energy = -18.83452353625528
 DFT Correlation      Energy =  -5.14936258285333
 DFT Exchange         Energy = -150.56678450878542
 One-Electron (alpha) Energy = -4043.34377843299171
 One-Electron (beta)  Energy = -4004.39333967100447
 Total Coulomb        Energy = 2717.28838532020063
    5   -4921.5930974487      1.09e-03  
 Alpha HF Exchange    Energy = -18.98568822971817
 Beta HF Exchange     Energy = -18.82511334852141
 DFT Correlation      Energy =  -5.14832304227615
 DFT Exchange         Energy = -150.50476331890138
 One-Electron (alpha) Energy = -4042.47060900444876
 One-Electron (beta)  Energy = -4003.46899991377904
 Total Coulomb        Energy = 2715.39625585646309
    6   -4921.6074690658      7.63e-05  
 Alpha HF Exchange    Energy = -18.98477947115939
 Beta HF Exchange     Energy = -18.82448012669931
 DFT Correlation      Energy =  -5.14785284152446
 DFT Exchange         Energy = -150.49749527972688
 One-Electron (alpha) Energy = -4042.28556455083071
 One-Electron (beta)  Energy = -4003.30274494504420
 Total Coulomb        Energy = 2715.03558026374094
    7   -4921.6075650159      6.83e-05  
 Alpha HF Exchange    Energy = -18.98533535099829
 Beta HF Exchange     Energy = -18.82523622665035
 DFT Correlation      Energy =  -5.14797214419655
 DFT Exchange         Energy = -150.50237403788157
 One-Electron (alpha) Energy = -4042.37908729786432
 One-Electron (beta)  Energy = -4003.39951607496687
 Total Coulomb        Energy = 2715.23211941806403
    8   -4921.6076297791      2.88e-05  
 Alpha HF Exchange    Energy = -18.98541687460597
 Beta HF Exchange     Energy = -18.82534024465887
 DFT Correlation      Energy =  -5.14795559221095
 DFT Exchange         Energy = -150.50289937510871
 One-Electron (alpha) Energy = -4042.38828620005870
 One-Electron (beta)  Energy = -4003.40967399913552
 Total Coulomb        Energy = 2715.25215796607927
    9   -4921.6076423843      1.24e-05  
 Alpha HF Exchange    Energy = -18.98539779206983
 Beta HF Exchange     Energy = -18.82539135944355
 DFT Correlation      Energy =  -5.14796978913931
 DFT Exchange         Energy = -150.50298353468213
 One-Electron (alpha) Energy = -4042.38150614888218
 One-Electron (beta)  Energy = -4003.40748205028467
 Total Coulomb        Energy = 2715.24331357371148
   10   -4921.6076451654      5.43e-06  
 Alpha HF Exchange    Energy = -18.98537864979950
 Beta HF Exchange     Energy = -18.82539631497389
 DFT Correlation      Energy =  -5.14795071558900
 DFT Exchange         Energy = -150.50286792572004
 One-Electron (alpha) Energy = -4042.37820669000985
 One-Electron (beta)  Energy = -4003.40657851410378
 Total Coulomb        Energy = 2715.23896104375535
   11   -4921.6076458311      7.23e-07  Convergence criterion met
 ---------------------------------------
 SCF time:   CPU 52.91s  wall 5.00s 
<S^2> =          2.002907449
 Alpha HF Exchange    Energy = -18.98537864979950
 Beta HF Exchange     Energy = -18.82539631497389
 DFT Correlation      Energy =  -5.14795071558900
 DFT Exchange         Energy = -150.50286792572004
 One-Electron (alpha) Energy = -4042.37820669000985
 One-Electron (beta)  Energy = -4003.40657851410378
 Total Coulomb        Energy = 2715.23896104375535
 Nuclear repulsion Energy = 602.39977193535810
 SCF   energy in the final basis set =    -4921.6076458311
 Total energy in the final basis set =    -4921.6076458311
 
 --------------------------------------------------------------
 
                    Orbital Energies (a.u.)
 --------------------------------------------------------------
 
 Alpha MOs
 -- Occupied --
*******-453.889 -58.121 -58.084 -52.178 -52.177 -52.175 -52.142
-52.141 -52.137 -10.260 -10.207 -10.188  -7.854  -7.817  -5.799
 -5.795  -5.788  -5.764  -5.760  -5.748  -2.132  -2.132  -2.126
 -2.123  -2.122  -2.097  -2.097  -2.087  -2.085  -2.082  -0.824
 -0.749  -0.691  -0.641  -0.582  -0.470  -0.444  -0.423  -0.398
 -0.384  -0.362  -0.351  -0.321  -0.306  -0.277  -0.226  -0.223
 -- Virtual --
 -0.024   0.027   0.027   0.093   0.116   0.136   0.148   0.163
  0.169   0.197   0.200   0.230   0.247   0.264   0.281   0.307
  0.312   0.323   0.350   0.433   0.435   0.473   0.493   0.526
  0.546   0.570   0.585   0.597   0.616   0.650   0.682   0.714
  0.737   0.751   0.785   0.806   0.830   0.851   0.864   0.882
  0.905   0.921   0.934   0.948   1.006   1.048   1.104   1.332
  1.384   1.438   1.532   1.561   1.610   1.639   1.719   1.784
  1.825   1.861   1.927   1.959   1.959   1.968   2.036   2.055
  2.059   2.070   2.090   2.106   2.123   2.163   2.241   2.289
  2.355   2.420   2.476   2.527   2.586   2.614   2.676   2.714
  2.756   2.817   2.873   2.896   3.182   3.274   3.302   3.412
  3.457   3.523   4.174   4.235   4.241   4.259   4.290   4.304
  4.348   4.378   4.396   4.412   4.496   4.510   4.624   5.438
  5.477  89.683  89.830
 
 Beta MOs
 -- Occupied --
*******-453.887 -58.120 -58.083 -52.178 -52.177 -52.174 -52.140
-52.139 -52.137 -10.260 -10.207 -10.188  -7.853  -7.815  -5.798
 -5.794  -5.786  -5.760  -5.755  -5.747  -2.132  -2.131  -2.124
 -2.121  -2.120  -2.093  -2.092  -2.085  -2.082  -2.080  -0.821
 -0.745  -0.680  -0.629  -0.576  -0.469  -0.443  -0.419  -0.396
 -0.382  -0.360  -0.346  -0.316  -0.253  -0.213
 -- Virtual --
 -0.136  -0.045  -0.020   0.029   0.035   0.094   0.116   0.138
  0.149   0.164   0.170   0.199   0.203   0.232   0.252   0.266
  0.286   0.314   0.321   0.336   0.357   0.437   0.445   0.478
  0.501   0.540   0.556   0.587   0.592   0.605   0.624   0.653
  0.696   0.718   0.745   0.791   0.807   0.834   0.852   0.865
  0.883   0.906   0.923   0.936   0.948   0.961   1.008   1.048
  1.107   1.333   1.386   1.440   1.537   1.565   1.611   1.641
  1.722   1.784   1.825   1.862   1.928   2.036   2.055   2.058
  2.071   2.090   2.106   2.123   2.161   2.185   2.185   2.191
  2.241   2.289   2.355   2.421   2.476   2.527   2.586   2.614
  2.676   2.714   2.756   2.817   2.873   2.896   3.182   3.275
  3.302   3.412   3.457   3.523   4.175   4.243   4.248   4.266
  4.296   4.307   4.351   4.382   4.400   4.414   4.498   4.514
  4.624   5.444   5.486  89.687  89.832
 --------------------------------------------------------------
 
          Ground-State Mulliken Net Atomic Charges

     Atom                 Charge (a.u.)    Spin (a.u.)
  --------------------------------------------------------
      1 C                    -0.233843      -0.028893
      2 H                     0.155812       0.001868
      3 C                    -0.170791       0.002393
      4 H                     0.122671      -0.000638
      5 H                     0.117900      -0.000293
      6 C                    -0.329091       0.000098
      7 H                     0.112713       0.000293
      8 H                     0.127227       0.000098
      9 H                     0.108449       0.000028
     10 Se                   -0.110163       0.826710
     11 H                     0.002233       0.994135
     12 Se                    0.018645       0.209922
     13 H                     0.078238      -0.005721
  --------------------------------------------------------
  Sum of atomic charges =     0.000000
  Sum of spin   charges =     2.000000

 -----------------------------------------------------------------
                    Cartesian Multipole Moments
 -----------------------------------------------------------------
    Charge (ESU x 10^10)
                -0.0000
    Dipole Moment (Debye)
         X       1.8948      Y       1.3774      Z       0.8327
       Tot       2.4861
    Quadrupole Moments (Debye-Ang)
        XX     -60.6536     XY      -0.4513     YY     -54.4544
        XZ      -0.6709     YZ      -1.7129     ZZ     -58.8557
    Octopole Moments (Debye-Ang^2)
       XXX     -31.9347    XXY     -25.3958    XYY      -7.6636
       YYY     -61.2295    XXZ      33.6486    XYZ      -1.0265
       YYZ      30.6201    XZZ      -3.1655    YZZ     -18.0160
       ZZZ      90.7729
    Hexadecapole Moments (Debye-Ang^3)
      XXXX    -793.9483   XXXY    -116.3960   XXYY    -241.1193
      XYYY    -114.1269   YYYY    -682.8602   XXXZ       0.5935
      XXYZ     -13.2565   XYYZ       0.9591   YYYZ     -47.8976
      XXZZ    -188.8581   XYZZ     -34.8054   YYZZ    -160.4986
      XZZZ     -13.0556   YZZZ     -52.9557   ZZZZ    -289.1312
 -----------------------------------------------------------------
 Calculating analytic gradient of the SCF energy
 Gradient of SCF Energy
            1           2           3           4           5           6
    1  -0.0000263  -0.0000167   0.0000078   0.0000125  -0.0000480   0.0000025
    2  -0.0000108  -0.0000018   0.0000022   0.0000250  -0.0000148  -0.0000158
    3  -0.0000074  -0.0000057  -0.0000100  -0.0000093  -0.0000104   0.0000292
            7           8           9          10          11          12
    1  -0.0000358  -0.0000072   0.0000025   0.0000073   0.0000462   0.0000163
    2   0.0000297   0.0000164  -0.0000132   0.0000089  -0.0000359  -0.0000083
    3  -0.0000064   0.0000394  -0.0000072   0.0000248  -0.0000376  -0.0000055
           13
    1   0.0000389
    2   0.0000184
    3   0.0000060
 Max gradient component =       4.801E-05
 RMS gradient           =       2.154E-05
 Gradient time:  CPU 18.93 s  wall 1.60 s
 Geometry Optimization Parameters
   NAtoms,    NIC,     NZ,  NCons,   NDum,   NFix, NCnnct, MaxDiis
       13      94       0       1       0       0       0       0

 Cartesian Hessian Update
 Hessian Updated using BFGS Update


** CONSTRAINED OPTIMIZATION IN DELOCALIZED INTERNAL COORDINATES **
   Searching for a Minimum

   Optimization Cycle:   3

                       Coordinates (Angstroms)
     ATOM                X               Y               Z
      1  C         0.1370376465    0.9566878756   -0.7720157582
      2  H         0.2393712559    1.4822517006   -1.7243482321
      3  C         0.4327794279    1.8754257334    0.4098691750
      4  H        -0.3941498611    2.5963393259    0.4610128285
      5  H         0.3856900660    1.2961169871    1.3386385402
      6  C         1.7603570323    2.6338880658    0.3077930096
      7  H         1.8728032723    3.3166670096    1.1555676854
      8  H         2.6160366371    1.9526547890    0.3074318290
      9  H         1.8073021138    3.2321412553   -0.6087854999
     10  Se       -1.5729472314    0.0042937539   -0.7178521701
     11  H        -3.0387403793   -3.2393386179    0.2922466269
     12  Se        1.3781442806   -0.5979599803   -0.9839553751
     13  H         1.2085137394   -1.0602688980    0.4078963408
   Point Group: c1    Number of degrees of freedom:    33


   Energy is  -4921.607645831

              Constraints and their Current Values
                                        Value     Constraint
   Distance(Angs):       10  11             3.700000     3.700000
 Hessian Updated using BFGS Update

 32 Hessian modes will be used to form the next step
  Hessian Eigenvalues:
     0.004359    0.045051    0.045804    0.050076    0.062848    0.066969
     0.072359    0.076815    0.077944    0.082300    0.083441    0.097765
     0.106084    0.128580    0.134351    0.152170    0.155814    0.159999
     0.160003    0.160048    0.162871    0.178491    0.208829    0.225094
     0.292065    0.302178    0.338768    0.341701    0.341856    0.343187
     0.344047    0.345570

 Minimum Search - Taking Simple RFO Step
 Searching for Lamda that Minimizes Along All modes
 Value Taken    Lamda =  -0.00000458
 Step Taken.  Stepsize is  0.032277

                             Maximum     Tolerance    Cnvgd?
         Gradient           0.000084      0.000300     YES
         Displacement       0.013731      0.001200      NO
         Energy change     -0.000000      0.000001     YES


                       Distance Matrix (Angstroms)
             C (  1)   H (  2)   C (  3)   H (  4)   H (  5)   C (  6)
   H (  2)  1.092532
   C (  3)  1.525908  2.178733
   H (  4)  2.119192  2.533445  1.098246
   H (  5)  2.152185  3.072124  1.095641  1.751843
   C (  6)  2.571800  2.787340  1.532366  2.160275  2.177610
   H (  7)  3.506845  3.785115  2.169542  2.477974  2.515481  1.094328
   H (  8)  2.881422  3.161953  2.187023  3.082067  2.543398  1.093740
   H (  9)  2.827387  2.600962  2.183494  2.528854  3.092189  1.095549
   Se( 10)  1.958070  2.545956  2.965776  3.081880  3.119971  4.367795
   H ( 11)  5.368879  6.091476  6.182726  6.409171  5.778583  7.584614
   Se( 12)  2.000548  2.484405  2.992340  3.928423  3.157045  3.501363
   H ( 13)  2.570675  3.456894  3.036457  3.992760  2.663808  3.736489
             H (  7)   H (  8)   H (  9)   Se( 10)   H ( 11)   Se( 12)
   H (  8)  1.769819
   H (  9)  1.767591  1.769348
   Se( 10)  5.133684  4.732325  4.675145
   H ( 11)  8.237099  7.676818  8.134866  3.700000
   Se( 12)  4.488491  3.115396  3.872287  3.023650  5.302305
   H ( 13)  4.489751  3.326999  4.451626  3.183886  4.775027  1.476399

 
 Final energy is   -4921.60764583108     


 ******************************
 **  OPTIMIZATION CONVERGED  **
 ******************************

                       Coordinates (Angstroms)
     ATOM                X               Y               Z
      1  C         0.1370376465    0.9566878756   -0.7720157582
      2  H         0.2393712559    1.4822517006   -1.7243482321
      3  C         0.4327794279    1.8754257334    0.4098691750
      4  H        -0.3941498611    2.5963393259    0.4610128285
      5  H         0.3856900660    1.2961169871    1.3386385402
      6  C         1.7603570323    2.6338880658    0.3077930096
      7  H         1.8728032723    3.3166670096    1.1555676854
      8  H         2.6160366371    1.9526547890    0.3074318290
      9  H         1.8073021138    3.2321412553   -0.6087854999
     10  Se       -1.5729472314    0.0042937539   -0.7178521701
     11  H        -3.0387403793   -3.2393386179    0.2922466269
     12  Se        1.3781442806   -0.5979599803   -0.9839553751
     13  H         1.2085137394   -1.0602688980    0.4078963408

Z-matrix Print:
$molecule
0 3
Se
H  1 1.476399
C  1 2.000548 2 94.139559
H  3 1.092532 1 102.907345 2 174.092720 0
C  3 1.525908 1 115.449152 2 52.327487 0
H  5 1.095641 3 109.262602 1 -59.222869 0
H  5 1.098246 3 106.580598 1 -173.318588 0
C  5 1.532366 3 114.477100 1 65.719583 0
H  8 1.093740 5 111.686347 3 -63.546100 0
H  8 1.094328 5 110.257215 3 176.412356 0
H  8 1.095549 5 111.293294 3 57.037857 0
Se 3 1.958070 1 99.597727 2 -72.803130 0
H  12 3.700000 3 141.253274 1 29.595942 0
$end

PES scan, value:    3.7000 energy: -4921.6076458311
------- Summary of potential scan: ------ 
    3.7000     -4921.6076458311
----------------------------------------- 
Archival summary:
1\1\hpc0248\JobtypUnspecified\ProcedureUnspecified\6-31G**\e238(3)\knomura\ThuMar1404:01:372019ThuMar1404:01:372019\0\\#,JobtypUnspecified,ProcedureUnspecified,6-31G**,\\0,3\Se\H,1,1.4764\C,1,2.00055,2,94.1396\H,3,1.09253,1,102.907,2,174.093,0\C,3,1.52591,1,115.449,2,52.3275,0\H,5,1.09564,3,109.263,1,-59.2229,0\H,5,1.09825,3,106.581,1,-173.319,0\C,5,1.53237,3,114.477,1,65.7196,0\H,8,1.09374,5,111.686,3,-63.5461,0\H,8,1.09433,5,110.257,3,176.412,0\H,8,1.09555,5,111.293,3,57.0379,0\Se,3,1.95807,1,99.5977,2,-72.8031,0\H,12,3.7,3,141.253,1,29.5959,0\\\@

 Total job time:  20.36s(wall), 235.12s(cpu) 
 Thu Mar 14 04:01:37 2019

        *************************************************************
        *                                                           *
        *  Thank you very much for using Q-Chem.  Have a nice day.  *
        *                                                           *
        *************************************************************


