
Running Job 1 of 1 selenium/02/Se-H.xyz.data/inputs/bond_triplet_3.1.in
qchem selenium/02/Se-H.xyz.data/inputs/bond_triplet_3.1.in_5671.0 /staging/scratch/2868765/qchem5671/ 1
/usr/usc/qchem/5.1.1/exe/qcprog.exe_s selenium/02/Se-H.xyz.data/inputs/bond_triplet_3.1.in_5671.0 /staging/scratch/2868765/qchem5671/
Check license passed

                  Welcome to Q-Chem
     A Quantum Leap Into The Future Of Chemistry


 Q-Chem 5.1, Q-Chem, Inc., Pleasanton, CA (2018)

 Yihan Shao,  Zhengting Gan,  E. Epifanovsky,  A. T. B. Gilbert,  M. Wormit,  
 J. Kussmann,  A. W. Lange,  A. Behn,  Jia Deng,  Xintian Feng,  D. Ghosh,  
 M. Goldey,  P. R. Horn,  L. D. Jacobson,  I. Kaliman,  T. Kus,  A. Landau,  
 Jie Liu,  E. I. Proynov,  R. M. Richard,  R. P. Steele,  E. J. Sundstrom,  
 H. L. Woodcock III,  P. M. Zimmerman,  D. Zuev,  B. Albrecht,  E. Alguire,  
 S. A. Baeppler,  D. Barton,  Z. Benda,  Y. A. Bernard,  E. J. Berquist,  
 K. B. Bravaya,  H. Burton,  D. Casanova,  Chun-Min Chang,  Yunqing Chen,  
 A. Chien,  K. D. Closser,  M. P. Coons,  S. Coriani,  S. Dasgupta,  
 A. L. Dempwolff,  M. Diedenhofen,  Hainam Do,  R. G. Edgar,  Po-Tung Fang,  
 S. Faraji,  S. Fatehi,  Qingguo Feng,  K. D. Fenk,  J. Fosso-Tande,  
 Qinghui Ge,  A. Ghysels,  G. Gidofalvi,  J. Gomes,  J. Gonthier,  A. Gunina,  
 D. Hait,  M. W. D. Hanson-Heine,  P. H. P. Harbach,  A. W. Hauser,  
 J. E. Herr,  E. G. Hohenstein,  Z. C. Holden,  Kerwin Hui,  B. C. Huynh,  
 T.-C. Jagau,  Hyunjun Ji,  B. Kaduk,  K. Khistyaev,  Jaehoon Kim,  
 P. Klunzinger,  K. Koh,  D. Kosenkov,  L. Koulias,  T. Kowalczyk,  
 C. M. Krauter,  A. Kunitsa,  Ka Un Lao,  A. Laurent,  K. V. Lawler,  
 Joonho Lee,  D. Lefrancois,  S. Lehtola,  D. S. Levine,  Yi-Pei Li,  
 You-Sheng Lin,  Fenglai Liu,  E. Livshits,  A. Luenser,  P. Manohar,  
 E. Mansoor,  S. F. Manzer,  Shan-Ping Mao,  Yuezhi Mao,  N. Mardirossian,  
 A. V. Marenich,  T. Markovich,  L. A. Martinez-Martinez,  S. A. Maurer,  
 N. J. Mayhall,  S. C. McKenzie,  J.-M. Mewes,  A. F. Morrison,  
 J. W. Mullinax,  K. Nanda,  T. S. Nguyen-Beck,  R. Olivares-Amaya,  
 J. A. Parkhill,  T. M. Perrine,  F. Plasser,  P. Pokhilko,  S. Prager,  
 A. Prociuk,  E. Ramos,  D. R. Rehn,  F. Rob,  M. Schneider,  N. Sergueev,  
 S. M. Sharada,  S. Sharma,  D. W. Small,  T. Stauch,  T. Stein,  
 Yu-Chuan Su,  A. J. W. Thom,  A. Tkatchenko,  T. Tsuchimochi,  N. M. Tubman,  
 L. Vogt,  M. L. Vidal,  O. Vydrov,  M. A. Watson,  J. Wenzel,  
 M. de Wergifosse,  T. A. Wesolowski,  A. White,  J. Witte,  A. Yamada,  
 Jun Yang,  K. Yao,  S. Yeganeh,  S. R. Yost,  Zhi-Qiang You,  A. Zech,  
 Igor Ying Zhang,  Xing Zhang,  Yan Zhao,  Ying Zhu,  B. R. Brooks,  
 G. K. L. Chan,  C. J. Cramer,  M. S. Gordon,  W. J. Hehre,  A. Klamt,  
 M. W. Schmidt,  C. D. Sherrill,  D. G. Truhlar,  A. Aspuru-Guzik,  R. Baer,  
 A. T. Bell,  N. A. Besley,  Jeng-Da Chai,  A. E. DePrince, III,  
 R. A. DiStasio Jr.,  A. Dreuw,  B. D. Dunietz,  T. R. Furlani,  
 Chao-Ping Hsu,  Yousung Jung,  Jing Kong,  D. S. Lambrecht,  WanZhen Liang,  
 C. Ochsenfeld,  V. A. Rassolov,  L. V. Slipchenko,  J. E. Subotnik,  
 T. Van Voorhis,  J. M. Herbert,  A. I. Krylov,  P. M. W. Gill,  M. Head-Gordon

 Contributors to earlier versions of Q-Chem not listed above: 
 R. D. Adamson,  B. Austin,  J. Baker,  G. J. O. Beran,  K. Brandhorst,  
 S. T. Brown,  E. F. C. Byrd,  A. K. Chakraborty,  C.-L. Cheng,  
 Siu Hung Chien,  D. M. Chipman,  D. L. Crittenden,  H. Dachsel,  
 R. J. Doerksen,  A. D. Dutoi,  L. Fusti-Molnar,  W. A. Goddard III,  
 A. Golubeva-Zadorozhnaya,  S. R. Gwaltney,  G. Hawkins,  A. Heyden,  
 S. Hirata,  G. Kedziora,  F. J. Keil,  C. Kelley,  Jihan Kim,  R. A. King,  
 R. Z. Khaliullin,  P. P. Korambath,  W. Kurlancheek,  A. M. Lee,  M. S. Lee,  
 S. V. Levchenko,  Ching Yeh Lin,  D. Liotard,  R. C. Lochan,  I. Lotan,  
 P. E. Maslen,  N. Nair,  D. P. O'Neill,  D. Neuhauser,  E. Neuscamman,  
 C. M. Oana,  R. Olson,  B. Peters,  R. Peverati,  P. A. Pieniazek,  
 Y. M. Rhee,  J. Ritchie,  M. A. Rohrdanz,  E. Rosta,  N. J. Russ,  
 H. F. Schaefer III,  N. E. Schultz,  N. Shenvi,  A. C. Simmonett,  A. Sodt,  
 D. Stuck,  K. S. Thanthiriwatte,  V. Vanovschi,  Tao Wang,  A. Warshel,  
 C. F. Williams,  Q. Wu,  X. Xu,  W. Zhang

 Please cite Q-Chem as follows:
 Y. Shao et al., Mol. Phys. 113, 184-215 (2015)
 DOI: 10.1080/00268976.2014.952696

 Q-Chem 5.1.1 for Intel X86 EM64T Linux

 Parts of Q-Chem use Armadillo 8.300.2 (Tropical Shenanigans).
 http://arma.sourceforge.net/

 Q-Chem begins on Thu Mar 14 04:11:56 2019  

Host: 
0

     Scratch files written to /staging/scratch/2868765/qchem5671//
 Aug318 |scratch|qcdevops|jenkins|workspace|build_RNUM 6013   
Processing $rem in /usr/usc/qchem/5.1.1/config/preferences.
 MEM_TOTAL  2000 
Input Ideriv = 2
Curr. Ideriv = -1
Max.  Ideriv = 2

Checking the input file for inconsistencies... 	...done.

--------------------------------------------------------------
User input:
--------------------------------------------------------------

$comment
potential surface scanner
$end

$rem
JOBTYPE  PES_SCAN
UNRESTRICTED TRUE
SYM_IGNORE  TRUE
GEOM_OPT_MAX_CYCLES 400
SCF_MAX_CYCLES 400
METHOD   B3LYP
BASIS   6-31G**
PDB_PRINT 2
SCF_CONVERGENCE 6
THRESH 14
SCF_PRINT 1
$end
$molecule
0 3
C 0.240611 0.882129 -1.077332
H 0.571639 1.525386 -1.896350
C 0.161687 1.650134 0.238782
H -0.670958 2.358882 0.136963
H -0.125162 0.960928 1.040964
C 1.438107 2.415640 0.604009
H 1.283653 2.992451 1.520985
H 2.282001 1.740056 0.770576
H 1.723230 3.117801 -0.187177
Se -1.369684 -0.092432 -1.615649
H -1.319618 -1.215539 1.380369
Se 1.560327 -0.615350 -1.133414
H 1.056364 -1.271185 0.090774
$end
$scan
stre 10 11 3.100000 3.101000 0.100000
$end
--------------------------------------------------------------
 ----------------------------------------------------------------
             Standard Nuclear Orientation (Angstroms)
    I     Atom           X                Y                Z
 ----------------------------------------------------------------
    1      C       0.2406110000     0.8821290000    -1.0773320000
    2      H       0.5716390000     1.5253860000    -1.8963500000
    3      C       0.1616870000     1.6501340000     0.2387820000
    4      H      -0.6709580000     2.3588820000     0.1369630000
    5      H      -0.1251620000     0.9609280000     1.0409640000
    6      C       1.4381070000     2.4156400000     0.6040090000
    7      H       1.2836530000     2.9924510000     1.5209850000
    8      H       2.2820010000     1.7400560000     0.7705760000
    9      H       1.7232300000     3.1178010000    -0.1871770000
   10      Se     -1.3696840000    -0.0924320000    -1.6156490000
   11      H      -1.3196180000    -1.2155390000     1.3803690000
   12      Se      1.5603270000    -0.6153500000    -1.1334140000
   13      H       1.0563640000    -1.2711850000     0.0907740000
 ----------------------------------------------------------------
 Nuclear Repulsion Energy =   606.3855689014 hartrees
 There are       48 alpha and       46 beta electrons
 Requested basis set is 6-31G(d,p)
 There are 52 shells and 155 basis functions

 Total QAlloc Memory Limit   2000 MB
 Mega-Array Size       188 MB
 MEM_STATIC part       192 MB
A total of 1 constraints
  
            1
    1   1.0100000
    2  10.0100000
    3  11.0100000
    4   3.1000000
    5   3.1010000
    6   0.1000000
    7   0.0000000
    8   0.0000000
    9   0.0000000
   10   0.0000000

                       Distance Matrix (Angstroms)
             C (  1)   H (  2)   C (  3)   H (  4)   H (  5)   C (  6)
   H (  2)  1.092772
   C (  3)  1.525850  2.177708
   H (  4)  2.118082  2.524505  1.098175
   H (  5)  2.151087  3.071149  1.095803  1.751966
   C (  6)  2.571490  2.791973  1.532527  2.160905  2.179662
   H (  7)  3.506087  3.786479  2.169024  2.477384  2.518386  1.094263
   H (  8)  2.884107  3.175518  2.187835  3.082917  2.544520  1.093762
   H (  9)  2.826440  2.604462  2.184927  2.532422  3.094670  1.095582
   Se( 10)  1.957704  2.542610  2.969941  3.093349  3.117049  4.370469
   H ( 11)  3.588150  4.671874  3.421924  3.839701  2.505779  4.625283
   Se( 12)  1.996807  2.478372  2.995252  3.929192  3.170717  3.495780
   H ( 13)  2.581993  3.464741  3.058833  4.020343  2.698369  3.741900
             H (  7)   H (  8)   H (  9)   Se( 10)   H ( 11)   Se( 12)
   H (  8)  1.768702
   H (  9)  1.768264  1.768530
   Se( 10)  5.137623  4.731478  4.681052
   H ( 11)  4.950149  4.698835  5.522134  3.200000
   Se( 12)  4.487606  3.113507  3.854649  3.015122  3.869550
   H ( 13)  4.502861  3.321429  4.448052  3.191715  2.703968  1.477408

 
 A cutoff of  1.0D-14 yielded   1247 shell pairs
 There are     11144 function pairs
 
 -------------------------------------------------------
 OpenMP Integral Computing Module                       
 Release: version 1.0, May 2013, Q-Chem Inc. Pittsburgh 
 -------------------------------------------------------
 Integral Job Info:
 Integral job number is                      11
 Integral operator is                         1
 short-range coefficients                     0
 long-range coefficients              100000000
 Omega coefficients                           0
 if combine SR and LR in K                    0
 Integral screening is                        0
 Integral computing path is                   2
 max size of driver memory is            800000
 size of driver memory is                593474
 size of scratch memory is             15267112
 max col of scratch BK array               1296
 max len of scratch array in speh3          155
 max len of scratch index in speh4           18
 max int batch size is                      520
 min int batch size is                       52
 fixed nKL is                                52
 max L of basis functions is                  2
 order of int derivative is                   0
 number of shells is                         52
 number of basis is                         155
 number of cartesian basis is               155
 number of contracted shell pairs          1247
 number of primitive shell pairs           4990
 maxK2 (contraction) of shell pair           36
 max number of K2 of shell pair               1
 max number of CS2 of shell pair             84
 max number of PS2 of shell pair            486
 mem total for path MDJ                  535932
 -------------------------------------------------------
 Smallest overlap matrix eigenvalue = 6.74E-04

 Scale SEOQF with 1.000000e-01/1.000000e-01/1.000000e-01

 Standard Electronic Orientation quadrupole field applied
 Nucleus-field energy     =    -0.0000000027 hartrees
 Guess from superposition of atomic densities
 Warning:  Energy on first SCF cycle will be non-variational
 SAD guess density has 93.936381 electrons

 -----------------------------------------------------------------------
  General SCF calculation program by
  Eric Jon Sundstrom, Paul Horn, Yuezhi Mao, Dmitri Zuev, Alec White,
  David Stuck, Shaama M.S., Shane Yost, Joonho Lee, David Small,
  Daniel Levine, Susi Lehtola, Hugh Burton, Evgeny Epifanovsky
 -----------------------------------------------------------------------
 Exchange:     0.2000 Hartree-Fock + 0.0800 Slater + 0.7200 B88
 Correlation:  0.1900 VWN1RPA + 0.8100 LYP
 Using SG-1 standard quadrature grid
 using 12 threads for integral computing
 -------------------------------------------------------
 OpenMP Integral computing Module                
 Release: version 1.0, May 2013, Q-Chem Inc. Pittsburgh 
 -------------------------------------------------------
 -------------------------------------------------------
 OpenMP BLAS3 based DFT computing Module                
 Release: version 1.0, May 2013, Q-Chem Inc. Pittsburgh 
 -------------------------------------------------------
 A unrestricted SCF calculation will be
 performed using DIIS
 SCF converges when DIIS error is below 1.0e-06
 Alpha HF Exchange    Energy = -18.85842523462392
 Beta HF Exchange     Energy = -18.85842523462392
 DFT Correlation      Energy =  -5.13624348016869
 DFT Exchange         Energy = -149.86764981529473
 One-Electron (alpha) Energy = -4024.00400390147433
 One-Electron (beta)  Energy = -4024.00400390147433
 Total Coulomb        Energy = 2706.49897269172925
 ---------------------------------------
  Cycle       Energy         DIIS error
 ---------------------------------------
    1   -4927.8442099772      1.50e-01  
 Alpha HF Exchange    Energy = -19.04758447064473
 Beta HF Exchange     Energy = -18.87715556505498
 DFT Correlation      Energy =  -5.17376595826175
 DFT Exchange         Energy = -150.98770854203849
 One-Electron (alpha) Energy = -4055.35071151946386
 One-Electron (beta)  Energy = -4011.49549256896398
 Total Coulomb        Energy = 2733.08059697606177
    2   -4921.4662527496      9.31e-03  
 Alpha HF Exchange    Energy = -18.92214461161884
 Beta HF Exchange     Energy = -18.74378176229685
 DFT Correlation      Energy =  -5.13664086783365
 DFT Exchange         Energy = -149.94652243597082
 One-Electron (alpha) Energy = -4041.44520222110077
 One-Electron (beta)  Energy = -3994.50414686306840
 Total Coulomb        Energy = 2700.92910931289862
    3   -4921.3837605503      4.12e-03  
 Alpha HF Exchange    Energy = -19.03140037089215
 Beta HF Exchange     Energy = -18.86858592915357
 DFT Correlation      Energy =  -5.16776544232643
 DFT Exchange         Energy = -150.87129111855484
 One-Electron (alpha) Energy = -4053.73269466556076
 One-Electron (beta)  Energy = -4010.23948307569935
 Total Coulomb        Energy = 2730.15545906229818
    4   -4921.3701926412      3.97e-03  
 Alpha HF Exchange    Energy = -18.99703086813726
 Beta HF Exchange     Energy = -18.83292982643600
 DFT Correlation      Energy =  -5.15618572674332
 DFT Exchange         Energy = -150.58053035812929
 One-Electron (alpha) Energy = -4049.96102775885765
 One-Electron (beta)  Energy = -4006.35429682342237
 Total Coulomb        Energy = 2721.91181953363457
    5   -4921.5846129294      1.36e-03  
 Alpha HF Exchange    Energy = -18.98653703856507
 Beta HF Exchange     Energy = -18.81919912891473
 DFT Correlation      Energy =  -5.15329338639378
 DFT Exchange         Energy = -150.49000203231245
 One-Electron (alpha) Energy = -4048.55839765955670
 One-Electron (beta)  Energy = -4005.01454375117783
 Total Coulomb        Energy = 2719.02784648304350
    6   -4921.6085576152      1.44e-04  
 Alpha HF Exchange    Energy = -18.98709285598757
 Beta HF Exchange     Energy = -18.81945740028102
 DFT Correlation      Energy =  -5.15268176522560
 DFT Exchange         Energy = -150.49104308278552
 One-Electron (alpha) Energy = -4048.36472520222696
 One-Electron (beta)  Energy = -4004.91439931967898
 Total Coulomb        Energy = 2718.73472760880168
    7   -4921.6091031187      4.95e-05  
 Alpha HF Exchange    Energy = -18.98771854854708
 Beta HF Exchange     Energy = -18.82067184440092
 DFT Correlation      Energy =  -5.15258389785444
 DFT Exchange         Energy = -150.49723703540627
 One-Electron (alpha) Energy = -4048.46771992031017
 One-Electron (beta)  Energy = -4005.10018122848669
 Total Coulomb        Energy = 2719.03136393065142
    8   -4921.6091796456      3.60e-05  
 Alpha HF Exchange    Energy = -18.98745087814891
 Beta HF Exchange     Energy = -18.82067996346208
 DFT Correlation      Energy =  -5.15249942676250
 DFT Exchange         Energy = -150.49603359078446
 One-Electron (alpha) Energy = -4048.41033251749695
 One-Electron (beta)  Energy = -4005.08200764536559
 Total Coulomb        Energy = 2718.95423153369438
    9   -4921.6092035896      1.34e-05  
 Alpha HF Exchange    Energy = -18.98738178304829
 Beta HF Exchange     Energy = -18.82077700903437
 DFT Correlation      Energy =  -5.15238276159188
 DFT Exchange         Energy = -150.49585173419916
 One-Electron (alpha) Energy = -4048.39323056962712
 One-Electron (beta)  Energy = -4005.09267162839978
 Total Coulomb        Energy = 2718.94751739383219
   10   -4921.6092091933      5.05e-06  
 Alpha HF Exchange    Energy = -18.98737466437642
 Beta HF Exchange     Energy = -18.82086726787963
 DFT Correlation      Energy =  -5.15235950408065
 DFT Exchange         Energy = -150.49608436449205
 One-Electron (alpha) Energy = -4048.38858180207399
 One-Electron (beta)  Energy = -4005.10193916746175
 Total Coulomb        Energy = 2718.95242772095071
   11   -4921.6092101507      3.90e-06  
 Alpha HF Exchange    Energy = -18.98736496403007
 Beta HF Exchange     Energy = -18.82089625642190
 DFT Correlation      Energy =  -5.15233958061269
 DFT Exchange         Energy = -150.49610179407290
 One-Electron (alpha) Energy = -4048.38479868226432
 One-Electron (beta)  Energy = -4005.10541320584161
 Total Coulomb        Energy = 2718.95213509244650
   12   -4921.6092104921      6.96e-07  Convergence criterion met
 ---------------------------------------
 SCF time:   CPU 60.26s  wall 5.00s 
<S^2> =          2.004485212
 Alpha HF Exchange    Energy = -18.98736496403007
 Beta HF Exchange     Energy = -18.82089625642190
 DFT Correlation      Energy =  -5.15233958061269
 DFT Exchange         Energy = -150.49610179407290
 One-Electron (alpha) Energy = -4048.38479868226432
 One-Electron (beta)  Energy = -4005.10541320584161
 Total Coulomb        Energy = 2718.95213509244650
 Nuclear repulsion Energy = 606.38556889872734
 SCF   energy in the final basis set =    -4921.6092104921
 Total energy in the final basis set =    -4921.6092104921
 
 --------------------------------------------------------------
 
                    Orbital Energies (a.u.)
 --------------------------------------------------------------
 
 Alpha MOs
 -- Occupied --
*******-453.895 -58.123 -58.089 -52.180 -52.179 -52.177 -52.148
-52.146 -52.143 -10.262 -10.207 -10.189  -7.856  -7.823  -5.801
 -5.797  -5.790  -5.769  -5.765  -5.754  -2.134  -2.134  -2.128
 -2.125  -2.124  -2.102  -2.102  -2.093  -2.091  -2.089  -0.826
 -0.751  -0.694  -0.643  -0.584  -0.471  -0.446  -0.425  -0.401
 -0.385  -0.364  -0.353  -0.323  -0.300  -0.281  -0.229  -0.223
 -- Virtual --
 -0.023   0.023   0.026   0.091   0.118   0.139   0.149   0.163
  0.171   0.197   0.200   0.228   0.246   0.262   0.278   0.309
  0.315   0.321   0.348   0.431   0.434   0.471   0.491   0.521
  0.544   0.566   0.584   0.595   0.615   0.642   0.681   0.711
  0.736   0.778   0.797   0.804   0.834   0.862   0.869   0.881
  0.913   0.920   0.943   0.947   1.004   1.057   1.105   1.332
  1.383   1.439   1.527   1.562   1.608   1.639   1.716   1.782
  1.823   1.860   1.926   1.974   1.989   2.018   2.037   2.055
  2.061   2.071   2.091   2.106   2.124   2.161   2.242   2.288
  2.355   2.419   2.476   2.526   2.588   2.612   2.675   2.713
  2.757   2.817   2.872   2.895   3.182   3.275   3.302   3.413
  3.457   3.526   4.174   4.232   4.237   4.255   4.287   4.300
  4.345   4.377   4.394   4.410   4.495   4.507   4.624   5.434
  5.476  89.680  89.836
 
 Beta MOs
 -- Occupied --
*******-453.893 -58.122 -58.088 -52.180 -52.179 -52.176 -52.146
-52.144 -52.142 -10.263 -10.207 -10.189  -7.855  -7.820  -5.800
 -5.796  -5.788  -5.765  -5.761  -5.752  -2.134  -2.133  -2.126
 -2.123  -2.122  -2.098  -2.098  -2.091  -2.087  -2.086  -0.823
 -0.747  -0.682  -0.631  -0.578  -0.470  -0.444  -0.421  -0.398
 -0.383  -0.361  -0.348  -0.318  -0.256  -0.218
 -- Virtual --
 -0.138  -0.083  -0.017   0.029   0.030   0.092   0.119   0.142
  0.152   0.164   0.172   0.199   0.205   0.230   0.252   0.264
  0.283   0.318   0.327   0.333   0.354   0.436   0.443   0.476
  0.500   0.538   0.554   0.586   0.590   0.603   0.624   0.650
  0.696   0.716   0.744   0.789   0.805   0.828   0.852   0.864
  0.881   0.900   0.922   0.934   0.948   0.984   1.005   1.067
  1.108   1.333   1.385   1.440   1.533   1.567   1.610   1.641
  1.718   1.783   1.823   1.860   1.927   2.036   2.054   2.056
  2.070   2.090   2.102   2.118   2.135   2.151   2.162   2.179
  2.244   2.288   2.355   2.420   2.476   2.527   2.588   2.612
  2.675   2.713   2.757   2.817   2.872   2.895   3.182   3.275
  3.302   3.413   3.457   3.526   4.174   4.241   4.244   4.263
  4.293   4.303   4.349   4.381   4.399   4.412   4.498   4.511
  4.624   5.441   5.486  89.683  89.838
 --------------------------------------------------------------
 
          Ground-State Mulliken Net Atomic Charges

     Atom                 Charge (a.u.)    Spin (a.u.)
  --------------------------------------------------------
      1 C                    -0.234189      -0.034664
      2 H                     0.156815       0.003579
      3 C                    -0.170518       0.014601
      4 H                     0.122216      -0.000766
      5 H                     0.119411      -0.005320
      6 C                    -0.329159      -0.000526
      7 H                     0.113685       0.000437
      8 H                     0.127224       0.000099
      9 H                     0.108042       0.000657
     10 Se                   -0.085946       0.862565
     11 H                    -0.031633       0.941172
     12 Se                    0.022480       0.227212
     13 H                     0.081572      -0.009048
  --------------------------------------------------------
  Sum of atomic charges =    -0.000000
  Sum of spin   charges =     2.000000

 -----------------------------------------------------------------
                    Cartesian Multipole Moments
 -----------------------------------------------------------------
    Charge (ESU x 10^10)
                -0.0000
    Dipole Moment (Debye)
         X       1.6307      Y       1.4506      Z       1.0766
       Tot       2.4336
    Quadrupole Moments (Debye-Ang)
        XX     -60.1875     XY      -0.7417     YY     -54.7094
        XZ      -1.2971     YZ      -1.7866     ZZ     -61.0036
    Octopole Moments (Debye-Ang^2)
       XXX     -48.8132    XXY     -20.5454    XYY     -12.4875
       YYY     -52.8805    XXZ      47.9927    XYZ      -3.0937
       YYZ      47.7973    XZZ      -8.6460    YZZ     -13.8756
       ZZZ     154.7803
    Hexadecapole Moments (Debye-Ang^3)
      XXXX    -676.6937   XXXY     -51.9483   XXYY    -198.2552
      XYYY     -50.4921   YYYY    -538.2216   XXXZ     -28.4849
      XXYZ     -19.1731   XYYZ     -11.1995   YYYZ     -65.2869
      XXZZ    -211.1701   XYZZ      -7.6048   YYZZ    -186.8377
      XZZZ     -53.3095   YZZZ     -68.0214   ZZZZ    -626.7926
 -----------------------------------------------------------------
 Calculating analytic gradient of the SCF energy
 Gradient of SCF Energy
            1           2           3           4           5           6
    1  -0.0000135   0.0001368   0.0001181   0.0000398  -0.0001466  -0.0000022
    2  -0.0003252   0.0000637   0.0003427   0.0000448  -0.0001209  -0.0000028
    3  -0.0001192  -0.0000314  -0.0000669  -0.0000508   0.0000590   0.0000830
            7           8           9          10          11          12
    1   0.0000108   0.0000391   0.0000920   0.0000161  -0.0001038  -0.0000652
    2  -0.0000694  -0.0000403  -0.0000756   0.0006535  -0.0004654   0.0000485
    3   0.0000223   0.0000297   0.0000131  -0.0015592   0.0015510   0.0000677
           13
    1  -0.0001215
    2  -0.0000536
    3   0.0000017
 Max gradient component =       1.559E-03
 RMS gradient           =       3.882E-04
 Gradient time:  CPU 19.53 s  wall 1.66 s
 Geometry Optimization Parameters
   NAtoms,    NIC,     NZ,  NCons,   NDum,   NFix, NCnnct, MaxDiis
       13      98       0       1       0       0       0       0


** CONSTRAINED OPTIMIZATION IN DELOCALIZED INTERNAL COORDINATES **
   Searching for a Minimum

   Optimization Cycle:   1

                       Coordinates (Angstroms)
     ATOM                X               Y               Z
      1  C         0.2406110000    0.8821290000   -1.0773320000
      2  H         0.5716390000    1.5253860000   -1.8963500000
      3  C         0.1616870000    1.6501340000    0.2387820000
      4  H        -0.6709580000    2.3588820000    0.1369630000
      5  H        -0.1251620000    0.9609280000    1.0409640000
      6  C         1.4381070000    2.4156400000    0.6040090000
      7  H         1.2836530000    2.9924510000    1.5209850000
      8  H         2.2820010000    1.7400560000    0.7705760000
      9  H         1.7232300000    3.1178010000   -0.1871770000
     10  Se       -1.3696840000   -0.0924320000   -1.6156490000
     11  H        -1.3196180000   -1.2155390000    1.3803690000
     12  Se        1.5603270000   -0.6153500000   -1.1334140000
     13  H         1.0563640000   -1.2711850000    0.0907740000
   Point Group: c1    Number of degrees of freedom:    33


   Energy is  -4921.609210492

              Constraints and their Current Values
                                        Value     Constraint
   Distance(Angs):       10  11             3.200000     3.100000

 Attempting to Generate Delocalized Internal Coordinates

   Using Lagrange Multiplier Algorithm


 34 Hessian modes will be used to form the next step
  Hessian Eigenvalues:
    -0.994470    0.016126    0.020273    0.045000    0.045682    0.048632
     0.061919    0.063594    0.071528    0.075307    0.080654    0.082188
     0.083361    0.096777    0.102612    0.112828    0.132703    0.148725
     0.159946    0.160000    0.160000    0.160000    0.167017    0.169766
     0.180295    0.287968    0.291913    0.319888    0.338847    0.341754
     0.343246    0.343815    0.344943    1.005561

 Minimum Search - Taking P-RFO Step
 Searching for Lamda that Maximizes Along the Constraint modes Only
 Value Taken    Lamda =   0.01743140


 ********************************************
 ** ERROR IN DETERMINING Lamda IN CONFormD **
 ********************************************


 ** Scaling Hessian by  2.161854 **


 34 Hessian modes will be used to form the next step
  Hessian Eigenvalues:
    -0.988083    0.034863    0.043827    0.097283    0.098758    0.105135
     0.133860    0.137482    0.154633    0.162802    0.174363    0.177679
     0.180214    0.209218    0.221833    0.243918    0.286884    0.321523
     0.345781    0.345897    0.345897    0.345897    0.361066    0.367009
     0.389772    0.622545    0.631073    0.691551    0.732539    0.738823
     0.742047    0.743277    0.745717    1.012061

 Minimum Search - Taking P-RFO Step
 Searching for Lamda that Maximizes Along the Constraint modes Only
 Value Taken    Lamda =   0.01765264
 Searching for Lamda that Minimizes Along All other modes
 Value Taken    Lamda =  -0.01744510
 Step Taken.  Stepsize is  0.185716

                             Maximum     Tolerance    Cnvgd?
         Gradient            0.188973       0.000300      NO
         Displacement        0.185713       0.001200      NO
         Energy change     *********       0.000001      NO


 New Cartesian Coordinates Obtained by Inverse Iteration

 Displacement from previous Coordinates is:  0.152796
 ----------------------------------------------------------------
             Standard Nuclear Orientation (Angstroms)
    I     Atom           X                Y                Z
 ----------------------------------------------------------------
    1      C       0.2422055952     0.8755430343    -1.0639286516
    2      H       0.5686588490     1.5165976733    -1.8864212394
    3      C       0.1648668157     1.6515621674     0.2452431444
    4      H      -0.6695353638     2.3579527947     0.1414521392
    5      H      -0.1243076642     0.9668235059     1.0431032088
    6      C       1.4399245309     2.4227057624     0.6033134346
    7      H       1.2857881163     3.0047711478     1.5170288066
    8      H       2.2858440749     1.7502939425     0.7723646629
    9      H       1.7216523086     3.1208171308    -0.1926661974
   10      Se     -1.3739102689    -0.1051666475    -1.5750822027
   11      H      -1.3338890650    -1.2059919925     1.3244487108
   12      Se      1.5625237325    -0.6226437951    -1.1363071931
   13      H       1.0623753388    -1.2843637241     0.0809513768
 ----------------------------------------------------------------
 Nuclear Repulsion Energy =   606.6276461268 hartrees
 There are       48 alpha and       46 beta electrons

                       Distance Matrix (Angstroms)
             C (  1)   H (  2)   C (  3)   H (  4)   H (  5)   C (  6)
   H (  2)  1.092711
   C (  3)  1.523850  2.173766
   H (  4)  2.117015  2.520570  1.098175
   H (  5)  2.140618  3.060158  1.090445  1.745133
   C (  6)  2.570591  2.789071  1.532530  2.160400  2.181704
   H (  7)  3.504856  3.783174  2.169119  2.476666  2.523134  1.094273
   H (  8)  2.883335  3.173717  2.187727  3.082461  2.548717  1.093753
   H (  9)  2.826503  2.602253  2.184961  2.532069  3.094250  1.095588
   Se( 10)  1.958290  2.549633  2.960999  3.083763  3.092825  4.364999
   H ( 11)  3.538532  4.619726  3.402436  3.813469  2.502673  4.624016
   Se( 12)  1.998260  2.475236  3.005684  3.936840  3.181452  3.509340
   H ( 13)  2.578493  3.458279  3.074439  4.033565  2.720624  3.762681
             H (  7)   H (  8)   H (  9)   Se( 10)   H ( 11)   Se( 12)
   H (  8)  1.768714
   H (  9)  1.768192  1.768596
   Se( 10)  5.129021  4.727266  4.679803
   H ( 11)  4.962895  4.706048  5.509923  3.101725
   Se( 12)  4.502767  3.130025  3.863843  3.013793  3.845104
   H ( 13)  4.528676  3.344260  4.462637  3.173081  2.700835  1.473004

 
 Applying Cartesian multipole field
    Component          Value
    ---------          -----
     (2,0,0)        1.00000E-11
     (0,2,0)        2.00000E-11
     (0,0,2)       -3.00000E-11
 Nucleus-field energy     =    -0.0000000022 hartrees
 Requested basis set is 6-31G(d,p)
 There are 52 shells and 155 basis functions
 A cutoff of  1.0D-14 yielded   1247 shell pairs
 There are     11156 function pairs
 Smallest overlap matrix eigenvalue = 6.74E-04
 Guess from superposition of atomic densities
 Warning:  Energy on first SCF cycle will be non-variational
 SAD guess density has 93.936381 electrons

 -----------------------------------------------------------------------
  General SCF calculation program by
  Eric Jon Sundstrom, Paul Horn, Yuezhi Mao, Dmitri Zuev, Alec White,
  David Stuck, Shaama M.S., Shane Yost, Joonho Lee, David Small,
  Daniel Levine, Susi Lehtola, Hugh Burton, Evgeny Epifanovsky
 -----------------------------------------------------------------------
 Exchange:     0.2000 Hartree-Fock + 0.0800 Slater + 0.7200 B88
 Correlation:  0.1900 VWN1RPA + 0.8100 LYP
 Using SG-1 standard quadrature grid
 using 12 threads for integral computing
 -------------------------------------------------------
 OpenMP Integral computing Module                
 Release: version 1.0, May 2013, Q-Chem Inc. Pittsburgh 
 -------------------------------------------------------
 -------------------------------------------------------
 OpenMP BLAS3 based DFT computing Module                
 Release: version 1.0, May 2013, Q-Chem Inc. Pittsburgh 
 -------------------------------------------------------
 A unrestricted SCF calculation will be
 performed using DIIS
 SCF converges when DIIS error is below 1.0e-06
 Alpha HF Exchange    Energy = -18.85918068718099
 Beta HF Exchange     Energy = -18.85918068718099
 DFT Correlation      Energy =  -5.13657487699291
 DFT Exchange         Energy = -149.86927863930543
 One-Electron (alpha) Energy = -4024.24075726476576
 One-Electron (beta)  Energy = -4024.24075726476576
 Total Coulomb        Energy = 2706.72736086859186
 ---------------------------------------
  Cycle       Energy         DIIS error
 ---------------------------------------
    1   -4927.8507224269      1.50e-01  
 Alpha HF Exchange    Energy = -19.04824158458905
 Beta HF Exchange     Energy = -18.87630546049445
 DFT Correlation      Energy =  -5.17460908946356
 DFT Exchange         Energy = -150.98774751375325
 One-Electron (alpha) Energy = -4055.71557584589073
 One-Electron (beta)  Energy = -4011.43616871169024
 Total Coulomb        Energy = 2733.14296021195923
    2   -4921.4680418693      9.31e-03  
 Alpha HF Exchange    Energy = -18.92332842439055
 Beta HF Exchange     Energy = -18.74544734565152
 DFT Correlation      Energy =  -5.13735068460579
 DFT Exchange         Energy = -149.95602186006604
 One-Electron (alpha) Energy = -4041.93505749363203
 One-Electron (beta)  Energy = -3995.01854654213230
 Total Coulomb        Energy = 2701.69168061651317
    3   -4921.3964256093      4.06e-03  
 Alpha HF Exchange    Energy = -19.03168956222892
 Beta HF Exchange     Energy = -18.86754836246447
 DFT Correlation      Energy =  -5.16826682352623
 DFT Exchange         Energy = -150.86901742319540
 One-Electron (alpha) Energy = -4053.98740617481735
 One-Electron (beta)  Energy = -4010.19536874063988
 Total Coulomb        Energy = 2730.10931201761923
    4   -4921.3823389446      3.90e-03  
 Alpha HF Exchange    Energy = -18.99739978058790
 Beta HF Exchange     Energy = -18.83199267705844
 DFT Correlation      Energy =  -5.15674458489992
 DFT Exchange         Energy = -150.57854040402293
 One-Electron (alpha) Energy = -4050.27223766505813
 One-Electron (beta)  Energy = -4006.28678354595058
 Total Coulomb        Energy = 2721.90996031413579
    5   -4921.5860922188      1.33e-03  
 Alpha HF Exchange    Energy = -18.98736887438804
 Beta HF Exchange     Energy = -18.81896150827803
 DFT Correlation      Energy =  -5.15406599175677
 DFT Exchange         Energy = -150.49256833965256
 One-Electron (alpha) Energy = -4048.96080495433307
 One-Electron (beta)  Energy = -4005.04305780218738
 Total Coulomb        Energy = 2719.22025910243610
    6   -4921.6089222435      1.31e-04  
 Alpha HF Exchange    Energy = -18.98774969081354
 Beta HF Exchange     Energy = -18.81906790035366
 DFT Correlation      Energy =  -5.15348451347450
 DFT Exchange         Energy = -150.49250107571473
 One-Electron (alpha) Energy = -4048.76616051133260
 One-Electron (beta)  Energy = -4004.93157131799853
 Total Coulomb        Energy = 2718.91351138241998
    7   -4921.6093775026      4.87e-05  
 Alpha HF Exchange    Energy = -18.98838837856492
 Beta HF Exchange     Energy = -18.82028090405967
 DFT Correlation      Energy =  -5.15339201348171
 DFT Exchange         Energy = -150.49876833445646
 One-Electron (alpha) Energy = -4048.87175541051647
 One-Electron (beta)  Energy = -4005.11694959105034
 Total Coulomb        Energy = 2719.21244006911911
    8   -4921.6094484383      3.50e-05  
 Alpha HF Exchange    Energy = -18.98813923700236
 Beta HF Exchange     Energy = -18.82029373360948
 DFT Correlation      Energy =  -5.15331274754769
 DFT Exchange         Energy = -150.49764940171451
 One-Electron (alpha) Energy = -4048.81729234216982
 One-Electron (beta)  Energy = -4005.10035281075034
 Total Coulomb        Energy = 2719.13992384976927
    9   -4921.6094702984      1.22e-05  
 Alpha HF Exchange    Energy = -18.98807179728423
 Beta HF Exchange     Energy = -18.82039430266920
 DFT Correlation      Energy =  -5.15320212883268
 DFT Exchange         Energy = -150.49749737705051
 One-Electron (alpha) Energy = -4048.80002984899374
 One-Electron (beta)  Energy = -4005.11130059008201
 Total Coulomb        Energy = 2719.13337457850957
   10   -4921.6094753417      3.99e-06  
 Alpha HF Exchange    Energy = -18.98806180700711
 Beta HF Exchange     Energy = -18.82047272593946
 DFT Correlation      Energy =  -5.15317965225869
 DFT Exchange         Energy = -150.49767591717682
 One-Electron (alpha) Energy = -4048.79457067525163
 One-Electron (beta)  Energy = -4005.11905532569017
 Total Coulomb        Energy = 2719.13589396288489
   11   -4921.6094760158      3.38e-06  
 Alpha HF Exchange    Energy = -18.98805609300436
 Beta HF Exchange     Energy = -18.82049077713906
 DFT Correlation      Energy =  -5.15316514189658
 DFT Exchange         Energy = -150.49768322954307
 One-Electron (alpha) Energy = -4048.79211822795151
 One-Electron (beta)  Energy = -4005.12159041321411
 Total Coulomb        Energy = 2719.13598152004670
   12   -4921.6094762380      6.86e-07  Convergence criterion met
 ---------------------------------------
 SCF time:   CPU 60.71s  wall 5.00s 
<S^2> =          2.004768088
 Alpha HF Exchange    Energy = -18.98805609300436
 Beta HF Exchange     Energy = -18.82049077713906
 DFT Correlation      Energy =  -5.15316514189658
 DFT Exchange         Energy = -150.49768322954307
 One-Electron (alpha) Energy = -4048.79211822795151
 One-Electron (beta)  Energy = -4005.12159041321411
 Total Coulomb        Energy = 2719.13598152004670
 Nuclear repulsion Energy = 606.62764612466390
 SCF   energy in the final basis set =    -4921.6094762380
 Total energy in the final basis set =    -4921.6094762380
 
 --------------------------------------------------------------
 
                    Orbital Energies (a.u.)
 --------------------------------------------------------------
 
 Alpha MOs
 -- Occupied --
*******-453.896 -58.123 -58.091 -52.180 -52.179 -52.178 -52.149
-52.148 -52.145 -10.263 -10.206 -10.189  -7.857  -7.824  -5.801
 -5.798  -5.791  -5.770  -5.767  -5.756  -2.135  -2.134  -2.128
 -2.125  -2.124  -2.104  -2.103  -2.095  -2.092  -2.090  -0.827
 -0.752  -0.695  -0.644  -0.585  -0.472  -0.446  -0.425  -0.400
 -0.386  -0.364  -0.354  -0.324  -0.297  -0.281  -0.230  -0.223
 -- Virtual --
 -0.024   0.022   0.027   0.091   0.118   0.139   0.149   0.163
  0.171   0.197   0.200   0.228   0.245   0.262   0.277   0.308
  0.316   0.321   0.348   0.430   0.434   0.471   0.489   0.520
  0.544   0.565   0.584   0.595   0.615   0.642   0.681   0.711
  0.735   0.778   0.801   0.803   0.837   0.862   0.870   0.881
  0.912   0.921   0.943   0.947   1.004   1.057   1.104   1.332
  1.383   1.438   1.527   1.561   1.607   1.637   1.717   1.783
  1.823   1.860   1.928   1.980   1.994   2.030   2.039   2.055
  2.062   2.072   2.092   2.107   2.127   2.160   2.243   2.289
  2.355   2.420   2.477   2.526   2.589   2.614   2.676   2.714
  2.761   2.820   2.872   2.897   3.183   3.278   3.303   3.415
  3.458   3.529   4.173   4.232   4.236   4.254   4.287   4.299
  4.344   4.375   4.394   4.410   4.494   4.506   4.624   5.433
  5.476  89.680  89.836
 
 Beta MOs
 -- Occupied --
*******-453.894 -58.123 -58.090 -52.180 -52.179 -52.177 -52.147
-52.145 -52.144 -10.263 -10.206 -10.189  -7.856  -7.821  -5.801
 -5.797  -5.789  -5.766  -5.762  -5.754  -2.134  -2.133  -2.127
 -2.124  -2.123  -2.099  -2.099  -2.092  -2.089  -2.087  -0.824
 -0.747  -0.683  -0.631  -0.579  -0.471  -0.444  -0.421  -0.398
 -0.383  -0.361  -0.348  -0.318  -0.256  -0.220
 -- Virtual --
 -0.139  -0.082  -0.017   0.029   0.031   0.092   0.119   0.142
  0.152   0.164   0.173   0.199   0.205   0.230   0.252   0.263
  0.283   0.317   0.329   0.333   0.355   0.435   0.442   0.476
  0.498   0.538   0.554   0.586   0.589   0.603   0.625   0.649
  0.695   0.716   0.744   0.789   0.806   0.828   0.853   0.863
  0.882   0.901   0.922   0.934   0.947   0.986   1.006   1.067
  1.107   1.333   1.385   1.440   1.533   1.566   1.609   1.639
  1.719   1.784   1.823   1.861   1.929   2.035   2.054   2.055
  2.071   2.091   2.103   2.120   2.136   2.153   2.163   2.189
  2.244   2.289   2.355   2.420   2.477   2.526   2.589   2.614
  2.676   2.714   2.762   2.820   2.872   2.897   3.183   3.278
  3.303   3.415   3.458   3.530   4.174   4.240   4.244   4.262
  4.293   4.302   4.348   4.379   4.399   4.412   4.496   4.510
  4.624   5.441   5.486  89.683  89.839
 --------------------------------------------------------------
 
          Ground-State Mulliken Net Atomic Charges

     Atom                 Charge (a.u.)    Spin (a.u.)
  --------------------------------------------------------
      1 C                    -0.234534      -0.035125
      2 H                     0.156364       0.003735
      3 C                    -0.170981       0.014406
      4 H                     0.122375      -0.000797
      5 H                     0.121653      -0.004963
      6 C                    -0.329521      -0.000574
      7 H                     0.113931       0.000423
      8 H                     0.127115       0.000115
      9 H                     0.107976       0.000635
     10 Se                   -0.079707       0.871683
     11 H                    -0.040882       0.930788
     12 Se                    0.022825       0.228459
     13 H                     0.083388      -0.008784
  --------------------------------------------------------
  Sum of atomic charges =     0.000000
  Sum of spin   charges =     2.000000

 -----------------------------------------------------------------
                    Cartesian Multipole Moments
 -----------------------------------------------------------------
    Charge (ESU x 10^10)
                -0.0000
    Dipole Moment (Debye)
         X       1.6588      Y       1.4871      Z       0.9609
       Tot       2.4262
    Quadrupole Moments (Debye-Ang)
        XX     -60.1445     XY      -0.8304     YY     -54.7028
        XZ      -1.1874     YZ      -1.6823     ZZ     -60.9221
    Octopole Moments (Debye-Ang^2)
       XXX     -48.7791    XXY     -20.1720    XYY     -12.2986
       YYY     -51.8479    XXZ      47.1532    XYZ      -3.1409
       YYZ      47.0172    XZZ      -8.5714    YZZ     -13.4038
       ZZZ     151.9394
    Hexadecapole Moments (Debye-Ang^3)
      XXXX    -678.7905   XXXY     -52.6813   XXYY    -199.0060
      XYYY     -51.4467   YYYY    -540.5047   XXXZ     -25.6238
      XXYZ     -19.6780   XYYZ     -10.1443   YYYZ     -67.1417
      XXZZ    -209.4787   XYZZ      -8.1712   YYZZ    -184.7606
      XZZZ     -49.9866   YZZZ     -70.4785   ZZZZ    -608.9541
 -----------------------------------------------------------------
 Calculating analytic gradient of the SCF energy
 Gradient of SCF Energy
            1           2           3           4           5           6
    1   0.0002432   0.0007709  -0.0008396   0.0000044  -0.0000152   0.0000595
    2  -0.0003834   0.0002556  -0.0012438  -0.0000521   0.0015931   0.0002841
    3   0.0011387   0.0005563   0.0013795   0.0003903  -0.0031700  -0.0002184
            7           8           9          10          11          12
    1  -0.0000187  -0.0000268   0.0001588  -0.0003088  -0.0001338  -0.0001747
    2  -0.0000526  -0.0000233  -0.0000249   0.0006243  -0.0005873  -0.0011938
    3   0.0000243   0.0000057   0.0000337  -0.0011322   0.0018014   0.0005855
           13
    1   0.0002808
    2   0.0008041
    3  -0.0013948
 Max gradient component =       3.170E-03
 RMS gradient           =       8.679E-04
 Gradient time:  CPU 20.01 s  wall 1.75 s
 Geometry Optimization Parameters
   NAtoms,    NIC,     NZ,  NCons,   NDum,   NFix, NCnnct, MaxDiis
       13      98       0       1       0       0       0       0

 Cartesian Hessian Update
 Hessian Updated using BFGS Update


** CONSTRAINED OPTIMIZATION IN DELOCALIZED INTERNAL COORDINATES **
   Searching for a Minimum

   Optimization Cycle:   2

                       Coordinates (Angstroms)
     ATOM                X               Y               Z
      1  C         0.2422055952    0.8755430343   -1.0639286516
      2  H         0.5686588490    1.5165976733   -1.8864212394
      3  C         0.1648668157    1.6515621674    0.2452431444
      4  H        -0.6695353638    2.3579527947    0.1414521392
      5  H        -0.1243076642    0.9668235059    1.0431032088
      6  C         1.4399245309    2.4227057624    0.6033134346
      7  H         1.2857881163    3.0047711478    1.5170288066
      8  H         2.2858440749    1.7502939425    0.7723646629
      9  H         1.7216523086    3.1208171308   -0.1926661974
     10  Se       -1.3739102689   -0.1051666475   -1.5750822027
     11  H        -1.3338890650   -1.2059919925    1.3244487108
     12  Se        1.5625237325   -0.6226437951   -1.1363071931
     13  H         1.0623753388   -1.2843637241    0.0809513768
   Point Group: c1    Number of degrees of freedom:    33


   Energy is  -4921.609476238

              Constraints and their Current Values
                                        Value     Constraint
   Distance(Angs):       10  11             3.101725     3.100000
 Hessian Updated using BFGS Update

   Using Lagrange Multiplier Algorithm


 33 Hessian modes will be used to form the next step
  Hessian Eigenvalues:
    -0.998852    0.035238    0.043829    0.097283    0.098802    0.105190
     0.135033    0.138465    0.155631    0.162932    0.174413    0.177683
     0.180216    0.209580    0.224270    0.250760    0.288907    0.340119
     0.345884    0.345888    0.350571    0.363484    0.371333    0.403861
     0.630919    0.635565    0.732502    0.738813    0.742045    0.743237
     0.745531    0.829334    1.002559

 Minimum Search - Taking P-RFO Step
 Searching for Lamda that Maximizes Along the Constraint modes Only
 Value Taken    Lamda =   0.00000027
 Searching for Lamda that Minimizes Along All other modes
 Value Taken    Lamda =  -0.00005719
 Step Taken.  Stepsize is  0.009707

                             Maximum     Tolerance    Cnvgd?
         Gradient            0.003940       0.000300      NO
         Displacement        0.004096       0.001200      NO
         Energy change     -0.000266       0.000001      NO


 New Cartesian Coordinates Obtained by Inverse Iteration

 Displacement from previous Coordinates is:  0.012101
 ----------------------------------------------------------------
             Standard Nuclear Orientation (Angstroms)
    I     Atom           X                Y                Z
 ----------------------------------------------------------------
    1      C       0.2412837773     0.8761587727    -1.0645588898
    2      H       0.5664518689     1.5166776130    -1.8879833917
    3      C       0.1648131136     1.6515970301     0.2454918148
    4      H      -0.6695830368     2.3580631543     0.1417765202
    5      H      -0.1238272585     0.9663674734     1.0449714915
    6      C       1.4402764952     2.4220849291     0.6032030394
    7      H       1.2869390384     3.0042199891     1.5170121987
    8      H       2.2859502859     1.7492211427     0.7718329397
    9      H       1.7218211060     3.1201265517    -0.1928878732
   10      Se     -1.3735001032    -0.1063292669    -1.5762031190
   11      H      -1.3337452887    -1.2056297599     1.3220651019
   12      Se      1.5629591088    -0.6205359757    -1.1347183594
   13      H       1.0623578931    -1.2831206536     0.0834985269
 ----------------------------------------------------------------
 Nuclear Repulsion Energy =   606.6724620881 hartrees
 There are       48 alpha and       46 beta electrons

                       Distance Matrix (Angstroms)
             C (  1)   H (  2)   C (  3)   H (  4)   H (  5)   C (  6)
   H (  2)  1.092715
   C (  3)  1.524265  2.175140
   H (  4)  2.116829  2.521039  1.098211
   H (  5)  2.142793  3.062932  1.091797  1.746547
   C (  6)  2.570778  2.790939  1.532454  2.160676  2.181901
   H (  7)  3.505217  3.784954  2.169221  2.477251  2.523079  1.094276
   H (  8)  2.883615  3.175748  2.187644  3.082667  2.548429  1.093776
   H (  9)  2.826162  2.603704  2.184726  2.532105  3.094736  1.095578
   Se( 10)  1.958211  2.548484  2.962311  3.085479  3.095629  4.365779
   H ( 11)  3.537023  4.618021  3.401240  3.812361  2.501650  4.623016
   Se( 12)  1.997960  2.475503  3.003728  3.935192  3.180339  3.506132
   H ( 13)  2.579668  3.459990  3.073174  4.032522  2.718761  3.760514
             H (  7)   H (  8)   H (  9)   Se( 10)   H ( 11)   Se( 12)
   H (  8)  1.768711
   H (  9)  1.768139  1.768703
   Se( 10)  5.130442  4.727358  4.680234
   H ( 11)  4.962744  4.704901  5.508515  3.100000
   Se( 12)  4.499635  3.126244  3.860678  3.013654  3.843048
   H ( 13)  4.526222  3.341568  4.460927  3.173776  2.698400  1.474338

 
 Applying Cartesian multipole field
    Component          Value
    ---------          -----
     (2,0,0)        1.00000E-11
     (0,2,0)        2.00000E-11
     (0,0,2)       -3.00000E-11
 Nucleus-field energy     =    -0.0000000022 hartrees
 Requested basis set is 6-31G(d,p)
 There are 52 shells and 155 basis functions
 A cutoff of  1.0D-14 yielded   1248 shell pairs
 There are     11162 function pairs
 Smallest overlap matrix eigenvalue = 6.74E-04
 Guess from superposition of atomic densities
 Warning:  Energy on first SCF cycle will be non-variational
 SAD guess density has 93.936381 electrons

 -----------------------------------------------------------------------
  General SCF calculation program by
  Eric Jon Sundstrom, Paul Horn, Yuezhi Mao, Dmitri Zuev, Alec White,
  David Stuck, Shaama M.S., Shane Yost, Joonho Lee, David Small,
  Daniel Levine, Susi Lehtola, Hugh Burton, Evgeny Epifanovsky
 -----------------------------------------------------------------------
 Exchange:     0.2000 Hartree-Fock + 0.0800 Slater + 0.7200 B88
 Correlation:  0.1900 VWN1RPA + 0.8100 LYP
 Using SG-1 standard quadrature grid
 using 12 threads for integral computing
 -------------------------------------------------------
 OpenMP Integral computing Module                
 Release: version 1.0, May 2013, Q-Chem Inc. Pittsburgh 
 -------------------------------------------------------
 -------------------------------------------------------
 OpenMP BLAS3 based DFT computing Module                
 Release: version 1.0, May 2013, Q-Chem Inc. Pittsburgh 
 -------------------------------------------------------
 A unrestricted SCF calculation will be
 performed using DIIS
 SCF converges when DIIS error is below 1.0e-06
 Alpha HF Exchange    Energy = -18.85903004155700
 Beta HF Exchange     Energy = -18.85903004155700
 DFT Correlation      Energy =  -5.13655599661435
 DFT Exchange         Energy = -149.86893878663471
 One-Electron (alpha) Energy = -4024.28693632326804
 One-Electron (beta)  Energy = -4024.28693632326804
 Total Coulomb        Energy = 2706.77535134701884
 ---------------------------------------
  Cycle       Energy         DIIS error
 ---------------------------------------
    1   -4927.8496140799      1.50e-01  
 Alpha HF Exchange    Energy = -19.04814559344564
 Beta HF Exchange     Energy = -18.87617453887175
 DFT Correlation      Energy =  -5.17459536561516
 DFT Exchange         Energy = -150.98695484736675
 One-Electron (alpha) Energy = -4055.76724911554265
 One-Electron (beta)  Energy = -4011.47534587012433
 Total Coulomb        Energy = 2733.18788949054624
    2   -4921.4681137545      9.31e-03  
 Alpha HF Exchange    Energy = -18.92324465298638
 Beta HF Exchange     Energy = -18.74534539553506
 DFT Correlation      Energy =  -5.13732774301400
 DFT Exchange         Energy = -149.95536369314735
 One-Electron (alpha) Energy = -4041.98309490519523
 One-Electron (beta)  Energy = -3995.05542764896018
 Total Coulomb        Energy = 2701.73088540120762
    3   -4921.3964565517      4.05e-03  
 Alpha HF Exchange    Energy = -19.03162168202598
 Beta HF Exchange     Energy = -18.86746556564768
 DFT Correlation      Energy =  -5.16825520019419
 DFT Exchange         Energy = -150.86851067526720
 One-Electron (alpha) Energy = -4054.04280292087469
 One-Electron (beta)  Energy = -4010.23933260239801
 Total Coulomb        Energy = 2730.16307653452122
    4   -4921.3824500259      3.90e-03  
 Alpha HF Exchange    Energy = -18.99730757885636
 Beta HF Exchange     Energy = -18.83187136916694
 DFT Correlation      Energy =  -5.15673149051032
 DFT Exchange         Energy = -150.57779738875382
 One-Electron (alpha) Energy = -4050.32294893661583
 One-Electron (beta)  Energy = -4006.32606578076047
 Total Coulomb        Energy = 2721.95414102525456
    5   -4921.5861194335      1.33e-03  
 Alpha HF Exchange    Energy = -18.98728609450191
 Beta HF Exchange     Energy = -18.81884769431569
 DFT Correlation      Energy =  -5.15405174593724
 DFT Exchange         Energy = -150.49188984906070
 One-Electron (alpha) Energy = -4049.01122195641119
 One-Electron (beta)  Energy = -4005.08228716788062
 Total Coulomb        Energy = 2719.26416987902712
    6   -4921.6089525431      1.31e-04  
 Alpha HF Exchange    Energy = -18.98766900373423
 Beta HF Exchange     Energy = -18.81895700563292
 DFT Correlation      Energy =  -5.15347084561675
 DFT Exchange         Energy = -150.49183919180319
 One-Electron (alpha) Energy = -4048.81677695673352
 One-Electron (beta)  Energy = -4004.97115499358779
 Total Coulomb        Energy = 2718.95799724655126
    7   -4921.6094086646      4.87e-05  
 Alpha HF Exchange    Energy = -18.98830627477918
 Beta HF Exchange     Energy = -18.82016892105822
 DFT Correlation      Energy =  -5.15337656979684
 DFT Exchange         Energy = -150.49809349633975
 One-Electron (alpha) Energy = -4048.92207015822123
 One-Electron (beta)  Energy = -4005.15651455458237
 Total Coulomb        Energy = 2719.25658814270218
    8   -4921.6094797461      3.51e-05  
 Alpha HF Exchange    Energy = -18.98805781783383
 Beta HF Exchange     Energy = -18.82018357115630
 DFT Correlation      Energy =  -5.15329830600325
 DFT Exchange         Energy = -150.49698577792333
 One-Electron (alpha) Energy = -4048.86773586477830
 One-Electron (beta)  Energy = -4005.14008563908601
 Total Coulomb        Energy = 2719.18438327409558
    9   -4921.6095016167      1.23e-05  
 Alpha HF Exchange    Energy = -18.98798959192585
 Beta HF Exchange     Energy = -18.82028277842961
 DFT Correlation      Energy =  -5.15318693434147
 DFT Exchange         Energy = -150.49682403815146
 One-Electron (alpha) Energy = -4048.85028896300673
 One-Electron (beta)  Energy = -4005.15087493091414
 Total Coulomb        Energy = 2719.17747847598957
   10   -4921.6095066748      4.14e-06  
 Alpha HF Exchange    Energy = -18.98798047208274
 Beta HF Exchange     Energy = -18.82036107238936
 DFT Correlation      Energy =  -5.15316521695794
 DFT Exchange         Energy = -150.49700751266369
 One-Electron (alpha) Energy = -4048.84507252303092
 One-Electron (beta)  Energy = -4005.15865693905744
 Total Coulomb        Energy = 2719.18027428936693
   11   -4921.6095073609      3.46e-06  
 Alpha HF Exchange    Energy = -18.98797417177952
 Beta HF Exchange     Energy = -18.82038044082470
 DFT Correlation      Energy =  -5.15314999535249
 DFT Exchange         Energy = -150.49701527678610
 One-Electron (alpha) Energy = -4048.84240485828377
 One-Electron (beta)  Energy = -4005.16129794085873
 Total Coulomb        Energy = 2719.18025300119416
   12   -4921.6095075967      6.75e-07  Convergence criterion met
 ---------------------------------------
 SCF time:   CPU 59.87s  wall 5.00s 
<S^2> =          2.004777570
 Alpha HF Exchange    Energy = -18.98797417177952
 Beta HF Exchange     Energy = -18.82038044082470
 DFT Correlation      Energy =  -5.15314999535249
 DFT Exchange         Energy = -150.49701527678610
 One-Electron (alpha) Energy = -4048.84240485828377
 One-Electron (beta)  Energy = -4005.16129794085873
 Total Coulomb        Energy = 2719.18025300119416
 Nuclear repulsion Energy = 606.67246208594713
 SCF   energy in the final basis set =    -4921.6095075967
 Total energy in the final basis set =    -4921.6095075967
 
 --------------------------------------------------------------
 
                    Orbital Energies (a.u.)
 --------------------------------------------------------------
 
 Alpha MOs
 -- Occupied --
*******-453.896 -58.123 -58.091 -52.180 -52.179 -52.178 -52.149
-52.148 -52.145 -10.263 -10.207 -10.189  -7.857  -7.824  -5.801
 -5.798  -5.791  -5.770  -5.767  -5.756  -2.135  -2.134  -2.128
 -2.125  -2.124  -2.104  -2.103  -2.095  -2.092  -2.090  -0.827
 -0.752  -0.694  -0.644  -0.585  -0.472  -0.446  -0.425  -0.400
 -0.386  -0.364  -0.354  -0.324  -0.297  -0.281  -0.230  -0.222
 -- Virtual --
 -0.024   0.022   0.027   0.091   0.118   0.139   0.149   0.163
  0.171   0.197   0.200   0.228   0.245   0.262   0.277   0.308
  0.316   0.322   0.348   0.430   0.434   0.471   0.489   0.520
  0.544   0.565   0.584   0.595   0.615   0.642   0.681   0.711
  0.735   0.778   0.801   0.803   0.837   0.862   0.870   0.881
  0.912   0.921   0.942   0.947   1.004   1.057   1.104   1.332
  1.383   1.438   1.527   1.561   1.607   1.637   1.716   1.783
  1.823   1.860   1.928   1.980   1.994   2.030   2.039   2.055
  2.062   2.072   2.091   2.107   2.126   2.160   2.242   2.288
  2.355   2.420   2.476   2.526   2.589   2.614   2.675   2.714
  2.761   2.819   2.872   2.896   3.183   3.277   3.303   3.415
  3.458   3.528   4.173   4.232   4.236   4.254   4.287   4.299
  4.344   4.376   4.394   4.410   4.494   4.506   4.624   5.433
  5.476  89.680  89.837
 
 Beta MOs
 -- Occupied --
*******-453.894 -58.123 -58.090 -52.180 -52.179 -52.177 -52.147
-52.145 -52.144 -10.263 -10.206 -10.189  -7.856  -7.821  -5.801
 -5.797  -5.789  -5.766  -5.762  -5.754  -2.134  -2.133  -2.127
 -2.124  -2.123  -2.099  -2.099  -2.092  -2.089  -2.087  -0.824
 -0.747  -0.683  -0.631  -0.579  -0.471  -0.444  -0.421  -0.398
 -0.383  -0.361  -0.348  -0.318  -0.256  -0.220
 -- Virtual --
 -0.139  -0.082  -0.017   0.029   0.031   0.092   0.119   0.142
  0.152   0.164   0.173   0.199   0.205   0.230   0.252   0.264
  0.283   0.317   0.329   0.333   0.355   0.435   0.442   0.476
  0.498   0.538   0.554   0.586   0.589   0.603   0.625   0.649
  0.696   0.716   0.744   0.789   0.806   0.827   0.853   0.863
  0.881   0.901   0.922   0.934   0.947   0.986   1.005   1.067
  1.107   1.333   1.385   1.440   1.533   1.566   1.609   1.639
  1.719   1.783   1.823   1.861   1.929   2.035   2.054   2.055
  2.071   2.090   2.103   2.120   2.136   2.153   2.164   2.189
  2.244   2.289   2.355   2.420   2.477   2.527   2.589   2.614
  2.675   2.714   2.761   2.819   2.872   2.896   3.183   3.277
  3.303   3.415   3.458   3.529   4.174   4.240   4.244   4.262
  4.293   4.302   4.348   4.379   4.399   4.412   4.497   4.510
  4.624   5.441   5.486  89.683  89.839
 --------------------------------------------------------------
 
          Ground-State Mulliken Net Atomic Charges

     Atom                 Charge (a.u.)    Spin (a.u.)
  --------------------------------------------------------
      1 C                    -0.234566      -0.035133
      2 H                     0.156520       0.003738
      3 C                    -0.170917       0.014430
      4 H                     0.122309      -0.000794
      5 H                     0.121489      -0.004972
      6 C                    -0.329433      -0.000574
      7 H                     0.113929       0.000429
      8 H                     0.127172       0.000111
      9 H                     0.107959       0.000640
     10 Se                   -0.079604       0.871724
     11 H                    -0.041039       0.930533
     12 Se                    0.022851       0.228678
     13 H                     0.083328      -0.008810
  --------------------------------------------------------
  Sum of atomic charges =     0.000000
  Sum of spin   charges =     2.000000

 -----------------------------------------------------------------
                    Cartesian Multipole Moments
 -----------------------------------------------------------------
    Charge (ESU x 10^10)
                -0.0000
    Dipole Moment (Debye)
         X       1.6588      Y       1.4909      Z       0.9596
       Tot       2.4280
    Quadrupole Moments (Debye-Ang)
        XX     -60.1458     XY      -0.8302     YY     -54.7118
        XZ      -1.1792     YZ      -1.6911     ZZ     -60.9154
    Octopole Moments (Debye-Ang^2)
       XXX     -48.8010    XXY     -20.1907    XYY     -12.3236
       YYY     -51.8869    XXZ      47.1474    XYZ      -3.1435
       YYZ      47.0068    XZZ      -8.5948    YZZ     -13.3997
       ZZZ     151.9150
    Hexadecapole Moments (Debye-Ang^3)
      XXXX    -678.8119   XXXY     -52.9247   XXYY    -198.9763
      XYYY     -51.6458   YYYY    -540.2022   XXXZ     -25.8084
      XXYZ     -19.6509   XYYZ     -10.1695   YYYZ     -67.0654
      XXZZ    -209.4868   XYZZ      -8.2334   YYZZ    -184.6773
      XZZZ     -50.1489   YZZZ     -70.4243   ZZZZ    -608.9795
 -----------------------------------------------------------------
 Calculating analytic gradient of the SCF energy
 Gradient of SCF Energy
            1           2           3           4           5           6
    1   0.0001928   0.0006794  -0.0005086  -0.0000192  -0.0001554   0.0000385
    2  -0.0002515   0.0001743  -0.0008346  -0.0000591   0.0011229   0.0002211
    3   0.0007952   0.0004177   0.0010275   0.0002697  -0.0023841  -0.0001677
            7           8           9          10          11          12
    1   0.0000056  -0.0000074   0.0001233  -0.0002577  -0.0001356  -0.0000962
    2  -0.0000412  -0.0000441  -0.0000350   0.0006358  -0.0005873  -0.0008496
    3   0.0000247   0.0000206   0.0000312  -0.0012076   0.0018060   0.0003672
           13
    1   0.0001406
    2   0.0005482
    3  -0.0010004
 Max gradient component =       2.384E-03
 RMS gradient           =       6.850E-04
 Gradient time:  CPU 19.90 s  wall 1.69 s
 Geometry Optimization Parameters
   NAtoms,    NIC,     NZ,  NCons,   NDum,   NFix, NCnnct, MaxDiis
       13      98       0       1       0       0       0       0

 Cartesian Hessian Update
 Hessian Updated using BFGS Update


** CONSTRAINED OPTIMIZATION IN DELOCALIZED INTERNAL COORDINATES **
   Searching for a Minimum

   Optimization Cycle:   3

                       Coordinates (Angstroms)
     ATOM                X               Y               Z
      1  C         0.2412837773    0.8761587727   -1.0645588898
      2  H         0.5664518689    1.5166776130   -1.8879833917
      3  C         0.1648131136    1.6515970301    0.2454918148
      4  H        -0.6695830368    2.3580631543    0.1417765202
      5  H        -0.1238272585    0.9663674734    1.0449714915
      6  C         1.4402764952    2.4220849291    0.6032030394
      7  H         1.2869390384    3.0042199891    1.5170121987
      8  H         2.2859502859    1.7492211427    0.7718329397
      9  H         1.7218211060    3.1201265517   -0.1928878732
     10  Se       -1.3735001032   -0.1063292669   -1.5762031190
     11  H        -1.3337452887   -1.2056297599    1.3220651019
     12  Se        1.5629591088   -0.6205359757   -1.1347183594
     13  H         1.0623578931   -1.2831206536    0.0834985269
   Point Group: c1    Number of degrees of freedom:    33


   Energy is  -4921.609507597

              Constraints and their Current Values
                                        Value     Constraint
   Distance(Angs):       10  11             3.100000     3.100000
 Hessian Updated using BFGS Update

 32 Hessian modes will be used to form the next step
  Hessian Eigenvalues:
     0.031524    0.043546    0.093604    0.097924    0.101915    0.105409
     0.137366    0.146094    0.162346    0.174639    0.177057    0.177883
     0.180326    0.214146    0.229008    0.266426    0.293032    0.345834
     0.345896    0.346017    0.347009    0.359525    0.370314    0.388705
     0.598829    0.631012    0.658400    0.732532    0.738841    0.742051
     0.743364    0.746044

 Minimum Search - Taking Simple RFO Step
 Searching for Lamda that Minimizes Along All modes
 Value Taken    Lamda =  -0.00007707
 Step Taken.  Stepsize is  0.031464

                             Maximum     Tolerance    Cnvgd?
         Gradient           0.001396      0.000300      NO
         Displacement       0.011670      0.001200      NO
         Energy change     -0.000031      0.000001      NO


 New Cartesian Coordinates Obtained by Inverse Iteration

 Displacement from previous Coordinates is:  0.043577
 ----------------------------------------------------------------
             Standard Nuclear Orientation (Angstroms)
    I     Atom           X                Y                Z
 ----------------------------------------------------------------
    1      C       0.2377385835     0.8782670242    -1.0670397518
    2      H       0.5585198688     1.5175803503    -1.8930746425
    3      C       0.1642291725     1.6515314111     0.2460864898
    4      H      -0.6697421110     2.3587714317     0.1432132181
    5      H      -0.1216997169     0.9649408877     1.0510404018
    6      C       1.4413104898     2.4194210871     0.6026598127
    7      H       1.2905670222     3.0014134428     1.5169923608
    8      H       2.2859205232     1.7447899486     0.7696894150
    9      H       1.7227051707     3.1174961507    -0.1934378533
   10      Se     -1.3717681504    -0.1098019273    -1.5834574180
   11      H      -1.3318246896    -1.2044649998     1.3165629229
   12      Se      1.5642092736    -0.6133192920    -1.1285177308
   13      H       1.0620315637    -1.2777245153     0.0927827752
 ----------------------------------------------------------------
 Nuclear Repulsion Energy =   606.8001499126 hartrees
 There are       48 alpha and       46 beta electrons

                       Distance Matrix (Angstroms)
             C (  1)   H (  2)   C (  3)   H (  4)   H (  5)   C (  6)
   H (  2)  1.092683
   C (  3)  1.525661  2.179316
   H (  4)  2.116631  2.522439  1.098308
   H (  5)  2.150110  3.071795  1.095953  1.751361
   C (  6)  2.571311  2.796663  1.532232  2.161322  2.181641
   H (  7)  3.506197  3.790278  2.169336  2.478522  2.521672  1.094277
   H (  8)  2.884352  3.182114  2.187334  3.083081  2.546362  1.093797
   H (  9)  2.825324  2.608414  2.184281  2.532351  3.095812  1.095565
   Se( 10)  1.957927  2.543668  2.967965  3.093232  3.107784  4.369152
   H ( 11)  3.533110  4.613535  3.397177  3.809430  2.498245  4.618711
   Se( 12)  1.997031  2.477235  2.996503  3.929524  3.175479  3.494223
   H ( 13)  2.583205  3.465672  3.067587  4.028112  2.710909  3.751361
             H (  7)   H (  8)   H (  9)   Se( 10)   H ( 11)   Se( 12)
   H (  8)  1.768698
   H (  9)  1.767990  1.768940
   Se( 10)  5.136193  4.728160  4.682240
   H ( 11)  4.960496  4.699495  5.503599  3.100000
   Se( 12)  4.487750  3.112031  3.849478  3.013381  3.835999
   H ( 13)  4.515708  3.330420  4.453805  3.177610  2.689526  1.478239

 
 Applying Cartesian multipole field
    Component          Value
    ---------          -----
     (2,0,0)        1.00000E-11
     (0,2,0)        2.00000E-11
     (0,0,2)       -3.00000E-11
 Nucleus-field energy     =    -0.0000000022 hartrees
 Requested basis set is 6-31G(d,p)
 There are 52 shells and 155 basis functions
 A cutoff of  1.0D-14 yielded   1250 shell pairs
 There are     11186 function pairs
 Smallest overlap matrix eigenvalue = 6.74E-04
 Guess from superposition of atomic densities
 Warning:  Energy on first SCF cycle will be non-variational
 SAD guess density has 93.936381 electrons

 -----------------------------------------------------------------------
  General SCF calculation program by
  Eric Jon Sundstrom, Paul Horn, Yuezhi Mao, Dmitri Zuev, Alec White,
  David Stuck, Shaama M.S., Shane Yost, Joonho Lee, David Small,
  Daniel Levine, Susi Lehtola, Hugh Burton, Evgeny Epifanovsky
 -----------------------------------------------------------------------
 Exchange:     0.2000 Hartree-Fock + 0.0800 Slater + 0.7200 B88
 Correlation:  0.1900 VWN1RPA + 0.8100 LYP
 Using SG-1 standard quadrature grid
 using 12 threads for integral computing
 -------------------------------------------------------
 OpenMP Integral computing Module                
 Release: version 1.0, May 2013, Q-Chem Inc. Pittsburgh 
 -------------------------------------------------------
 -------------------------------------------------------
 OpenMP BLAS3 based DFT computing Module                
 Release: version 1.0, May 2013, Q-Chem Inc. Pittsburgh 
 -------------------------------------------------------
 A unrestricted SCF calculation will be
 performed using DIIS
 SCF converges when DIIS error is below 1.0e-06
 Alpha HF Exchange    Energy = -18.85856672054069
 Beta HF Exchange     Energy = -18.85856672054069
 DFT Correlation      Energy =  -5.13649227517989
 DFT Exchange         Energy = -149.86789758619045
 One-Electron (alpha) Energy = -4024.41867715205808
 One-Electron (beta)  Energy = -4024.41867715205808
 Total Coulomb        Energy = 2706.91256805611511
 ---------------------------------------
  Cycle       Energy         DIIS error
 ---------------------------------------
    1   -4927.8461596400      1.50e-01  
 Alpha HF Exchange    Energy = -19.04784255230334
 Beta HF Exchange     Energy = -18.87584798999958
 DFT Correlation      Energy =  -5.17452134547877
 DFT Exchange         Energy = -150.98472207319514
 One-Electron (alpha) Energy = -4055.91100733045369
 One-Electron (beta)  Energy = -4011.60049747049425
 Total Coulomb        Energy = 2733.32609881961116
    2   -4921.4681900319      9.31e-03  
 Alpha HF Exchange    Energy = -18.92294965235427
 Beta HF Exchange     Energy = -18.74495680160586
 DFT Correlation      Energy =  -5.13723406632210
 DFT Exchange         Energy = -149.95297736365899
 One-Electron (alpha) Energy = -4042.10880859140661
 One-Electron (beta)  Energy = -3995.14139051683060
 Total Coulomb        Energy = 2701.81237450001709
    3   -4921.3957925818      4.06e-03  
 Alpha HF Exchange    Energy = -19.03142348078375
 Beta HF Exchange     Energy = -18.86729728265840
 DFT Correlation      Energy =  -5.16820526591658
 DFT Exchange         Energy = -150.86727597518421
 One-Electron (alpha) Energy = -4054.20484659571775
 One-Electron (beta)  Energy = -4010.37830906486670
 Total Coulomb        Energy = 2730.33517288581925
    4   -4921.3820348689      3.90e-03  
 Alpha HF Exchange    Energy = -18.99702967213505
 Beta HF Exchange     Energy = -18.83157295168087
 DFT Correlation      Energy =  -5.15667786397165
 DFT Exchange         Energy = -150.57580033644584
 One-Electron (alpha) Energy = -4050.46669629927192
 One-Electron (beta)  Energy = -4006.45160418866817
 Total Coulomb        Energy = 2722.09315987474656
    5   -4921.5860715270      1.33e-03  
 Alpha HF Exchange    Energy = -18.98701371842991
 Beta HF Exchange     Energy = -18.81853353710291
 DFT Correlation      Energy =  -5.15398178335426
 DFT Exchange         Energy = -150.48984555067369
 One-Electron (alpha) Energy = -4049.14920260793360
 One-Electron (beta)  Energy = -4005.20256052597688
 Total Coulomb        Energy = 2719.39200395025182
    6   -4921.6089838628      1.32e-04  
 Alpha HF Exchange    Energy = -18.98741288210643
 Beta HF Exchange     Energy = -18.81865918968330
 DFT Correlation      Energy =  -5.15340082389091
 DFT Exchange         Energy = -150.48990314196794
 One-Electron (alpha) Energy = -4048.95528606897778
 One-Electron (beta)  Energy = -4005.09301614820288
 Total Coulomb        Energy = 2719.08808047450066
    7   -4921.6094478699      4.88e-05  
 Alpha HF Exchange    Energy = -18.98804522500900
 Beta HF Exchange     Energy = -18.81986927477509
 DFT Correlation      Energy =  -5.15330041186837
 DFT Exchange         Energy = -150.49611823160873
 One-Electron (alpha) Energy = -4049.05954645571364
 One-Electron (beta)  Energy = -4005.27852511676019
 Total Coulomb        Energy = 2719.38573499569611
    8   -4921.6095198096      3.53e-05  
 Alpha HF Exchange    Energy = -18.98779774078777
 Beta HF Exchange     Energy = -18.81988923735391
 DFT Correlation      Energy =  -5.15322475428740
 DFT Exchange         Energy = -150.49503930806713
 One-Electron (alpha) Energy = -4049.00541928769690
 One-Electron (beta)  Energy = -4005.26252654975542
 Total Coulomb        Energy = 2719.31420509139525
    9   -4921.6095418761      1.26e-05  
 Alpha HF Exchange    Energy = -18.98772678358184
 Beta HF Exchange     Energy = -18.81998434162088
 DFT Correlation      Energy =  -5.15311076068334
 DFT Exchange         Energy = -150.49484624546980
 One-Electron (alpha) Energy = -4048.98736158628117
 One-Electron (beta)  Energy = -4005.27281100357959
 Total Coulomb        Energy = 2719.30614378266728
   10   -4921.6095470281      4.66e-06  
 Alpha HF Exchange    Energy = -18.98772003420487
 Beta HF Exchange     Energy = -18.82006349358223
 DFT Correlation      Energy =  -5.15309043634021
 DFT Exchange         Energy = -150.49504598150182
 One-Electron (alpha) Energy = -4048.98278259057361
 One-Electron (beta)  Energy = -4005.28083113068215
 Total Coulomb        Energy = 2719.30983597133536
   11   -4921.6095477851      3.61e-06  
 Alpha HF Exchange    Energy = -18.98771212407602
 Beta HF Exchange     Energy = -18.82008713215562
 DFT Correlation      Energy =  -5.15307323524112
 DFT Exchange         Energy = -150.49505726289368
 One-Electron (alpha) Energy = -4048.97950306539997
 One-Electron (beta)  Energy = -4005.28382700177781
 Total Coulomb        Energy = 2719.30956185474952
   12   -4921.6095480564      6.56e-07  Convergence criterion met
 ---------------------------------------
 SCF time:   CPU 59.70s  wall 5.00s 
<S^2> =          2.004794053
 Alpha HF Exchange    Energy = -18.98771212407602
 Beta HF Exchange     Energy = -18.82008713215562
 DFT Correlation      Energy =  -5.15307323524112
 DFT Exchange         Energy = -150.49505726289368
 One-Electron (alpha) Energy = -4048.97950306539997
 One-Electron (beta)  Energy = -4005.28382700177781
 Total Coulomb        Energy = 2719.30956185474952
 Nuclear repulsion Energy = 606.80014991040707
 SCF   energy in the final basis set =    -4921.6095480564
 Total energy in the final basis set =    -4921.6095480564
 
 --------------------------------------------------------------
 
                    Orbital Energies (a.u.)
 --------------------------------------------------------------
 
 Alpha MOs
 -- Occupied --
*******-453.896 -58.123 -58.091 -52.180 -52.179 -52.178 -52.149
-52.148 -52.145 -10.263 -10.207 -10.189  -7.857  -7.824  -5.801
 -5.798  -5.791  -5.770  -5.767  -5.756  -2.135  -2.134  -2.128
 -2.125  -2.124  -2.104  -2.103  -2.095  -2.092  -2.090  -0.827
 -0.752  -0.694  -0.644  -0.585  -0.471  -0.446  -0.425  -0.401
 -0.385  -0.364  -0.353  -0.324  -0.297  -0.281  -0.230  -0.222
 -- Virtual --
 -0.023   0.022   0.026   0.091   0.117   0.139   0.149   0.163
  0.170   0.196   0.200   0.228   0.246   0.262   0.277   0.308
  0.316   0.322   0.348   0.430   0.433   0.470   0.489   0.520
  0.544   0.565   0.585   0.595   0.614   0.642   0.681   0.711
  0.736   0.778   0.799   0.803   0.837   0.862   0.870   0.881
  0.913   0.920   0.942   0.947   1.003   1.056   1.105   1.332
  1.382   1.439   1.526   1.562   1.607   1.638   1.716   1.782
  1.823   1.860   1.926   1.980   1.994   2.030   2.039   2.054
  2.062   2.071   2.090   2.107   2.123   2.161   2.241   2.288
  2.354   2.419   2.475   2.527   2.587   2.612   2.674   2.713
  2.757   2.817   2.872   2.895   3.182   3.274   3.302   3.413
  3.457   3.525   4.173   4.232   4.236   4.254   4.287   4.299
  4.344   4.376   4.393   4.410   4.495   4.506   4.623   5.433
  5.476  89.680  89.837
 
 Beta MOs
 -- Occupied --
*******-453.894 -58.123 -58.090 -52.180 -52.179 -52.177 -52.147
-52.145 -52.144 -10.263 -10.207 -10.189  -7.856  -7.821  -5.801
 -5.797  -5.789  -5.766  -5.762  -5.754  -2.134  -2.133  -2.127
 -2.124  -2.123  -2.099  -2.099  -2.092  -2.089  -2.087  -0.824
 -0.747  -0.683  -0.631  -0.578  -0.471  -0.444  -0.421  -0.398
 -0.383  -0.361  -0.348  -0.318  -0.256  -0.220
 -- Virtual --
 -0.139  -0.082  -0.017   0.029   0.030   0.092   0.119   0.142
  0.152   0.164   0.172   0.198   0.205   0.230   0.252   0.264
  0.283   0.317   0.329   0.333   0.355   0.435   0.442   0.476
  0.498   0.538   0.554   0.586   0.590   0.603   0.624   0.649
  0.696   0.716   0.744   0.789   0.805   0.827   0.853   0.863
  0.881   0.901   0.922   0.935   0.947   0.986   1.005   1.066
  1.107   1.333   1.384   1.441   1.533   1.567   1.609   1.641
  1.718   1.782   1.823   1.861   1.927   2.036   2.054   2.055
  2.070   2.089   2.102   2.117   2.136   2.153   2.164   2.189
  2.243   2.288   2.354   2.420   2.475   2.527   2.588   2.612
  2.675   2.713   2.758   2.817   2.872   2.895   3.182   3.275
  3.302   3.413   3.457   3.525   4.174   4.240   4.244   4.262
  4.293   4.302   4.348   4.380   4.399   4.412   4.497   4.510
  4.624   5.441   5.486  89.684  89.839
 --------------------------------------------------------------
 
          Ground-State Mulliken Net Atomic Charges

     Atom                 Charge (a.u.)    Spin (a.u.)
  --------------------------------------------------------
      1 C                    -0.234667      -0.035145
      2 H                     0.157078       0.003726
      3 C                    -0.170692       0.014523
      4 H                     0.122074      -0.000780
      5 H                     0.120849      -0.005015
      6 C                    -0.329148      -0.000570
      7 H                     0.113897       0.000449
      8 H                     0.127373       0.000094
      9 H                     0.107910       0.000661
     10 Se                   -0.079634       0.871334
     11 H                    -0.041003       0.930282
     12 Se                    0.022900       0.229350
     13 H                     0.083064      -0.008910
  --------------------------------------------------------
  Sum of atomic charges =    -0.000000
  Sum of spin   charges =     2.000000

 -----------------------------------------------------------------
                    Cartesian Multipole Moments
 -----------------------------------------------------------------
    Charge (ESU x 10^10)
                 0.0000
    Dipole Moment (Debye)
         X       1.6568      Y       1.5011      Z       0.9636
       Tot       2.4345
    Quadrupole Moments (Debye-Ang)
        XX     -60.1526     XY      -0.8271     YY     -54.7414
        XZ      -1.1553     YZ      -1.7254     ZZ     -60.8981
    Octopole Moments (Debye-Ang^2)
       XXX     -48.8650    XXY     -20.2619    XYY     -12.4188
       YYY     -52.0377    XXZ      47.1804    XYZ      -3.1490
       YYZ      47.0261    XZZ      -8.6892    YZZ     -13.4104
       ZZZ     152.0277
    Hexadecapole Moments (Debye-Ang^3)
      XXXX    -678.6782   XXXY     -53.6858   XXYY    -198.8138
      XYYY     -52.2475   YYYY    -539.0163   XXXZ     -26.7329
      XXYZ     -19.5501   XYYZ     -10.3666   YYYZ     -66.7491
      XXZZ    -209.6006   XYZZ      -8.4066   YYZZ    -184.5397
      XZZZ     -51.0085   YZZZ     -70.1208   ZZZZ    -610.2871
 -----------------------------------------------------------------
 Calculating analytic gradient of the SCF energy
 Gradient of SCF Energy
            1           2           3           4           5           6
    1   0.0000050   0.0002596   0.0004951  -0.0000553  -0.0004563  -0.0000366
    2   0.0001296  -0.0000751   0.0003549  -0.0000416  -0.0002581  -0.0000277
    3  -0.0003157  -0.0000300  -0.0000060  -0.0001179   0.0000741   0.0000227
            7           8           9          10          11          12
    1   0.0000684   0.0000330   0.0000342  -0.0000649  -0.0001369   0.0000891
    2  -0.0000149  -0.0000929  -0.0000575   0.0006838  -0.0005777   0.0001913
    3   0.0000194   0.0000554   0.0000230  -0.0015551   0.0018075  -0.0001214
           13
    1  -0.0002344
    2  -0.0002139
    3   0.0001440
 Max gradient component =       1.808E-03
 RMS gradient           =       4.408E-04
 Gradient time:  CPU 19.58 s  wall 1.66 s
 Geometry Optimization Parameters
   NAtoms,    NIC,     NZ,  NCons,   NDum,   NFix, NCnnct, MaxDiis
       13      98       0       1       0       0       0       0

 Cartesian Hessian Update
 Hessian Updated using BFGS Update


** CONSTRAINED OPTIMIZATION IN DELOCALIZED INTERNAL COORDINATES **
   Searching for a Minimum

   Optimization Cycle:   4

                       Coordinates (Angstroms)
     ATOM                X               Y               Z
      1  C         0.2377385835    0.8782670242   -1.0670397518
      2  H         0.5585198688    1.5175803503   -1.8930746425
      3  C         0.1642291725    1.6515314111    0.2460864898
      4  H        -0.6697421110    2.3587714317    0.1432132181
      5  H        -0.1216997169    0.9649408877    1.0510404018
      6  C         1.4413104898    2.4194210871    0.6026598127
      7  H         1.2905670222    3.0014134428    1.5169923608
[...]
   H ( 13)  2.581909  3.465532  3.064637  4.026290  2.707697  3.747313
             H (  7)   H (  8)   H (  9)   Se( 10)   H ( 11)   Se( 12)
   H (  8)  1.768711
   H (  9)  1.768048  1.768723
   Se( 10)  5.139387  4.729604  4.683305
   H ( 11)  4.957339  4.694328  5.498652  3.100000
   Se( 12)  4.484444  3.108133  3.846936  3.013456  3.827596
   H ( 13)  4.511243  3.325904  4.450370  3.180392  2.682159  1.477390

 
 Applying Cartesian multipole field
    Component          Value
    ---------          -----
     (2,0,0)        1.00000E-11
     (0,2,0)        2.00000E-11
     (0,0,2)       -3.00000E-11
 Nucleus-field energy     =    -0.0000000023 hartrees
 Requested basis set is 6-31G(d,p)
 There are 52 shells and 155 basis functions
 A cutoff of  1.0D-14 yielded   1250 shell pairs
 There are     11186 function pairs
 Smallest overlap matrix eigenvalue = 6.74E-04
 Guess from superposition of atomic densities
 Warning:  Energy on first SCF cycle will be non-variational
 SAD guess density has 93.936381 electrons

 -----------------------------------------------------------------------
  General SCF calculation program by
  Eric Jon Sundstrom, Paul Horn, Yuezhi Mao, Dmitri Zuev, Alec White,
  David Stuck, Shaama M.S., Shane Yost, Joonho Lee, David Small,
  Daniel Levine, Susi Lehtola, Hugh Burton, Evgeny Epifanovsky
 -----------------------------------------------------------------------
 Exchange:     0.2000 Hartree-Fock + 0.0800 Slater + 0.7200 B88
 Correlation:  0.1900 VWN1RPA + 0.8100 LYP
 Using SG-1 standard quadrature grid
 using 12 threads for integral computing
 -------------------------------------------------------
 OpenMP Integral computing Module                
 Release: version 1.0, May 2013, Q-Chem Inc. Pittsburgh 
 -------------------------------------------------------
 -------------------------------------------------------
 OpenMP BLAS3 based DFT computing Module                
 Release: version 1.0, May 2013, Q-Chem Inc. Pittsburgh 
 -------------------------------------------------------
 A unrestricted SCF calculation will be
 performed using DIIS
 SCF converges when DIIS error is below 1.0e-06
 Alpha HF Exchange    Energy = -18.85863583032778
 Beta HF Exchange     Energy = -18.85863583032778
 DFT Correlation      Energy =  -5.13652015198556
 DFT Exchange         Energy = -149.86805099224568
 One-Electron (alpha) Energy = -4024.40695315556741
 One-Electron (beta)  Energy = -4024.40695315556741
 Total Coulomb        Energy = 2706.89996134125795
 ---------------------------------------
  Cycle       Energy         DIIS error
 ---------------------------------------
    1   -4927.8466036306      1.50e-01  
 Alpha HF Exchange    Energy = -19.04789559431378
 Beta HF Exchange     Energy = -18.87589021604014
 DFT Correlation      Energy =  -5.17455859354899
 DFT Exchange         Energy = -150.98507392097673
 One-Electron (alpha) Energy = -4055.90877913703753
 One-Electron (beta)  Energy = -4011.58029748452327
 Total Coulomb        Energy = 2733.31513683967660
    2   -4921.4681739626      9.31e-03  
 Alpha HF Exchange    Energy = -18.92300503990277
 Beta HF Exchange     Energy = -18.74495795617473
 DFT Correlation      Energy =  -5.13726687736120
 DFT Exchange         Energy = -149.95319514787246
 One-Electron (alpha) Energy = -4042.10581941396640
 One-Electron (beta)  Energy = -3995.11202882434645
 Total Coulomb        Energy = 2701.79168385431058
    3   -4921.3954052611      4.06e-03  
 Alpha HF Exchange    Energy = -19.03147479890863
 Beta HF Exchange     Energy = -18.86737818417330
 DFT Correlation      Energy =  -5.16824241107833
 DFT Exchange         Energy = -150.86773632155706
 One-Electron (alpha) Energy = -4054.20769323392460
 One-Electron (beta)  Energy = -4010.36194136590984
 Total Coulomb        Energy = 2730.33381293800721
    4   -4921.3814692334      3.90e-03  
 Alpha HF Exchange    Energy = -18.99708575911682
 Beta HF Exchange     Energy = -18.83161769010804
 DFT Correlation      Energy =  -5.15672793416881
 DFT Exchange         Energy = -150.57619024389282
 One-Electron (alpha) Energy = -4050.46611513009339
 One-Electron (beta)  Energy = -4006.43300111106555
 Total Coulomb        Energy = 2722.08552263633601
    5   -4921.5860310879      1.33e-03  
 Alpha HF Exchange    Energy = -18.98706454912329
 Beta HF Exchange     Energy = -18.81856020370107
 DFT Correlation      Energy =  -5.15402282850781
 DFT Exchange         Energy = -150.49013098544788
 One-Electron (alpha) Energy = -4049.14659321004137
 One-Electron (beta)  Energy = -4005.18223396532721
 Total Coulomb        Energy = 2719.38043619655809
    6   -4921.6089854014      1.32e-04  
 Alpha HF Exchange    Energy = -18.98747206492447
 Beta HF Exchange     Energy = -18.81869082833589
 DFT Correlation      Energy =  -5.15344104747934
 DFT Exchange         Energy = -150.49023263612440
 One-Electron (alpha) Energy = -4048.95282563590217
 One-Electron (beta)  Energy = -4005.07321054140903
 Total Coulomb        Energy = 2719.07723570438566
    7   -4921.6094529056      4.89e-05  
 Alpha HF Exchange    Energy = -18.98810287602910
 Beta HF Exchange     Energy = -18.81990317045729
 DFT Correlation      Energy =  -5.15333902818251
 DFT Exchange         Energy = -150.49644532160664
 One-Electron (alpha) Energy = -4049.05681884162004
 One-Electron (beta)  Energy = -4005.25897568497794
 Total Coulomb        Energy = 2719.37487543711404
    8   -4921.6095253416      3.53e-05  
 Alpha HF Exchange    Energy = -18.98785461507168
 Beta HF Exchange     Energy = -18.81992371926668
 DFT Correlation      Energy =  -5.15326278053139
 DFT Exchange         Energy = -150.49536431985644
 One-Electron (alpha) Energy = -4049.00253533351679
 One-Electron (beta)  Energy = -4005.24300985717173
 Total Coulomb        Energy = 2719.30321896837359
    9   -4921.6095475129      1.27e-05  
 Alpha HF Exchange    Energy = -18.98778341529716
 Beta HF Exchange     Energy = -18.82001931473498
 DFT Correlation      Energy =  -5.15314806283711
 DFT Exchange         Energy = -150.49517023471276
 One-Electron (alpha) Energy = -4048.98438121897152
 One-Electron (beta)  Energy = -4005.25334200380394
 Total Coulomb        Energy = 2719.29510739992884
   10   -4921.6095527063      4.71e-06  
 Alpha HF Exchange    Energy = -18.98777679534715
 Beta HF Exchange     Energy = -18.82009897451433
 DFT Correlation      Energy =  -5.15312761200908
 DFT Exchange         Energy = -150.49537203277114
 One-Electron (alpha) Energy = -4048.97980841259459
 One-Electron (beta)  Energy = -4005.26142445463120
 Total Coulomb        Energy = 2719.29887065963294
   11   -4921.6095534781      3.63e-06  
 Alpha HF Exchange    Energy = -18.98776878784097
 Beta HF Exchange     Energy = -18.82012310222322
 DFT Correlation      Energy =  -5.15311019308322
 DFT Exchange         Energy = -150.49538411690119
 One-Electron (alpha) Energy = -4048.97647969355057
 One-Electron (beta)  Energy = -4005.26446869147549
 Total Coulomb        Energy = 2719.29859668672361
   12   -4921.6095537542      6.57e-07  Convergence criterion met
 ---------------------------------------
 SCF time:   CPU 59.65s  wall 5.00s 
<S^2> =          2.004805000
 Alpha HF Exchange    Energy = -18.98776878784097
 Beta HF Exchange     Energy = -18.82012310222322
 DFT Correlation      Energy =  -5.15311019308322
 DFT Exchange         Energy = -150.49538411690119
 One-Electron (alpha) Energy = -4048.97647969355057
 One-Electron (beta)  Energy = -4005.26446869147549
 Total Coulomb        Energy = 2719.29859668672361
 Nuclear repulsion Energy = 606.78918414416501
 SCF   energy in the final basis set =    -4921.6095537542
 Total energy in the final basis set =    -4921.6095537542
 
 --------------------------------------------------------------
 
                    Orbital Energies (a.u.)
 --------------------------------------------------------------
 
 Alpha MOs
 -- Occupied --
*******-453.896 -58.123 -58.091 -52.180 -52.179 -52.178 -52.149
-52.148 -52.145 -10.263 -10.207 -10.189  -7.857  -7.824  -5.801
 -5.798  -5.791  -5.770  -5.767  -5.756  -2.135  -2.134  -2.128
 -2.125  -2.124  -2.104  -2.103  -2.094  -2.092  -2.090  -0.827
 -0.752  -0.694  -0.644  -0.585  -0.472  -0.446  -0.425  -0.401
 -0.385  -0.364  -0.353  -0.324  -0.297  -0.281  -0.229  -0.222
 -- Virtual --
 -0.023   0.022   0.026   0.091   0.117   0.139   0.149   0.163
  0.170   0.196   0.200   0.228   0.246   0.262   0.277   0.308
  0.316   0.322   0.348   0.430   0.433   0.470   0.490   0.520
  0.544   0.565   0.584   0.595   0.614   0.642   0.681   0.711
  0.736   0.778   0.799   0.803   0.837   0.862   0.871   0.880
  0.912   0.920   0.942   0.947   1.004   1.056   1.105   1.332
  1.382   1.438   1.526   1.562   1.607   1.639   1.716   1.782
  1.822   1.860   1.926   1.980   1.994   2.030   2.039   2.054
  2.063   2.071   2.090   2.107   2.124   2.161   2.242   2.287
  2.355   2.419   2.475   2.527   2.588   2.612   2.675   2.714
  2.757   2.817   2.872   2.895   3.182   3.275   3.302   3.413
  3.457   3.526   4.173   4.232   4.236   4.255   4.286   4.299
  4.344   4.377   4.393   4.410   4.495   4.506   4.623   5.433
  5.476  89.680  89.837
 
 Beta MOs
 -- Occupied --
*******-453.894 -58.123 -58.090 -52.180 -52.179 -52.177 -52.147
-52.145 -52.144 -10.263 -10.207 -10.189  -7.856  -7.821  -5.801
 -5.797  -5.789  -5.766  -5.762  -5.754  -2.134  -2.133  -2.127
 -2.124  -2.123  -2.099  -2.099  -2.092  -2.089  -2.087  -0.824
 -0.747  -0.683  -0.631  -0.578  -0.471  -0.444  -0.421  -0.398
 -0.383  -0.361  -0.348  -0.318  -0.256  -0.220
 -- Virtual --
 -0.139  -0.082  -0.017   0.029   0.030   0.092   0.119   0.142
  0.152   0.164   0.172   0.198   0.205   0.230   0.252   0.264
  0.283   0.318   0.329   0.333   0.355   0.435   0.442   0.476
  0.499   0.538   0.554   0.586   0.590   0.603   0.624   0.650
  0.696   0.716   0.744   0.788   0.805   0.827   0.853   0.863
  0.881   0.901   0.922   0.935   0.948   0.986   1.005   1.066
  1.108   1.333   1.384   1.440   1.533   1.567   1.609   1.641
  1.718   1.782   1.823   1.861   1.927   2.036   2.054   2.055
  2.070   2.090   2.102   2.118   2.136   2.153   2.164   2.188
  2.244   2.288   2.355   2.420   2.476   2.528   2.588   2.612
  2.675   2.714   2.757   2.817   2.872   2.895   3.182   3.275
  3.302   3.413   3.457   3.526   4.174   4.240   4.244   4.262
  4.292   4.302   4.348   4.380   4.398   4.412   4.497   4.510
  4.624   5.441   5.486  89.684  89.839
 --------------------------------------------------------------
 
          Ground-State Mulliken Net Atomic Charges

     Atom                 Charge (a.u.)    Spin (a.u.)
  --------------------------------------------------------
      1 C                    -0.234659      -0.035196
      2 H                     0.157184       0.003675
      3 C                    -0.170720       0.014559
      4 H                     0.122071      -0.000774
      5 H                     0.120779      -0.005006
      6 C                    -0.329206      -0.000569
      7 H                     0.113835       0.000454
      8 H                     0.127416       0.000087
      9 H                     0.107905       0.000671
     10 Se                   -0.079624       0.871383
     11 H                    -0.041064       0.930016
     12 Se                    0.023008       0.229643
     13 H                     0.083074      -0.008943
  --------------------------------------------------------
  Sum of atomic charges =     0.000000
  Sum of spin   charges =     2.000000

 -----------------------------------------------------------------
                    Cartesian Multipole Moments
 -----------------------------------------------------------------
    Charge (ESU x 10^10)
                 0.0000
    Dipole Moment (Debye)
         X       1.6566      Y       1.5028      Z       0.9701
       Tot       2.4380
    Quadrupole Moments (Debye-Ang)
        XX     -60.1550     XY      -0.8371     YY     -54.7474
        XZ      -1.1453     YZ      -1.7247     ZZ     -60.8946
    Octopole Moments (Debye-Ang^2)
       XXX     -48.8110    XXY     -20.2378    XYY     -12.4302
       YYY     -51.9417    XXZ      47.2079    XYZ      -3.1463
       YYZ      47.0804    XZZ      -8.7290    YZZ     -13.4195
       ZZZ     152.2041
    Hexadecapole Moments (Debye-Ang^3)
      XXXX    -678.2192   XXXY     -53.7420   XXYY    -198.7037
      XYYY     -52.2785   YYYY    -538.6993   XXXZ     -27.4574
      XXYZ     -19.5693   XYYZ     -10.6077   YYYZ     -66.8103
      XXZZ    -209.5740   XYZZ      -8.4075   YYZZ    -184.6463
      XZZZ     -51.6795   YZZZ     -70.0635   ZZZZ    -611.5091
 -----------------------------------------------------------------
 Calculating analytic gradient of the SCF energy
 Gradient of SCF Energy
            1           2           3           4           5           6
    1  -0.0000166  -0.0000368   0.0001240   0.0000814  -0.0000807   0.0000106
    2  -0.0000145  -0.0000122   0.0000073   0.0000985   0.0000697  -0.0000989
    3  -0.0000877  -0.0000151   0.0001117  -0.0000753  -0.0001295   0.0000492
            7           8           9          10          11          12
    1   0.0000213  -0.0000084   0.0001040  -0.0000050  -0.0001297   0.0000386
    2  -0.0000340  -0.0000551  -0.0000329   0.0007198  -0.0005688  -0.0000173
    3   0.0000139   0.0000312   0.0000321  -0.0018742   0.0018132   0.0002227
           13
    1  -0.0001027
    2  -0.0000616
    3  -0.0000921
 Max gradient component =       1.874E-03
 RMS gradient           =       4.487E-04
 Gradient time:  CPU 19.79 s  wall 1.68 s
 Geometry Optimization Parameters
   NAtoms,    NIC,     NZ,  NCons,   NDum,   NFix, NCnnct, MaxDiis
       13      98       0       1       0       0       0       0

 Cartesian Hessian Update
 Hessian Updated using BFGS Update


** CONSTRAINED OPTIMIZATION IN DELOCALIZED INTERNAL COORDINATES **
   Searching for a Minimum

   Optimization Cycle:   7

                       Coordinates (Angstroms)
     ATOM                X               Y               Z
      1  C         0.2358946312    0.8775437557   -1.0658291605
      2  H         0.5551392071    1.5182592860   -1.8912374887
      3  C         0.1631349274    1.6509948674    0.2470333496
      4  H        -0.6697837953    2.3595948365    0.1459229601
      5  H        -0.1191186076    0.9657827348    1.0534618429
      6  C         1.4413961715    2.4184584917    0.6016050404
      7  H         1.2912117905    3.0007897330    1.5158111782
      8  H         2.2855501315    1.7433851942    0.7684411125
      9  H         1.7232070101    3.1161142408   -0.1947657251
     10  Se       -1.3710733665   -0.1108700433   -1.5895239371
     11  H        -1.3285480467   -1.2028180305    1.3114831105
     12  Se        1.5637226620   -0.6131894224   -1.1252363834
     13  H         1.0614642848   -1.2751446438    0.0963341005
   Point Group: c1    Number of degrees of freedom:    33


   Energy is  -4921.609553754

              Constraints and their Current Values
                                        Value     Constraint
   Distance(Angs):       10  11             3.100000     3.100000
 Hessian Updated using BFGS Update

 32 Hessian modes will be used to form the next step
  Hessian Eigenvalues:
     0.008313    0.038837    0.058444    0.077560    0.098175    0.099953
     0.134853    0.146313    0.158580    0.162314    0.177501    0.180097
     0.181451    0.197192    0.224403    0.257236    0.290374    0.335339
     0.345360    0.345943    0.346090    0.356143    0.358502    0.376247
     0.602071    0.627489    0.651615    0.732284    0.738690    0.742018
     0.742842    0.745415

 Minimum Search - Taking Simple RFO Step
 Searching for Lamda that Minimizes Along All modes
 Value Taken    Lamda =  -0.00000172
 Step Taken.  Stepsize is  0.012267

                             Maximum     Tolerance    Cnvgd?
         Gradient           0.000088      0.000300     YES
         Displacement       0.005080      0.001200      NO
         Energy change     -0.000000      0.000001     YES


                       Distance Matrix (Angstroms)
             C (  1)   H (  2)   C (  3)   H (  4)   H (  5)   C (  6)
   H (  2)  1.092581
   C (  3)  1.525493  2.177955
   H (  4)  2.117799  2.521568  1.098222
   H (  5)  2.150631  3.071011  1.095221  1.752019
   C (  6)  2.570601  2.794651  1.532538  2.160600  2.179369
   H (  7)  3.505244  3.787833  2.168940  2.476536  2.518740  1.094275
   H (  8)  2.883629  3.181021  2.187475  3.082408  2.543292  1.093688
   H (  9)  2.825252  2.606826  2.185311  2.532745  3.094537  1.095604
   Se( 10)  1.957949  2.540746  2.971684  3.099481  3.116399  4.371331
   H ( 11)  3.525195  4.605427  3.391522  3.805691  2.496422  4.614126
   Se( 12)  1.997234  2.479329  2.995213  3.929611  3.173615  3.491108
   H ( 13)  2.581909  3.465532  3.064637  4.026290  2.707697  3.747313
             H (  7)   H (  8)   H (  9)   Se( 10)   H ( 11)   Se( 12)
   H (  8)  1.768711
   H (  9)  1.768048  1.768723
   Se( 10)  5.139387  4.729604  4.683305
   H ( 11)  4.957339  4.694328  5.498652  3.100000
   Se( 12)  4.484444  3.108133  3.846936  3.013456  3.827596
   H ( 13)  4.511243  3.325904  4.450370  3.180392  2.682159  1.477390

 
 Final energy is   -4921.60955375419     


 ******************************
 **  OPTIMIZATION CONVERGED  **
 ******************************

                       Coordinates (Angstroms)
     ATOM                X               Y               Z
      1  C         0.2358946312    0.8775437557   -1.0658291605
      2  H         0.5551392071    1.5182592860   -1.8912374887
      3  C         0.1631349274    1.6509948674    0.2470333496
      4  H        -0.6697837953    2.3595948365    0.1459229601
      5  H        -0.1191186076    0.9657827348    1.0534618429
      6  C         1.4413961715    2.4184584917    0.6016050404
      7  H         1.2912117905    3.0007897330    1.5158111782
      8  H         2.2855501315    1.7433851942    0.7684411125
      9  H         1.7232070101    3.1161142408   -0.1947657251
     10  Se       -1.3710733665   -0.1108700433   -1.5895239371
     11  H        -1.3285480467   -1.2028180305    1.3114831105
     12  Se        1.5637226620   -0.6131894224   -1.1252363834
     13  H         1.0614642848   -1.2751446438    0.0963341005

Z-matrix Print:
$molecule
0 3
Se
H  1 1.477390
C  1 1.997234 2 94.807951
H  3 1.092581 1 102.766325 2 175.046379 0
C  3 1.525493 1 115.832756 2 53.208544 0
H  5 1.095221 3 109.193959 1 -60.622400 0
H  5 1.098222 3 106.503819 1 -174.699059 0
C  5 1.532538 3 114.408251 1 64.417104 0
H  8 1.093688 5 111.713644 3 -63.962120 0
H  8 1.094275 5 110.200851 3 176.131223 0
H  8 1.095604 5 111.423267 3 56.659572 0
Se 3 1.957949 1 99.259261 2 -72.390243 0
H  6 2.496422 5 138.110826 3 -24.646919 0
$end

PES scan, value:    3.1000 energy: -4921.6095537542
------- Summary of potential scan: ------ 
    3.1000     -4921.6095537542
----------------------------------------- 
Archival summary:
1\1\hpc0248\JobtypUnspecified\ProcedureUnspecified\6-31G**\e238(3)\knomura\ThuMar1404:12:472019ThuMar1404:12:472019\0\\#,JobtypUnspecified,ProcedureUnspecified,6-31G**,\\0,3\Se\H,1,1.47739\C,1,1.99723,2,94.808\H,3,1.09258,1,102.766,2,175.046,0\C,3,1.52549,1,115.833,2,53.2085,0\H,5,1.09522,3,109.194,1,-60.6224,0\H,5,1.09822,3,106.504,1,-174.699,0\C,5,1.53254,3,114.408,1,64.4171,0\H,8,1.09369,5,111.714,3,-63.9621,0\H,8,1.09428,5,110.201,3,176.131,0\H,8,1.0956,5,111.423,3,56.6596,0\Se,3,1.95795,1,99.2593,2,-72.3902,0\H,6,2.49642,5,138.111,3,-24.6469,0\\\@

 Total job time:  51.02s(wall), 598.62s(cpu) 
 Thu Mar 14 04:12:47 2019

        *************************************************************
        *                                                           *
        *  Thank you very much for using Q-Chem.  Have a nice day.  *
        *                                                           *
        *************************************************************


