
Running Job 1 of 1 selenium/02/Se-H.xyz.data/inputs/bond_singlet_3.8.in
qchem selenium/02/Se-H.xyz.data/inputs/bond_singlet_3.8.in_1473.0 /staging/scratch/2868765/qchem1473/ 1
/usr/usc/qchem/5.1.1/exe/qcprog.exe_s selenium/02/Se-H.xyz.data/inputs/bond_singlet_3.8.in_1473.0 /staging/scratch/2868765/qchem1473/
Check license passed

                  Welcome to Q-Chem
     A Quantum Leap Into The Future Of Chemistry


 Q-Chem 5.1, Q-Chem, Inc., Pleasanton, CA (2018)

 Yihan Shao,  Zhengting Gan,  E. Epifanovsky,  A. T. B. Gilbert,  M. Wormit,  
 J. Kussmann,  A. W. Lange,  A. Behn,  Jia Deng,  Xintian Feng,  D. Ghosh,  
 M. Goldey,  P. R. Horn,  L. D. Jacobson,  I. Kaliman,  T. Kus,  A. Landau,  
 Jie Liu,  E. I. Proynov,  R. M. Richard,  R. P. Steele,  E. J. Sundstrom,  
 H. L. Woodcock III,  P. M. Zimmerman,  D. Zuev,  B. Albrecht,  E. Alguire,  
 S. A. Baeppler,  D. Barton,  Z. Benda,  Y. A. Bernard,  E. J. Berquist,  
 K. B. Bravaya,  H. Burton,  D. Casanova,  Chun-Min Chang,  Yunqing Chen,  
 A. Chien,  K. D. Closser,  M. P. Coons,  S. Coriani,  S. Dasgupta,  
 A. L. Dempwolff,  M. Diedenhofen,  Hainam Do,  R. G. Edgar,  Po-Tung Fang,  
 S. Faraji,  S. Fatehi,  Qingguo Feng,  K. D. Fenk,  J. Fosso-Tande,  
 Qinghui Ge,  A. Ghysels,  G. Gidofalvi,  J. Gomes,  J. Gonthier,  A. Gunina,  
 D. Hait,  M. W. D. Hanson-Heine,  P. H. P. Harbach,  A. W. Hauser,  
 J. E. Herr,  E. G. Hohenstein,  Z. C. Holden,  Kerwin Hui,  B. C. Huynh,  
 T.-C. Jagau,  Hyunjun Ji,  B. Kaduk,  K. Khistyaev,  Jaehoon Kim,  
 P. Klunzinger,  K. Koh,  D. Kosenkov,  L. Koulias,  T. Kowalczyk,  
 C. M. Krauter,  A. Kunitsa,  Ka Un Lao,  A. Laurent,  K. V. Lawler,  
 Joonho Lee,  D. Lefrancois,  S. Lehtola,  D. S. Levine,  Yi-Pei Li,  
 You-Sheng Lin,  Fenglai Liu,  E. Livshits,  A. Luenser,  P. Manohar,  
 E. Mansoor,  S. F. Manzer,  Shan-Ping Mao,  Yuezhi Mao,  N. Mardirossian,  
 A. V. Marenich,  T. Markovich,  L. A. Martinez-Martinez,  S. A. Maurer,  
 N. J. Mayhall,  S. C. McKenzie,  J.-M. Mewes,  A. F. Morrison,  
 J. W. Mullinax,  K. Nanda,  T. S. Nguyen-Beck,  R. Olivares-Amaya,  
 J. A. Parkhill,  T. M. Perrine,  F. Plasser,  P. Pokhilko,  S. Prager,  
 A. Prociuk,  E. Ramos,  D. R. Rehn,  F. Rob,  M. Schneider,  N. Sergueev,  
 S. M. Sharada,  S. Sharma,  D. W. Small,  T. Stauch,  T. Stein,  
 Yu-Chuan Su,  A. J. W. Thom,  A. Tkatchenko,  T. Tsuchimochi,  N. M. Tubman,  
 L. Vogt,  M. L. Vidal,  O. Vydrov,  M. A. Watson,  J. Wenzel,  
 M. de Wergifosse,  T. A. Wesolowski,  A. White,  J. Witte,  A. Yamada,  
 Jun Yang,  K. Yao,  S. Yeganeh,  S. R. Yost,  Zhi-Qiang You,  A. Zech,  
 Igor Ying Zhang,  Xing Zhang,  Yan Zhao,  Ying Zhu,  B. R. Brooks,  
 G. K. L. Chan,  C. J. Cramer,  M. S. Gordon,  W. J. Hehre,  A. Klamt,  
 M. W. Schmidt,  C. D. Sherrill,  D. G. Truhlar,  A. Aspuru-Guzik,  R. Baer,  
 A. T. Bell,  N. A. Besley,  Jeng-Da Chai,  A. E. DePrince, III,  
 R. A. DiStasio Jr.,  A. Dreuw,  B. D. Dunietz,  T. R. Furlani,  
 Chao-Ping Hsu,  Yousung Jung,  Jing Kong,  D. S. Lambrecht,  WanZhen Liang,  
 C. Ochsenfeld,  V. A. Rassolov,  L. V. Slipchenko,  J. E. Subotnik,  
 T. Van Voorhis,  J. M. Herbert,  A. I. Krylov,  P. M. W. Gill,  M. Head-Gordon

 Contributors to earlier versions of Q-Chem not listed above: 
 R. D. Adamson,  B. Austin,  J. Baker,  G. J. O. Beran,  K. Brandhorst,  
 S. T. Brown,  E. F. C. Byrd,  A. K. Chakraborty,  C.-L. Cheng,  
 Siu Hung Chien,  D. M. Chipman,  D. L. Crittenden,  H. Dachsel,  
 R. J. Doerksen,  A. D. Dutoi,  L. Fusti-Molnar,  W. A. Goddard III,  
 A. Golubeva-Zadorozhnaya,  S. R. Gwaltney,  G. Hawkins,  A. Heyden,  
 S. Hirata,  G. Kedziora,  F. J. Keil,  C. Kelley,  Jihan Kim,  R. A. King,  
 R. Z. Khaliullin,  P. P. Korambath,  W. Kurlancheek,  A. M. Lee,  M. S. Lee,  
 S. V. Levchenko,  Ching Yeh Lin,  D. Liotard,  R. C. Lochan,  I. Lotan,  
 P. E. Maslen,  N. Nair,  D. P. O'Neill,  D. Neuhauser,  E. Neuscamman,  
 C. M. Oana,  R. Olson,  B. Peters,  R. Peverati,  P. A. Pieniazek,  
 Y. M. Rhee,  J. Ritchie,  M. A. Rohrdanz,  E. Rosta,  N. J. Russ,  
 H. F. Schaefer III,  N. E. Schultz,  N. Shenvi,  A. C. Simmonett,  A. Sodt,  
 D. Stuck,  K. S. Thanthiriwatte,  V. Vanovschi,  Tao Wang,  A. Warshel,  
 C. F. Williams,  Q. Wu,  X. Xu,  W. Zhang

 Please cite Q-Chem as follows:
 Y. Shao et al., Mol. Phys. 113, 184-215 (2015)
 DOI: 10.1080/00268976.2014.952696

 Q-Chem 5.1.1 for Intel X86 EM64T Linux

 Parts of Q-Chem use Armadillo 8.300.2 (Tropical Shenanigans).
 http://arma.sourceforge.net/

 Q-Chem begins on Thu Mar 14 01:13:31 2019  

Host: 
0

     Scratch files written to /staging/scratch/2868765/qchem1473//
 Aug318 |scratch|qcdevops|jenkins|workspace|build_RNUM 6013   
Processing $rem in /usr/usc/qchem/5.1.1/config/preferences.
 MEM_TOTAL  2000 
Input Ideriv = 2
Curr. Ideriv = -1
Max.  Ideriv = 2

Checking the input file for inconsistencies... 	...done.

--------------------------------------------------------------
User input:
--------------------------------------------------------------

$comment
potential surface scanner
$end

$rem
JOBTYPE  PES_SCAN
UNRESTRICTED TRUE
SYM_IGNORE  TRUE
GEOM_OPT_MAX_CYCLES 400
SCF_MAX_CYCLES 400
METHOD   B3LYP
BASIS   6-31G**
PDB_PRINT 2
SCF_CONVERGENCE 6
THRESH 14
SCF_PRINT 1
$end
$molecule
0 1
C 0.315336 1.070558 -1.021349
H -1.174674 -0.298910 -2.493271
C 0.403575 2.069270 0.116849
H 0.087794 3.038817 -0.297097
H -0.352313 1.816555 0.872615
C 1.774672 2.217341 0.778306
H 1.719267 2.961627 1.578759
H 2.105833 1.269212 1.210441
H 2.528868 2.535607 0.056070
Se -1.493729 0.511927 -1.308443
H -0.034140 -1.691854 1.280562
Se 1.693794 0.501523 -2.005898
H -0.742073 -1.552766 1.105959
$end
$scan
stre 10 11 3.800000 3.801000 0.100000
$end
--------------------------------------------------------------
 ----------------------------------------------------------------
             Standard Nuclear Orientation (Angstroms)
    I     Atom           X                Y                Z
 ----------------------------------------------------------------
    1      C       0.3153360000     1.0705580000    -1.0213490000
    2      H      -1.1746740000    -0.2989100000    -2.4932710000
    3      C       0.4035750000     2.0692700000     0.1168490000
    4      H       0.0877940000     3.0388170000    -0.2970970000
    5      H      -0.3523130000     1.8165550000     0.8726150000
    6      C       1.7746720000     2.2173410000     0.7783060000
    7      H       1.7192670000     2.9616270000     1.5787590000
    8      H       2.1058330000     1.2692120000     1.2104410000
    9      H       2.5288680000     2.5356070000     0.0560700000
   10      Se     -1.4937290000     0.5119270000    -1.3084430000
   11      H      -0.0341400000    -1.6918540000     1.2805620000
   12      Se      1.6937940000     0.5015230000    -2.0058980000
   13      H      -0.7420730000    -1.5527660000     1.1059590000
 ----------------------------------------------------------------
 Nuclear Repulsion Energy =   596.4067041161 hartrees
 There are       47 alpha and       47 beta electrons
 Requested basis set is 6-31G(d,p)
 There are 52 shells and 155 basis functions

 Total QAlloc Memory Limit   2000 MB
 Mega-Array Size       188 MB
 MEM_STATIC part       192 MB
A total of 1 constraints
  
            1
    1   1.0100000
    2  10.0100000
    3  11.0100000
    4   3.8000000
    5   3.8010000
    6   0.1000000
    7   0.0000000
    8   0.0000000
    9   0.0000000
   10   0.0000000

                       Distance Matrix (Angstroms)
             C (  1)   H (  2)   C (  3)   H (  4)   H (  5)   C (  6)
   H (  2)  2.502424
   C (  3)  1.516808  3.861589
   H (  4)  2.109588  4.190158  1.100495
   H (  5)  2.142281  4.059638  1.098369  1.748097
   C (  6)  2.585253  5.072808  1.529496  2.162608  2.166469
   H (  7)  3.508237  5.965520  2.159752  2.487267  2.470075  1.094421
   H (  8)  2.868140  5.190204  2.175711  3.078417  2.540904  1.093324
   H (  9)  2.864773  5.315059  2.176703  2.517298  3.079770  1.091664
   Se( 10)  1.914995  1.470738  2.838404  3.147890  2.786018  4.236202
   H ( 11)  3.612734  4.181259  3.961297  4.988299  3.546349  4.336573
   Se( 12)  1.786976  3.017670  2.937439  3.455011  3.768514  3.271447
   H ( 13)  3.539122  3.835851  3.925556  4.872359  3.399807  4.544785
             H (  7)   H (  8)   H (  9)   Se( 10)   H ( 11)   Se( 12)
   H (  8)  1.774644
   H (  9)  1.776381  1.765018
   Se( 10)  4.965915  4.458150  4.705153
   H ( 11)  4.981791  3.654082  5.093115  3.700000
   Se( 12)  4.347704  3.332260  3.014392  3.262952  4.312479
   H ( 13)  5.163475  4.010617  5.340048  3.264549  0.742294  4.453898

 
 A cutoff of  1.0D-14 yielded   1214 shell pairs
 There are     10924 function pairs
 
 -------------------------------------------------------
 OpenMP Integral Computing Module                       
 Release: version 1.0, May 2013, Q-Chem Inc. Pittsburgh 
 -------------------------------------------------------
 Integral Job Info:
 Integral job number is                      11
 Integral operator is                         1
 short-range coefficients                     0
 long-range coefficients              100000000
 Omega coefficients                           0
 if combine SR and LR in K                    0
 Integral screening is                        0
 Integral computing path is                   2
 max size of driver memory is            800000
 size of driver memory is                593474
 size of scratch memory is             15267112
 max col of scratch BK array               1296
 max len of scratch array in speh3          155
 max len of scratch index in speh4           18
 max int batch size is                      520
 min int batch size is                       52
 fixed nKL is                                52
 max L of basis functions is                  2
 order of int derivative is                   0
 number of shells is                         52
 number of basis is                         155
 number of cartesian basis is               155
 number of contracted shell pairs          1214
 number of primitive shell pairs           4828
 maxK2 (contraction) of shell pair           36
 max number of K2 of shell pair               1
 max number of CS2 of shell pair             80
 max number of PS2 of shell pair            480
 mem total for path MDJ                  535932
 -------------------------------------------------------
 Smallest overlap matrix eigenvalue = 6.75E-04

 Scale SEOQF with 1.000000e-01/1.000000e-01/1.000000e-01

 Standard Electronic Orientation quadrupole field applied
 Nucleus-field energy     =    -0.0000000078 hartrees
 Guess from superposition of atomic densities
 Warning:  Energy on first SCF cycle will be non-variational
 SAD guess density has 93.936381 electrons

 -----------------------------------------------------------------------
  General SCF calculation program by
  Eric Jon Sundstrom, Paul Horn, Yuezhi Mao, Dmitri Zuev, Alec White,
  David Stuck, Shaama M.S., Shane Yost, Joonho Lee, David Small,
  Daniel Levine, Susi Lehtola, Hugh Burton, Evgeny Epifanovsky
 -----------------------------------------------------------------------
 Exchange:     0.2000 Hartree-Fock + 0.0800 Slater + 0.7200 B88
 Correlation:  0.1900 VWN1RPA + 0.8100 LYP
 Using SG-1 standard quadrature grid
 using 12 threads for integral computing
 -------------------------------------------------------
 OpenMP Integral computing Module                
 Release: version 1.0, May 2013, Q-Chem Inc. Pittsburgh 
 -------------------------------------------------------
 -------------------------------------------------------
 OpenMP BLAS3 based DFT computing Module                
 Release: version 1.0, May 2013, Q-Chem Inc. Pittsburgh 
 -------------------------------------------------------
 A unrestricted SCF calculation will be
 performed using DIIS
 SCF converges when DIIS error is below 1.0e-06
 Alpha HF Exchange    Energy = -18.86025606386503
 Beta HF Exchange     Energy = -18.86025606386503
 DFT Correlation      Energy =  -5.13361767357360
 DFT Exchange         Energy = -149.88139729840583
 One-Electron (alpha) Energy = -4013.94663880504550
 One-Electron (beta)  Energy = -4013.94663880504550
 Total Coulomb        Energy = 2696.38020342672598
 ---------------------------------------
  Cycle       Energy         DIIS error
 ---------------------------------------
    1   -4927.8418971748      1.51e-01  
 Alpha HF Exchange    Energy = -18.96562953220824
 Beta HF Exchange     Energy = -18.96562953220824
 DFT Correlation      Energy =  -5.18616177020760
 DFT Exchange         Energy = -151.01133267073089
 One-Electron (alpha) Energy = -4023.76319636901189
 One-Electron (beta)  Energy = -4023.76319636901098
 Total Coulomb        Energy = 2723.69282820709896
    2   -4921.5556139280      9.32e-03  
 Alpha HF Exchange    Energy = -18.84152231253405
 Beta HF Exchange     Energy = -18.84152231253405
 DFT Correlation      Energy =  -5.15152318836864
 DFT Exchange         Energy = -150.02450674667418
 One-Electron (alpha) Energy = -4010.53355362760067
 One-Electron (beta)  Energy = -4010.53355362759930
 Total Coulomb        Energy = 2695.99481397005820
    3   -4921.5246637370      4.02e-03  
 Alpha HF Exchange    Energy = -18.93884735896929
 Beta HF Exchange     Energy = -18.93884735896928
 DFT Correlation      Energy =  -5.17431081603923
 DFT Exchange         Energy = -150.76869619659132
 One-Electron (alpha) Energy = -4020.18057330968895
 One-Electron (beta)  Energy = -4020.18057330968895
 Total Coulomb        Energy = 2716.25555069799475
    4   -4921.5195935437      3.78e-03  
 Alpha HF Exchange    Energy = -18.91324290271695
 Beta HF Exchange     Energy = -18.91324290271695
 DFT Correlation      Energy =  -5.17231475012254
 DFT Exchange         Energy = -150.59457178605442
 One-Electron (alpha) Energy = -4018.30376878543029
 One-Electron (beta)  Energy = -4018.30376878542893
 Total Coulomb        Energy = 2712.13773861528352
    5   -4921.6564671889      1.57e-03  
 Alpha HF Exchange    Energy = -18.90194461299340
 Beta HF Exchange     Energy = -18.90194461299338
 DFT Correlation      Energy =  -5.16726741253076
 DFT Exchange         Energy = -150.49501924820595
 One-Electron (alpha) Energy = -4017.11418912028284
 One-Electron (beta)  Energy = -4017.11418912028057
 Total Coulomb        Energy = 2709.59942002936486
    6   -4921.6884299896      2.33e-04  
 Alpha HF Exchange    Energy = -18.90070479081165
 Beta HF Exchange     Energy = -18.90070479081166
 DFT Correlation      Energy =  -5.16731865133935
 DFT Exchange         Energy = -150.48737360133873
 One-Electron (alpha) Energy = -4016.87754433051396
 One-Electron (beta)  Energy = -4016.87754433051532
 Total Coulomb        Energy = 2709.11553298673789
    7   -4921.6889534003      1.21e-04  
 Alpha HF Exchange    Energy = -18.90107124575168
 Beta HF Exchange     Energy = -18.90107124575171
 DFT Correlation      Energy =  -5.16719847737919
 DFT Exchange         Energy = -150.48941934305913
 One-Electron (alpha) Energy = -4016.91539979641539
 One-Electron (beta)  Energy = -4016.91539979641766
 Total Coulomb        Energy = 2709.19376086930924
    8   -4921.6890949272      2.40e-05  
 Alpha HF Exchange    Energy = -18.90120208775768
 Beta HF Exchange     Energy = -18.90120208775770
 DFT Correlation      Energy =  -5.16724611629834
 DFT Exchange         Energy = -150.49044391962383
 One-Electron (alpha) Energy = -4016.94716831490541
 One-Electron (beta)  Energy = -4016.94716831490678
 Total Coulomb        Energy = 2709.25862158249083
    9   -4921.6891051505      8.40e-06  
 Alpha HF Exchange    Energy = -18.90119574485871
 Beta HF Exchange     Energy = -18.90119574485871
 DFT Correlation      Energy =  -5.16725894071708
 DFT Exchange         Energy = -150.49039331415307
 One-Electron (alpha) Energy = -4016.94442769092348
 One-Electron (beta)  Energy = -4016.94442769092211
 Total Coulomb        Energy = 2709.25308899284119
   10   -4921.6891060253      1.37e-06  
 Alpha HF Exchange    Energy = -18.90119953832305
 Beta HF Exchange     Energy = -18.90119953832305
 DFT Correlation      Energy =  -5.16725878747532
 DFT Exchange         Energy = -150.49042051890774
 One-Electron (alpha) Energy = -4016.94466439526695
 One-Electron (beta)  Energy = -4016.94466439526741
 Total Coulomb        Energy = 2709.25359701617163
   11   -4921.6891060491      3.34e-07  Convergence criterion met
 ---------------------------------------
 SCF time:   CPU 54.29s  wall 5.00s 
<S^2> =          0.000000000
 Alpha HF Exchange    Energy = -18.90119953832305
 Beta HF Exchange     Energy = -18.90119953832305
 DFT Correlation      Energy =  -5.16725878747532
 DFT Exchange         Energy = -150.49042051890774
 One-Electron (alpha) Energy = -4016.94466439526695
 One-Electron (beta)  Energy = -4016.94466439526741
 Total Coulomb        Energy = 2709.25359701617163
 Nuclear repulsion Energy = 596.40670410828795
 SCF   energy in the final basis set =    -4921.6891060491
 Total energy in the final basis set =    -4921.6891060491
 
 --------------------------------------------------------------
 
                    Orbital Energies (a.u.)
 --------------------------------------------------------------
 
 Alpha MOs
 -- Occupied --
*******-453.879 -58.123 -58.074 -52.180 -52.179 -52.177 -52.132
-52.131 -52.128 -10.289 -10.219 -10.186  -7.856  -7.808  -5.801
 -5.797  -5.790  -5.753  -5.749  -5.740  -2.135  -2.134  -2.128
 -2.124  -2.124  -2.087  -2.086  -2.079  -2.076  -2.074  -0.831
 -0.753  -0.697  -0.652  -0.528  -0.470  -0.449  -0.430  -0.418
 -0.382  -0.370  -0.364  -0.339  -0.305  -0.240  -0.214
 -- Virtual --
 -0.085  -0.023   0.041   0.072   0.094   0.097   0.141   0.150
  0.162   0.178   0.180   0.193   0.221   0.237   0.272   0.277
  0.292   0.323   0.339   0.355   0.445   0.484   0.504   0.516
  0.528   0.558   0.575   0.580   0.607   0.620   0.643   0.650
  0.680   0.694   0.771   0.812   0.830   0.850   0.860   0.880
  0.904   0.919   0.952   0.975   0.981   1.047   1.059   1.079
  1.204   1.329   1.450   1.523   1.583   1.603   1.654   1.679
  1.714   1.761   1.783   1.837   1.876   1.904   2.032   2.042
  2.058   2.068   2.099   2.104   2.157   2.199   2.240   2.295
  2.380   2.391   2.430   2.564   2.601   2.620   2.628   2.664
  2.674   2.737   2.814   2.870   2.898   3.192   3.276   3.370
  3.449   3.517   4.060   4.162   4.244   4.257   4.260   4.270
  4.331   4.350   4.354   4.385   4.436   4.483   4.497   4.605
  5.432   5.473  89.712  89.731
 
 Beta MOs
 -- Occupied --
*******-453.879 -58.123 -58.074 -52.180 -52.179 -52.177 -52.132
-52.131 -52.128 -10.289 -10.219 -10.186  -7.856  -7.808  -5.801
 -5.797  -5.790  -5.753  -5.749  -5.740  -2.135  -2.134  -2.128
 -2.124  -2.124  -2.087  -2.086  -2.079  -2.076  -2.074  -0.831
 -0.753  -0.697  -0.652  -0.528  -0.470  -0.449  -0.430  -0.418
 -0.382  -0.370  -0.364  -0.339  -0.305  -0.240  -0.214
 -- Virtual --
 -0.085  -0.023   0.041   0.072   0.094   0.097   0.141   0.150
  0.162   0.178   0.180   0.193   0.221   0.237   0.272   0.277
  0.292   0.323   0.339   0.355   0.445   0.484   0.504   0.516
  0.528   0.558   0.575   0.580   0.607   0.620   0.643   0.650
  0.680   0.694   0.771   0.812   0.830   0.850   0.860   0.880
  0.904   0.919   0.952   0.975   0.981   1.047   1.059   1.079
  1.204   1.329   1.450   1.523   1.583   1.603   1.654   1.679
  1.714   1.761   1.783   1.837   1.876   1.904   2.032   2.042
  2.058   2.068   2.099   2.104   2.157   2.199   2.240   2.295
  2.380   2.391   2.430   2.564   2.601   2.620   2.628   2.664
  2.674   2.737   2.814   2.870   2.898   3.192   3.276   3.370
  3.449   3.517   4.060   4.162   4.244   4.257   4.260   4.270
  4.331   4.350   4.354   4.385   4.436   4.483   4.497   4.605
  5.432   5.473  89.712  89.731
 --------------------------------------------------------------
 
          Ground-State Mulliken Net Atomic Charges

     Atom                 Charge (a.u.)    Spin (a.u.)
  --------------------------------------------------------
      1 C                    -0.031337      -0.000000
      2 H                     0.091729      -0.000000
      3 C                    -0.225388       0.000000
      4 H                     0.151495       0.000000
      5 H                     0.128732       0.000000
      6 C                    -0.315350       0.000000
      7 H                     0.104221      -0.000000
      8 H                     0.125664      -0.000000
      9 H                     0.142003      -0.000000
     10 Se                    0.021802       0.000000
     11 H                    -0.005728       0.000000
     12 Se                   -0.193165       0.000000
     13 H                     0.005323      -0.000000
  --------------------------------------------------------
  Sum of atomic charges =     0.000000
  Sum of spin   charges =     0.000000

 -----------------------------------------------------------------
                    Cartesian Multipole Moments
 -----------------------------------------------------------------
    Charge (ESU x 10^10)
                -0.0000
    Dipole Moment (Debye)
         X      -1.3724      Y       0.8513      Z       1.1848
       Tot       2.0029
    Quadrupole Moments (Debye-Ang)
        XX     -59.8372     XY       0.3754     YY     -55.3154
        XZ       3.9021     YZ       2.7616     ZZ     -59.2072
    Octopole Moments (Debye-Ang^2)
       XXX     -64.7212    XXY     -56.6379    XYY     -17.7313
       YYY    -142.9878    XXZ      59.5098    XYZ      -1.2679
       YYZ      61.4706    XZZ     -26.9982    YZZ     -55.5738
       ZZZ     176.3475
    Hexadecapole Moments (Debye-Ang^3)
      XXXX    -803.9638   XXXY    -120.6524   XXYY    -237.4686
      XYYY    -114.0783   YYYY    -575.3483   XXXZ      52.0155
      XXYZ      36.4624   XYYZ      17.4229   YYYZ      77.3858
      XXZZ    -260.9196   XYZZ     -35.4980   YYZZ    -240.5787
      XZZZ      64.9962   YZZZ      85.2463   ZZZZ    -819.2465
 -----------------------------------------------------------------
 Calculating analytic gradient of the SCF energy
 Gradient of SCF Energy
            1           2           3           4           5           6
    1  -0.0000057  -0.0000708  -0.0001220   0.0000504   0.0000208   0.0000588
    2  -0.0000043  -0.0000154   0.0000129  -0.0000080   0.0000322  -0.0000084
    3   0.0000593  -0.0000049  -0.0000806   0.0000196   0.0000282   0.0000296
            7           8           9          10          11          12
    1   0.0000743   0.0000312   0.0000246   0.0005608  -0.0005697  -0.0001318
    2  -0.0000210  -0.0000031  -0.0000451  -0.0007813   0.0006914  -0.0000267
    3  -0.0000279  -0.0000460  -0.0000632   0.0010893  -0.0008290  -0.0000518
           13
    1   0.0000791
    2   0.0001768
    3  -0.0001224
 Max gradient component =       1.089E-03
 RMS gradient           =       3.093E-04
 Gradient time:  CPU 19.38 s  wall 1.69 s
 Geometry Optimization Parameters
   NAtoms,    NIC,     NZ,  NCons,   NDum,   NFix, NCnnct, MaxDiis
       13     122       0       1       0       0       0       0


** CONSTRAINED OPTIMIZATION IN DELOCALIZED INTERNAL COORDINATES **
   Searching for a Minimum

   Optimization Cycle:   1

                       Coordinates (Angstroms)
     ATOM                X               Y               Z
      1  C         0.3153360000    1.0705580000   -1.0213490000
      2  H        -1.1746740000   -0.2989100000   -2.4932710000
      3  C         0.4035750000    2.0692700000    0.1168490000
      4  H         0.0877940000    3.0388170000   -0.2970970000
      5  H        -0.3523130000    1.8165550000    0.8726150000
      6  C         1.7746720000    2.2173410000    0.7783060000
      7  H         1.7192670000    2.9616270000    1.5787590000
      8  H         2.1058330000    1.2692120000    1.2104410000
      9  H         2.5288680000    2.5356070000    0.0560700000
     10  Se       -1.4937290000    0.5119270000   -1.3084430000
     11  H        -0.0341400000   -1.6918540000    1.2805620000
     12  Se        1.6937940000    0.5015230000   -2.0058980000
     13  H        -0.7420730000   -1.5527660000    1.1059590000
   Point Group: c1    Number of degrees of freedom:    33


   Energy is  -4921.689106049

              Constraints and their Current Values
                                        Value     Constraint
   Distance(Angs):       10  11             3.700000     3.800000

 Attempting to Generate Delocalized Internal Coordinates

   Using Lagrange Multiplier Algorithm


 34 Hessian modes will be used to form the next step
  Hessian Eigenvalues:
    -0.996591    0.012501    0.041534    0.045000    0.047110    0.050337
     0.058395    0.066232    0.069670    0.071933    0.075757    0.082980
     0.083891    0.083994    0.090241    0.106754    0.117169    0.133752
     0.147995    0.160000    0.160000    0.160000    0.177568    0.182170
     0.271701    0.278470    0.289285    0.294700    0.300639    0.336274
     0.343067    0.344313    0.346211    1.003421

 Minimum Search - Taking P-RFO Step
 Searching for Lamda that Maximizes Along the Constraint modes Only
 Value Taken    Lamda =   0.01741650


 ********************************************
 ** ERROR IN DETERMINING Lamda IN CONFormD **
 ********************************************


 ** Scaling Hessian by  2.786503 **


 34 Hessian modes will be used to form the next step
  Hessian Eigenvalues:
    -0.990529    0.034833    0.115736    0.125393    0.131272    0.140264
     0.162717    0.184555    0.194135    0.200441    0.211098    0.231223
     0.233763    0.234048    0.251457    0.297470    0.326491    0.372700
     0.412388    0.445841    0.445841    0.445841    0.494795    0.507617
     0.757095    0.775958    0.806095    0.821183    0.837732    0.937028
     0.955958    0.959430    0.964717    1.009561

 Minimum Search - Taking P-RFO Step
 Searching for Lamda that Maximizes Along the Constraint modes Only
 Value Taken    Lamda =   0.01762565
 Searching for Lamda that Minimizes Along All other modes
 Value Taken    Lamda =  -0.01747118
 Step Taken.  Stepsize is  0.185715

                             Maximum     Tolerance    Cnvgd?
         Gradient            0.188973       0.000300      NO
         Displacement        0.185714       0.001200      NO
         Energy change     *********       0.000001      NO


 New Cartesian Coordinates Obtained by Inverse Iteration

 Displacement from previous Coordinates is:  0.184041
 ----------------------------------------------------------------
             Standard Nuclear Orientation (Angstroms)
    I     Atom           X                Y                Z
 ----------------------------------------------------------------
    1      C       0.3137853731     1.0681282551    -1.0292013139
    2      H      -1.1965815746    -0.2736374762    -2.5247612509
    3      C       0.4055831698     2.0635102380     0.1118913417
    4      H       0.0923958488     3.0314613167    -0.3077578180
    5      H      -0.3491310580     1.8107938101     0.8693441085
    6      C       1.7708807448     2.2141585810     0.7845814833
    7      H       1.7077758675     2.9593800766     1.5835952486
    8      H       2.0996353183     1.2669942664     1.2206721633
    9      H       2.5306833201     2.5325430663     0.0683029521
   10      Se     -1.5103737437     0.5387113634    -1.3396388937
   11      H       0.0096209771    -1.7047243801     1.3218469242
   12      Se      1.6900043808     0.4894989264    -2.0113381554
   13      H      -0.7320686240    -1.5479110438     1.1259662103
 ----------------------------------------------------------------
 Nuclear Repulsion Energy =   594.8340793666 hartrees
 There are       47 alpha and       47 beta electrons

                       Distance Matrix (Angstroms)
             C (  1)   H (  2)   C (  3)   H (  4)   H (  5)   C (  6)
   H (  2)  2.513612
   C (  3)  1.517005  3.870546
   H (  4)  2.103371  4.183329  1.100509
   H (  5)  2.143708  4.072220  1.098724  1.752297
   C (  6)  2.593515  5.093791  1.529459  2.162984  2.159708
   H (  7)  3.513794  5.980492  2.159676  2.488346  2.461762  1.094422
   H (  8)  2.879364  5.221768  2.175694  3.078710  2.532905  1.093332
   H (  9)  2.874659  5.337709  2.176682  2.517059  3.075048  1.091661
   Se( 10)  1.924632  1.470677  2.846549  3.138065  2.801122  4.252772
   H ( 11)  3.648103  4.277771  3.977483  5.009383  3.562630  4.329935
   Se( 12)  1.787004  3.029581  2.938597  3.451972  3.768584  3.286055
   H ( 13)  3.547142  3.894529  3.919817  4.868876  3.390191  4.531497
             H (  7)   H (  8)   H (  9)   Se( 10)   H ( 11)   Se( 12)
   H (  8)  1.774665
   H (  9)  1.776366  1.765041
   Se( 10)  4.976085  4.485282  4.720996
   H ( 11)  4.970524  3.634489  5.087393  3.798275
   Se( 12)  4.361671  3.349356  3.034086  3.270477  4.329945
   H ( 13)  5.145672  3.993896  5.330507  3.322493  0.782983  4.456473

 
 Applying Cartesian multipole field
    Component          Value
    ---------          -----
     (2,0,0)        1.00000E-11
     (0,2,0)        2.00000E-11
     (0,0,2)       -3.00000E-11
 Nucleus-field energy     =    -0.0000000082 hartrees
 Requested basis set is 6-31G(d,p)
 There are 52 shells and 155 basis functions
 A cutoff of  1.0D-14 yielded   1212 shell pairs
 There are     10917 function pairs
 Smallest overlap matrix eigenvalue = 6.75E-04
 Guess from superposition of atomic densities
 Warning:  Energy on first SCF cycle will be non-variational
 SAD guess density has 93.936381 electrons

 -----------------------------------------------------------------------
  General SCF calculation program by
  Eric Jon Sundstrom, Paul Horn, Yuezhi Mao, Dmitri Zuev, Alec White,
  David Stuck, Shaama M.S., Shane Yost, Joonho Lee, David Small,
  Daniel Levine, Susi Lehtola, Hugh Burton, Evgeny Epifanovsky
 -----------------------------------------------------------------------
 Exchange:     0.2000 Hartree-Fock + 0.0800 Slater + 0.7200 B88
 Correlation:  0.1900 VWN1RPA + 0.8100 LYP
 Using SG-1 standard quadrature grid
 using 12 threads for integral computing
 -------------------------------------------------------
 OpenMP Integral computing Module                
 Release: version 1.0, May 2013, Q-Chem Inc. Pittsburgh 
 -------------------------------------------------------
 -------------------------------------------------------
 OpenMP BLAS3 based DFT computing Module                
 Release: version 1.0, May 2013, Q-Chem Inc. Pittsburgh 
 -------------------------------------------------------
 A unrestricted SCF calculation will be
 performed using DIIS
 SCF converges when DIIS error is below 1.0e-06
 Alpha HF Exchange    Energy = -18.85814433933026
 Beta HF Exchange     Energy = -18.85814433933026
 DFT Correlation      Energy =  -5.13288672282484
 DFT Exchange         Energy = -149.87658596169911
 One-Electron (alpha) Energy = -4012.39556150351063
 One-Electron (beta)  Energy = -4012.39556150351063
 Total Coulomb        Energy = 2694.85320663026005
 ---------------------------------------
  Cycle       Energy         DIIS error
 ---------------------------------------
    1   -4927.8295983815      1.51e-01  
 Alpha HF Exchange    Energy = -18.96356719511057
 Beta HF Exchange     Energy = -18.96356719511056
 DFT Correlation      Energy =  -5.18521126763087
 DFT Exchange         Energy = -150.99632348770032
 One-Electron (alpha) Energy = -4022.19840322795562
 One-Electron (beta)  Energy = -4022.19840322795608
 Total Coulomb        Energy = 2722.11616795478858
    2   -4921.5552282882      9.32e-03  
 Alpha HF Exchange    Energy = -18.83987825325706
 Beta HF Exchange     Energy = -18.83987825325705
 DFT Correlation      Energy =  -5.15074411191001
 DFT Exchange         Energy = -150.01331704273292
 One-Electron (alpha) Energy = -4008.98188924893338
 One-Electron (beta)  Energy = -4008.98188924893384
 Total Coulomb        Energy = 2694.45079989726037
    3   -4921.5227169033      4.03e-03  
 Alpha HF Exchange    Energy = -18.93698351858653
 Beta HF Exchange     Energy = -18.93698351858652
 DFT Correlation      Energy =  -5.17322564997998
 DFT Exchange         Energy = -150.75419627085407
 One-Electron (alpha) Energy = -4018.59493032344153
 One-Electron (beta)  Energy = -4018.59493032343789
 Total Coulomb        Energy = 2714.64304235239570
    4   -4921.5141278940      3.83e-03  
 Alpha HF Exchange    Energy = -18.91167180554235
 Beta HF Exchange     Energy = -18.91167180554238
 DFT Correlation      Energy =  -5.17154586009280
 DFT Exchange         Energy = -150.58391754395288
 One-Electron (alpha) Energy = -4016.76192449117298
 One-Electron (beta)  Energy = -4016.76192449117571
 Total Coulomb        Energy = 2710.61422568924854
    5   -4921.6543509498      1.60e-03  
 Alpha HF Exchange    Energy = -18.90012424905166
 Beta HF Exchange     Energy = -18.90012424905166
 DFT Correlation      Energy =  -5.16638977134312
 DFT Exchange         Energy = -150.48214062918603
 One-Electron (alpha) Energy = -4015.55477355410949
 One-Electron (beta)  Energy = -4015.55477355411040
 Total Coulomb        Energy = 2708.03663763857139
    6   -4921.6876090098      2.26e-04  
 Alpha HF Exchange    Energy = -18.89886632913392
 Beta HF Exchange     Energy = -18.89886632913391
 DFT Correlation      Energy =  -5.16641667825861
 DFT Exchange         Energy = -150.47427692498286
 One-Electron (alpha) Energy = -4015.30997738240376
 One-Electron (beta)  Energy = -4015.30997738240103
 Total Coulomb        Energy = 2707.53621279121489
    7   -4921.6880888767      1.21e-04  
 Alpha HF Exchange    Energy = -18.89926034844135
 Beta HF Exchange     Energy = -18.89926034844136
 DFT Correlation      Energy =  -5.16630560761707
 DFT Exchange         Energy = -150.47655532936199
 One-Electron (alpha) Energy = -4015.35415231148818
 One-Electron (beta)  Energy = -4015.35415231149000
 Total Coulomb        Energy = 2707.62737895199871
    8   -4921.6882279464      2.40e-05  
 Alpha HF Exchange    Energy = -18.89938329200900
 Beta HF Exchange     Energy = -18.89938329200897
 DFT Correlation      Energy =  -5.16635281343334
 DFT Exchange         Energy = -150.47751793074718
 One-Electron (alpha) Energy = -4015.38471144735922
 One-Electron (beta)  Energy = -4015.38471144735604
 Total Coulomb        Energy = 2707.68974263713790
    9   -4921.6882382273      8.39e-06  
 Alpha HF Exchange    Energy = -18.89937665283512
 Beta HF Exchange     Energy = -18.89937665283512
 DFT Correlation      Energy =  -5.16636513005636
 DFT Exchange         Energy = -150.47746478292044
 One-Electron (alpha) Energy = -4015.38191169463789
 One-Electron (beta)  Energy = -4015.38191169463698
 Total Coulomb        Energy = 2707.68408813194128
   10   -4921.6882391175      1.39e-06  
 Alpha HF Exchange    Energy = -18.89938060602146
 Beta HF Exchange     Energy = -18.89938060602146
 DFT Correlation      Energy =  -5.16636501257200
 DFT Exchange         Energy = -150.47749341094740
 One-Electron (alpha) Energy = -4015.38220957636577
 One-Electron (beta)  Energy = -4015.38220957636713
 Total Coulomb        Energy = 2707.68472028851193
   11   -4921.6882391413      3.36e-07  Convergence criterion met
 ---------------------------------------
 SCF time:   CPU 52.83s  wall 4.00s 
<S^2> =         -0.000000000
 Alpha HF Exchange    Energy = -18.89938060602146
 Beta HF Exchange     Energy = -18.89938060602146
 DFT Correlation      Energy =  -5.16636501257200
 DFT Exchange         Energy = -150.47749341094740
 One-Electron (alpha) Energy = -4015.38220957636577
 One-Electron (beta)  Energy = -4015.38220957636713
 Total Coulomb        Energy = 2707.68472028851193
 Nuclear repulsion Energy = 594.83407935844502
 SCF   energy in the final basis set =    -4921.6882391413
 Total energy in the final basis set =    -4921.6882391413
 
 --------------------------------------------------------------
 
                    Orbital Energies (a.u.)
 --------------------------------------------------------------
 
 Alpha MOs
 -- Occupied --
*******-453.880 -58.122 -58.075 -52.180 -52.178 -52.177 -52.132
-52.132 -52.129 -10.290 -10.219 -10.187  -7.856  -7.808  -5.801
 -5.796  -5.790  -5.753  -5.750  -5.741  -2.134  -2.134  -2.128
 -2.124  -2.123  -2.087  -2.086  -2.079  -2.076  -2.075  -0.830
 -0.752  -0.697  -0.652  -0.527  -0.470  -0.449  -0.422  -0.417
 -0.382  -0.370  -0.365  -0.338  -0.305  -0.241  -0.214
 -- Virtual --
 -0.085  -0.024   0.039   0.071   0.086   0.094   0.140   0.150
  0.162   0.178   0.179   0.193   0.221   0.236   0.271   0.276
  0.292   0.322   0.339   0.354   0.445   0.486   0.504   0.516
  0.527   0.558   0.574   0.580   0.606   0.618   0.646   0.656
  0.679   0.694   0.768   0.813   0.829   0.850   0.859   0.879
  0.903   0.919   0.951   0.975   0.979   1.035   1.057   1.062
  1.203   1.328   1.448   1.523   1.584   1.603   1.655   1.684
  1.712   1.761   1.780   1.837   1.880   1.901   2.032   2.042
  2.058   2.068   2.099   2.102   2.155   2.196   2.240   2.295
  2.312   2.379   2.430   2.565   2.574   2.582   2.601   2.664
  2.673   2.736   2.813   2.871   2.898   3.191   3.277   3.369
  3.449   3.517   3.983   4.059   4.244   4.256   4.259   4.269
  4.332   4.349   4.353   4.384   4.435   4.483   4.497   4.604
  5.432   5.472  89.713  89.727
 
 Beta MOs
 -- Occupied --
*******-453.880 -58.122 -58.075 -52.180 -52.178 -52.177 -52.132
-52.132 -52.129 -10.290 -10.219 -10.187  -7.856  -7.808  -5.801
 -5.796  -5.790  -5.753  -5.750  -5.741  -2.134  -2.134  -2.128
 -2.124  -2.123  -2.087  -2.086  -2.079  -2.076  -2.075  -0.830
 -0.752  -0.697  -0.652  -0.527  -0.470  -0.449  -0.422  -0.417
 -0.382  -0.370  -0.365  -0.338  -0.305  -0.241  -0.214
 -- Virtual --
 -0.085  -0.024   0.039   0.071   0.086   0.094   0.140   0.150
  0.162   0.178   0.179   0.193   0.221   0.236   0.271   0.276
  0.292   0.322   0.339   0.354   0.445   0.486   0.504   0.516
  0.527   0.558   0.574   0.580   0.606   0.618   0.646   0.656
  0.679   0.694   0.768   0.813   0.829   0.850   0.859   0.879
  0.903   0.919   0.951   0.975   0.979   1.035   1.057   1.062
  1.203   1.328   1.448   1.523   1.584   1.603   1.655   1.684
  1.712   1.761   1.780   1.837   1.880   1.901   2.032   2.042
  2.058   2.068   2.099   2.102   2.155   2.196   2.240   2.295
  2.312   2.379   2.430   2.565   2.574   2.582   2.601   2.664
  2.673   2.736   2.813   2.871   2.898   3.191   3.277   3.369
  3.449   3.517   3.983   4.059   4.244   4.256   4.259   4.269
  4.332   4.349   4.353   4.384   4.435   4.483   4.497   4.604
  5.432   5.472  89.713  89.727
 --------------------------------------------------------------
 
          Ground-State Mulliken Net Atomic Charges

     Atom                 Charge (a.u.)    Spin (a.u.)
  --------------------------------------------------------
      1 C                    -0.032413      -0.000000
      2 H                     0.091461       0.000000
      3 C                    -0.224870      -0.000000
      4 H                     0.151645       0.000000
      5 H                     0.129395       0.000000
      6 C                    -0.315315       0.000000
      7 H                     0.104821       0.000000
      8 H                     0.125816       0.000000
      9 H                     0.141222       0.000000
     10 Se                    0.019420      -0.000000
     11 H                    -0.006068      -0.000000
     12 Se                   -0.190731       0.000000
     13 H                     0.005615       0.000000
  --------------------------------------------------------
  Sum of atomic charges =    -0.000000
  Sum of spin   charges =    -0.000000

 -----------------------------------------------------------------
                    Cartesian Multipole Moments
 -----------------------------------------------------------------
    Charge (ESU x 10^10)
                -0.0000
    Dipole Moment (Debye)
         X      -1.3333      Y       0.8769      Z       1.1726
       Tot       1.9803
    Quadrupole Moments (Debye-Ang)
        XX     -59.8453     XY       0.3961     YY     -55.3809
        XZ       3.9109     YZ       2.7255     ZZ     -59.1371
    Octopole Moments (Debye-Ang^2)
       XXX     -63.5610    XXY     -56.6874    XYY     -17.0347
       YYY    -143.4298    XXZ      59.9185    XYZ      -1.3540
       YYZ      62.1895    XZZ     -26.6329    YZZ     -55.6670
       ZZZ     177.8277
    Hexadecapole Moments (Debye-Ang^3)
      XXXX    -807.3932   XXXY    -116.2715   XXYY    -238.1388
      XYYY    -109.2774   YYYY    -576.5091   XXXZ      48.1234
      XXYZ      37.1381   XYYZ      15.6640   YYYZ      79.9095
      XXZZ    -263.0023   XYZZ     -33.8308   YYZZ    -243.2051
      XZZZ      61.5088   YZZZ      87.8269   ZZZZ    -832.4699
 -----------------------------------------------------------------
 Calculating analytic gradient of the SCF energy
 Gradient of SCF Energy
            1           2           3           4           5           6
    1   0.0011201  -0.0004208   0.0007500   0.0002941   0.0006047  -0.0004764
    2   0.0006428  -0.0001735   0.0002407  -0.0002255  -0.0001954   0.0005423
    3   0.0008307  -0.0001135  -0.0006029  -0.0006591   0.0008373   0.0012174
            7           8           9          10          11          12
    1   0.0002015   0.0000294  -0.0001758  -0.0018351   0.0238412   0.0002804
    2   0.0000162   0.0000164  -0.0000676  -0.0013047  -0.0045703  -0.0001705
    3   0.0000727  -0.0000370  -0.0000912  -0.0000345   0.0057130  -0.0006776
           13
    1  -0.0242134
    2   0.0052491
    3  -0.0064555
 Max gradient component =       2.421E-02
 RMS gradient           =       5.752E-03
 Gradient time:  CPU 19.15 s  wall 1.62 s
 Geometry Optimization Parameters
   NAtoms,    NIC,     NZ,  NCons,   NDum,   NFix, NCnnct, MaxDiis
       13     122       0       1       0       0       0       0

 Cartesian Hessian Update
 Hessian Updated using BFGS Update


** CONSTRAINED OPTIMIZATION IN DELOCALIZED INTERNAL COORDINATES **
   Searching for a Minimum

   Optimization Cycle:   2

                       Coordinates (Angstroms)
     ATOM                X               Y               Z
      1  C         0.3137853731    1.0681282551   -1.0292013139
      2  H        -1.1965815746   -0.2736374762   -2.5247612509
      3  C         0.4055831698    2.0635102380    0.1118913417
      4  H         0.0923958488    3.0314613167   -0.3077578180
      5  H        -0.3491310580    1.8107938101    0.8693441085
      6  C         1.7708807448    2.2141585810    0.7845814833
      7  H         1.7077758675    2.9593800766    1.5835952486
      8  H         2.0996353183    1.2669942664    1.2206721633
      9  H         2.5306833201    2.5325430663    0.0683029521
     10  Se       -1.5103737437    0.5387113634   -1.3396388937
     11  H         0.0096209771   -1.7047243801    1.3218469242
     12  Se        1.6900043808    0.4894989264   -2.0113381554
     13  H        -0.7320686240   -1.5479110438    1.1259662103
   Point Group: c1    Number of degrees of freedom:    33


   Energy is  -4921.688239141

              Constraints and their Current Values
                                        Value     Constraint
   Distance(Angs):       10  11             3.798275     3.800000
 Hessian Updated using BFGS Update

   Using Lagrange Multiplier Algorithm


 33 Hessian modes will be used to form the next step
  Hessian Eigenvalues:
    -0.972700    0.034854    0.115995    0.125393    0.131285    0.140266
     0.162718    0.184562    0.194136    0.200692    0.211133    0.231224
     0.233764    0.234065    0.252388    0.298200    0.326689    0.373233
     0.414663    0.445840    0.445886    0.497012    0.507615    0.757137
     0.776589    0.821178    0.837536    0.937026    0.940026    0.955971
     0.959430    0.964731    1.103024

 Minimum Search - Taking P-RFO Step
 Searching for Lamda that Maximizes Along the Constraint modes Only
 Value Taken    Lamda =   0.00005107
 Searching for Lamda that Minimizes Along All other modes
 Value Taken    Lamda =  -0.00048467
 Step Taken.  Stepsize is  0.024907

                             Maximum     Tolerance    Cnvgd?
         Gradient            0.018153       0.000300      NO
         Displacement        0.018977       0.001200      NO
         Energy change      0.000867       0.000001      NO


 New Cartesian Coordinates Obtained by Inverse Iteration

 Displacement from previous Coordinates is:  0.024633
 ----------------------------------------------------------------
             Standard Nuclear Orientation (Angstroms)
    I     Atom           X                Y                Z
 ----------------------------------------------------------------
    1      C       0.3136476341     1.0690589560    -1.0288432244
    2      H      -1.1921246719    -0.2711992852    -2.5259768548
    3      C       0.4041203464     2.0636175812     0.1125803975
    4      H       0.0901158065     3.0319815854    -0.3055443176
    5      H      -0.3506351618     1.8105414214     0.8699191753
    6      C       1.7708236935     2.2133290816     0.7824527703
    7      H       1.7090133855     2.9577905519     1.5822228982
    8      H       2.1002256951     1.2656811797     1.2170391990
    9      H       2.5295820721     2.5323610796     0.0652748692
   10      Se     -1.5086356383     0.5402227102    -1.3411233509
   11      H       0.0042066121    -1.7055801678     1.3248994454
   12      Se      1.6909382660     0.4916604444    -2.0095418202
   13      H      -0.7290680393    -1.5505581383     1.1301438130
 ----------------------------------------------------------------
 Nuclear Repulsion Energy =   595.1172004870 hartrees
 There are       47 alpha and       47 beta electrons

                       Distance Matrix (Angstroms)
             C (  1)   H (  2)   C (  3)   H (  4)   H (  5)   C (  6)
   H (  2)  2.510986
   C (  3)  1.516634  3.867991
   H (  4)  2.103852  4.181563  1.100525
   H (  5)  2.143914  4.071100  1.098756  1.751540
   C (  6)  2.591044  5.088973  1.529386  2.163032  2.161128
   H (  7)  3.511697  5.976645  2.159199  2.487971  2.462866  1.094384
   H (  8)  2.876545  5.216487  2.175616  3.078737  2.534578  1.093347
   H (  9)  2.872057  5.331570  2.177050  2.517563  3.076382  1.091714
   Se( 10)  1.922993  1.470531  2.844753  3.136446  2.800604  4.250143
   H ( 11)  3.651641  4.279942  3.979510  5.011010  3.563149  4.332786
   Se( 12)  1.786642  3.026667  2.937746  3.452459  3.768125  3.281122
   H ( 13)  3.551179  3.901077  3.921966  4.871543  3.392332  4.531798
             H (  7)   H (  8)   H (  9)   Se( 10)   H ( 11)   Se( 12)
   H (  8)  1.774723
   H (  9)  1.776360  1.765046
   Se( 10)  4.974319  4.482674  4.717391
   H ( 11)  4.971882  3.637764  5.091593  3.800000
   Se( 12)  4.356937  3.343269  3.028638  3.269008  4.334908
   H ( 13)  5.145272  3.992951  5.331320  3.329602  0.774373  4.459228

 
 Applying Cartesian multipole field
    Component          Value
    ---------          -----
     (2,0,0)        1.00000E-11
     (0,2,0)        2.00000E-11
     (0,0,2)       -3.00000E-11
 Nucleus-field energy     =    -0.0000000082 hartrees
 Requested basis set is 6-31G(d,p)
 There are 52 shells and 155 basis functions
 A cutoff of  1.0D-14 yielded   1212 shell pairs
 There are     10902 function pairs
 Smallest overlap matrix eigenvalue = 6.75E-04
 Guess from superposition of atomic densities
 Warning:  Energy on first SCF cycle will be non-variational
 SAD guess density has 93.936381 electrons

 -----------------------------------------------------------------------
  General SCF calculation program by
  Eric Jon Sundstrom, Paul Horn, Yuezhi Mao, Dmitri Zuev, Alec White,
  David Stuck, Shaama M.S., Shane Yost, Joonho Lee, David Small,
  Daniel Levine, Susi Lehtola, Hugh Burton, Evgeny Epifanovsky
 -----------------------------------------------------------------------
 Exchange:     0.2000 Hartree-Fock + 0.0800 Slater + 0.7200 B88
 Correlation:  0.1900 VWN1RPA + 0.8100 LYP
 Using SG-1 standard quadrature grid
 using 12 threads for integral computing
 -------------------------------------------------------
 OpenMP Integral computing Module                
 Release: version 1.0, May 2013, Q-Chem Inc. Pittsburgh 
 -------------------------------------------------------
 -------------------------------------------------------
 OpenMP BLAS3 based DFT computing Module                
 Release: version 1.0, May 2013, Q-Chem Inc. Pittsburgh 
 -------------------------------------------------------
 A unrestricted SCF calculation will be
 performed using DIIS
 SCF converges when DIIS error is below 1.0e-06
 Alpha HF Exchange    Energy = -18.85862177306747
 Beta HF Exchange     Energy = -18.85862177306747
 DFT Correlation      Energy =  -5.13301333697173
 DFT Exchange         Energy = -149.87767613387962
 One-Electron (alpha) Energy = -4012.67417309881012
 One-Electron (beta)  Energy = -4012.67417309881012
 Total Coulomb        Energy = 2695.12642066261515
 ---------------------------------------
  Cycle       Energy         DIIS error
 ---------------------------------------
    1   -4927.8326580731      1.51e-01  
 Alpha HF Exchange    Energy = -18.96401725818054
 Beta HF Exchange     Energy = -18.96401725818053
 DFT Correlation      Energy =  -5.18539726930364
 DFT Exchange         Energy = -150.99959983673989
 One-Electron (alpha) Energy = -4022.48132540922279
 One-Electron (beta)  Energy = -4022.48132540922234
 Total Coulomb        Energy = 2722.40292408800769
    2   -4921.5555578740      9.32e-03  
 Alpha HF Exchange    Energy = -18.84021647061819
 Beta HF Exchange     Energy = -18.84021647061821
 DFT Correlation      Energy =  -5.15087620727733
 DFT Exchange         Energy = -150.01557730321406
 One-Electron (alpha) Energy = -4009.25976331512720
 One-Electron (beta)  Energy = -4009.25976331512857
 Total Coulomb        Energy = 2694.72552656147536
    3   -4921.5236860416      4.03e-03  
 Alpha HF Exchange    Energy = -18.93739695234173
 Beta HF Exchange     Energy = -18.93739695234170
 DFT Correlation      Energy =  -5.17344536334231
 DFT Exchange         Energy = -150.75745529903332
 One-Electron (alpha) Energy = -4018.88414970511667
 One-Electron (beta)  Energy = -4018.88414970511394
 Total Coulomb        Energy = 2714.94065065212317
    4   -4921.5161428463      3.82e-03  
 Alpha HF Exchange    Energy = -18.91199314945240
 Beta HF Exchange     Energy = -18.91199314945239
 DFT Correlation      Energy =  -5.17168024916195
 DFT Exchange         Energy = -150.58605741750040
 One-Electron (alpha) Energy = -4017.03679592899834
 One-Electron (beta)  Energy = -4017.03679592899744
 Total Coulomb        Energy = 2710.88306778791184
    5   -4921.6550475568      1.59e-03  
 Alpha HF Exchange    Energy = -18.90052170239602
 Beta HF Exchange     Energy = -18.90052170239600
 DFT Correlation      Energy =  -5.16655517073237
 DFT Exchange         Energy = -150.48494692291368
 One-Electron (alpha) Energy = -4015.83593631048416
 One-Electron (beta)  Energy = -4015.83593631048143
 Total Coulomb        Energy = 2708.31921297459712
    6   -4921.6880046659      2.27e-04  
 Alpha HF Exchange    Energy = -18.89926593294132
 Beta HF Exchange     Energy = -18.89926593294128
 DFT Correlation      Energy =  -5.16658585574282
 DFT Exchange         Energy = -150.47710943078715
 One-Electron (alpha) Energy = -4015.59291644064342
 One-Electron (beta)  Energy = -4015.59291644063978
 Total Coulomb        Energy = 2707.82236802578109
    7   -4921.6884915291      1.20e-04  
 Alpha HF Exchange    Energy = -18.89965111470406
 Beta HF Exchange     Energy = -18.89965111470405
 DFT Correlation      Energy =  -5.16647235811103
 DFT Exchange         Energy = -150.47931729216413
 One-Electron (alpha) Energy = -4015.63532854703953
 One-Electron (beta)  Energy = -4015.63532854703863
 Total Coulomb        Energy = 2707.90991817137228
    8   -4921.6886303235      2.40e-05  
 Alpha HF Exchange    Energy = -18.89977581692410
 Beta HF Exchange     Energy = -18.89977581692410
 DFT Correlation      Energy =  -5.16651964113281
 DFT Exchange         Energy = -150.48029374054764
 One-Electron (alpha) Energy = -4015.66612570563257
 One-Electron (beta)  Energy = -4015.66612570563348
 Total Coulomb        Energy = 2707.97277541401354
    9   -4921.6886405339      8.38e-06  
 Alpha HF Exchange    Energy = -18.89976928987592
 Beta HF Exchange     Energy = -18.89976928987592
 DFT Correlation      Energy =  -5.16653204589528
 DFT Exchange         Energy = -150.48024149507151
 One-Electron (alpha) Energy = -4015.66334996744536
 One-Electron (beta)  Energy = -4015.66334996744536
 Total Coulomb        Energy = 2707.96717015932472
   10   -4921.6886414174      1.38e-06  
 Alpha HF Exchange    Energy = -18.89977320870477
 Beta HF Exchange     Energy = -18.89977320870478
 DFT Correlation      Energy =  -5.16653192812699
 DFT Exchange         Energy = -150.48026982200426
 One-Electron (alpha) Energy = -4015.66363347754077
 One-Electron (beta)  Energy = -4015.66363347754304
 Total Coulomb        Energy = 2707.96777320280671
   11   -4921.6886414410      3.34e-07  Convergence criterion met
 ---------------------------------------
 SCF time:   CPU 52.38s  wall 5.00s 
<S^2> =          0.000000000
 Alpha HF Exchange    Energy = -18.89977320870477
 Beta HF Exchange     Energy = -18.89977320870478
 DFT Correlation      Energy =  -5.16653192812699
 DFT Exchange         Energy = -150.48026982200426
 One-Electron (alpha) Energy = -4015.66363347754077
 One-Electron (beta)  Energy = -4015.66363347754304
 Total Coulomb        Energy = 2707.96777320280671
 Nuclear repulsion Energy = 595.11720047886024
 SCF   energy in the final basis set =    -4921.6886414410
 Total energy in the final basis set =    -4921.6886414410
 
 --------------------------------------------------------------
 
                    Orbital Energies (a.u.)
 --------------------------------------------------------------
 
 Alpha MOs
 -- Occupied --
*******-453.880 -58.122 -58.075 -52.180 -52.178 -52.177 -52.132
-52.132 -52.129 -10.290 -10.219 -10.186  -7.856  -7.808  -5.801
 -5.796  -5.790  -5.753  -5.750  -5.741  -2.134  -2.134  -2.128
 -2.124  -2.123  -2.087  -2.086  -2.079  -2.076  -2.074  -0.831
 -0.752  -0.697  -0.652  -0.527  -0.470  -0.449  -0.423  -0.417
 -0.382  -0.370  -0.365  -0.339  -0.305  -0.241  -0.214
 -- Virtual --
 -0.085  -0.024   0.040   0.071   0.088   0.094   0.140   0.150
  0.162   0.178   0.180   0.193   0.221   0.236   0.271   0.276
  0.292   0.322   0.339   0.354   0.445   0.486   0.504   0.516
  0.527   0.558   0.574   0.580   0.606   0.619   0.644   0.654
  0.679   0.694   0.769   0.813   0.829   0.850   0.859   0.879
  0.903   0.919   0.951   0.975   0.980   1.038   1.057   1.064
  1.203   1.328   1.449   1.523   1.584   1.603   1.655   1.682
  1.710   1.761   1.780   1.837   1.879   1.902   2.032   2.042
  2.058   2.068   2.099   2.103   2.155   2.197   2.240   2.295
  2.328   2.379   2.430   2.565   2.583   2.591   2.602   2.664
  2.673   2.736   2.813   2.871   2.898   3.192   3.277   3.369
  3.449   3.517   4.017   4.060   4.244   4.257   4.259   4.269
  4.332   4.349   4.353   4.384   4.435   4.483   4.497   4.605
  5.432   5.472  89.713  89.728
 
 Beta MOs
 -- Occupied --
*******-453.880 -58.122 -58.075 -52.180 -52.178 -52.177 -52.132
-52.132 -52.129 -10.290 -10.219 -10.186  -7.856  -7.808  -5.801
 -5.796  -5.790  -5.753  -5.750  -5.741  -2.134  -2.134  -2.128
 -2.124  -2.123  -2.087  -2.086  -2.079  -2.076  -2.074  -0.831
 -0.752  -0.697  -0.652  -0.527  -0.470  -0.449  -0.423  -0.417
 -0.382  -0.370  -0.365  -0.339  -0.305  -0.241  -0.214
 -- Virtual --
 -0.085  -0.024   0.040   0.071   0.088   0.094   0.140   0.150
  0.162   0.178   0.180   0.193   0.221   0.236   0.271   0.276
  0.292   0.322   0.339   0.354   0.445   0.486   0.504   0.516
  0.527   0.558   0.574   0.580   0.606   0.619   0.644   0.654
  0.679   0.694   0.769   0.813   0.829   0.850   0.859   0.879
  0.903   0.919   0.951   0.975   0.980   1.038   1.057   1.064
  1.203   1.328   1.449   1.523   1.584   1.603   1.655   1.682
  1.710   1.761   1.780   1.837   1.879   1.902   2.032   2.042
  2.058   2.068   2.099   2.103   2.155   2.197   2.240   2.295
  2.328   2.379   2.430   2.565   2.583   2.591   2.602   2.664
  2.673   2.736   2.813   2.871   2.898   3.192   3.277   3.369
  3.449   3.517   4.017   4.060   4.244   4.257   4.259   4.269
  4.332   4.349   4.353   4.384   4.435   4.483   4.497   4.605
  5.432   5.472  89.713  89.728
 --------------------------------------------------------------
 
          Ground-State Mulliken Net Atomic Charges

     Atom                 Charge (a.u.)    Spin (a.u.)
  --------------------------------------------------------
      1 C                    -0.032138       0.000000
      2 H                     0.091515      -0.000000
      3 C                    -0.225045      -0.000000
      4 H                     0.151619       0.000000
      5 H                     0.129412       0.000000
      6 C                    -0.315327       0.000000
      7 H                     0.104630       0.000000
      8 H                     0.125839      -0.000000
      9 H                     0.141333      -0.000000
     10 Se                    0.019641      -0.000000
     11 H                    -0.005949      -0.000000
     12 Se                   -0.191065       0.000000
     13 H                     0.005535       0.000000
  --------------------------------------------------------
  Sum of atomic charges =     0.000000
  Sum of spin   charges =    -0.000000

 -----------------------------------------------------------------
                    Cartesian Multipole Moments
 -----------------------------------------------------------------
    Charge (ESU x 10^10)
                 0.0000
    Dipole Moment (Debye)
         X      -1.3387      Y       0.8750      Z       1.1713
       Tot       1.9823
    Quadrupole Moments (Debye-Ang)
        XX     -59.8434     XY       0.3813     YY     -55.3748
        XZ       3.9072     YZ       2.7185     ZZ     -59.1271
    Octopole Moments (Debye-Ang^2)
       XXX     -63.6813    XXY     -56.7396    XYY     -17.1145
       YYY    -143.6926    XXZ      59.9215    XYZ      -1.3517
       YYZ      62.1933    XZZ     -26.6994    YZZ     -55.7557
       ZZZ     177.8338
    Hexadecapole Moments (Debye-Ang^3)
      XXXX    -806.9993   XXXY    -116.3692   XXYY    -238.1380
      XYYY    -109.4023   YYYY    -576.7654   XXXZ      48.1580
      XXYZ      37.2238   XYYZ      15.6468   YYYZ      80.3214
      XXZZ    -262.9105   XYZZ     -33.8762   YYZZ    -243.2003
      XZZZ      61.6140   YZZZ      88.2295   ZZZZ    -831.9260
 -----------------------------------------------------------------
 Calculating analytic gradient of the SCF energy
 Gradient of SCF Energy
            1           2           3           4           5           6
    1   0.0011527  -0.0003442   0.0004693   0.0002313   0.0004528  -0.0003593
    2   0.0004402  -0.0001116   0.0001400  -0.0002054  -0.0001059   0.0003683
    3   0.0007521  -0.0000186  -0.0005361  -0.0005759   0.0007579   0.0008848
            7           8           9          10          11          12
    1   0.0001284   0.0000327  -0.0000752  -0.0014210   0.0191956   0.0000942
    2  -0.0000004  -0.0000048  -0.0000534  -0.0011074  -0.0035981  -0.0000263
    3   0.0000062  -0.0000409  -0.0000870   0.0000484   0.0045261  -0.0004600
           13
    1  -0.0195574
    2   0.0042649
    3  -0.0052571
 Max gradient component =       1.956E-02
 RMS gradient           =       4.637E-03
 Gradient time:  CPU 19.21 s  wall 1.68 s
 Geometry Optimization Parameters
   NAtoms,    NIC,     NZ,  NCons,   NDum,   NFix, NCnnct, MaxDiis
       13     122       0       1       0       0       0       0

 Cartesian Hessian Update
 Hessian Updated using BFGS Update


** CONSTRAINED OPTIMIZATION IN DELOCALIZED INTERNAL COORDINATES **
   Searching for a Minimum

   Optimization Cycle:   3

                       Coordinates (Angstroms)
     ATOM                X               Y               Z
      1  C         0.3136476341    1.0690589560   -1.0288432244
      2  H        -1.1921246719   -0.2711992852   -2.5259768548
      3  C         0.4041203464    2.0636175812    0.1125803975
      4  H         0.0901158065    3.0319815854   -0.3055443176
      5  H        -0.3506351618    1.8105414214    0.8699191753
      6  C         1.7708236935    2.2133290816    0.7824527703
      7  H         1.7090133855    2.9577905519    1.5822228982
      8  H         2.1002256951    1.2656811797    1.2170391990
      9  H         2.5295820721    2.5323610796    0.0652748692
     10  Se       -1.5086356383    0.5402227102   -1.3411233509
     11  H         0.0042066121   -1.7055801678    1.3248994454
     12  Se        1.6909382660    0.4916604444   -2.0095418202
     13  H        -0.7290680393   -1.5505581383    1.1301438130
   Point Group: c1    Number of degrees of freedom:    33


   Energy is  -4921.688641441

              Constraints and their Current Values
                                        Value     Constraint
   Distance(Angs):       10  11             3.800000     3.800000
 Hessian Updated using BFGS Update

 32 Hessian modes will be used to form the next step
  Hessian Eigenvalues:
     0.034463    0.106135    0.125392    0.130742    0.140213    0.162719
     0.173872    0.185498    0.194282    0.209379    0.216192    0.231255
     0.233769    0.234252    0.271368    0.314487    0.332736    0.378000
     0.428553    0.445841    0.445846    0.446249    0.507627    0.509452
     0.757619    0.777320    0.821202    0.837637    0.937027    0.955982
     0.959432    0.964754

 Minimum Search - Taking Simple RFO Step
 Searching for Lamda that Minimizes Along All modes
 Value Taken    Lamda =  -0.00146721
 Step Taken.  Stepsize is  0.094606

                             Maximum     Tolerance    Cnvgd?
         Gradient           0.014669      0.000300      NO
         Displacement       0.072774      0.001200      NO
         Energy change     -0.000402      0.000001      NO


 New Cartesian Coordinates Obtained by Inverse Iteration

 Displacement from previous Coordinates is:  0.091224
 ----------------------------------------------------------------
             Standard Nuclear Orientation (Angstroms)
    I     Atom           X                Y                Z
 ----------------------------------------------------------------
    1      C       0.3130144613     1.0726494242    -1.0280468351
    2      H      -1.1751874039    -0.2642528891    -2.5290379954
    3      C       0.3992078745     2.0644223031     0.1151476657
    4      H       0.0820102317     3.0347345464    -0.2961769355
    5      H      -0.3557525576     1.8096312869     0.8716552073
    6      C       1.7709716919     2.2111567079     0.7749162813
    7      H       1.7144571092     2.9524141107     1.5779944857
    8      H       2.1032766365     1.2617360165     1.2034370534
    9      H       2.5251354621     2.5331557395     0.0541211720
   10      Se     -1.5013477176     0.5438004849    -1.3447585226
   11      H      -0.0194262087    -1.7082478437     1.3333353441
   12      Se      1.6942302490     0.4989242555    -2.0040293270
   13      H      -0.7183798283    -1.5612171429     1.1449454061
 ----------------------------------------------------------------
 Nuclear Repulsion Energy =   596.1445013961 hartrees
 There are       47 alpha and       47 beta electrons

                       Distance Matrix (Angstroms)
             C (  1)   H (  2)   C (  3)   H (  4)   H (  5)   C (  6)
   H (  2)  2.501005
   C (  3)  1.515895  3.859167
   H (  4)  2.106840  4.177264  1.100594
   H (  5)  2.144588  4.066594  1.098721  1.748241
   C (  6)  2.583121  5.071846  1.529236  2.162894  2.166457
   H (  7)  3.505568  5.963615  2.158317  2.486801  2.467921  1.094345
   H (  8)  2.867109  5.196955  2.175438  3.078617  2.541081  1.093369
   H (  9)  2.863153  5.309482  2.177844  2.518561  3.080806  1.091784
   Se( 10)  1.916220  1.470323  2.838262  3.132299  2.797714  4.240421
   H ( 11)  3.663336  4.282386  3.986512  5.016122  3.563950  4.345007
   Se( 12)  1.785906  3.015233  2.935776  3.456349  3.766954  3.264991
   H ( 13)  3.566921  3.922874  3.931253  4.882646  3.401295  4.534821
             H (  7)   H (  8)   H (  9)   Se( 10)   H ( 11)   Se( 12)
   H (  8)  1.774786
   H (  9)  1.776279  1.765050
   Se( 10)  4.968431  4.472365  4.703931
   H ( 11)  4.978753  3.652882  5.108883  3.800000
   Se( 12)  4.341764  3.322204  3.010728  3.263184  4.352727
   H ( 13)  5.145784  3.991770  5.336120  3.353023  0.738678  4.470001

 
 Applying Cartesian multipole field
    Component          Value
    ---------          -----
     (2,0,0)        1.00000E-11
     (0,2,0)        2.00000E-11
     (0,0,2)       -3.00000E-11
 Nucleus-field energy     =    -0.0000000081 hartrees
 Requested basis set is 6-31G(d,p)
 There are 52 shells and 155 basis functions
 A cutoff of  1.0D-14 yielded   1213 shell pairs
 There are     10920 function pairs
 Smallest overlap matrix eigenvalue = 6.75E-04
 Guess from superposition of atomic densities
 Warning:  Energy on first SCF cycle will be non-variational
 SAD guess density has 93.936381 electrons

 -----------------------------------------------------------------------
  General SCF calculation program by
  Eric Jon Sundstrom, Paul Horn, Yuezhi Mao, Dmitri Zuev, Alec White,
  David Stuck, Shaama M.S., Shane Yost, Joonho Lee, David Small,
  Daniel Levine, Susi Lehtola, Hugh Burton, Evgeny Epifanovsky
 -----------------------------------------------------------------------
 Exchange:     0.2000 Hartree-Fock + 0.0800 Slater + 0.7200 B88
 Correlation:  0.1900 VWN1RPA + 0.8100 LYP
 Using SG-1 standard quadrature grid
 using 12 threads for integral computing
 -------------------------------------------------------
 OpenMP Integral computing Module                
 Release: version 1.0, May 2013, Q-Chem Inc. Pittsburgh 
 -------------------------------------------------------
 -------------------------------------------------------
 OpenMP BLAS3 based DFT computing Module                
 Release: version 1.0, May 2013, Q-Chem Inc. Pittsburgh 
 -------------------------------------------------------
 A unrestricted SCF calculation will be
 performed using DIIS
 SCF converges when DIIS error is below 1.0e-06
 Alpha HF Exchange    Energy = -18.86040989072931
 Beta HF Exchange     Energy = -18.86040989072931
 DFT Correlation      Energy =  -5.13348328313330
 DFT Exchange         Energy = -149.88182184628556
 One-Electron (alpha) Energy = -4013.68229620734837
 One-Electron (beta)  Energy = -4013.68229620734837
 Total Coulomb        Energy = 2696.11418434891038
 ---------------------------------------
  Cycle       Energy         DIIS error
 ---------------------------------------
    1   -4927.8420315887      1.51e-01  
 Alpha HF Exchange    Energy = -18.96583183913681
 Beta HF Exchange     Energy = -18.96583183913681
 DFT Correlation      Energy =  -5.18610836372985
 DFT Exchange         Energy = -151.01283200077631
 One-Electron (alpha) Energy = -4023.50418208599012
 One-Electron (beta)  Energy = -4023.50418208598876
 Total Coulomb        Energy = 2723.43863736337471
    2   -4921.5558294634      9.32e-03  
 Alpha HF Exchange    Energy = -18.84160685214118
 Beta HF Exchange     Energy = -18.84160685214120
 DFT Correlation      Energy =  -5.15139915888441
 DFT Exchange         Energy = -150.02503468139767
 One-Electron (alpha) Energy = -4010.26626311557175
 One-Electron (beta)  Energy = -4010.26626311557538
 Total Coulomb        Energy = 2695.72193033486383
    3   -4921.5257420529      4.01e-03  
 Alpha HF Exchange    Energy = -18.93902628987870
 Beta HF Exchange     Energy = -18.93902628987870
 DFT Correlation      Energy =  -5.17425502937909
 DFT Exchange         Energy = -150.77014009696126
 One-Electron (alpha) Energy = -4019.92622214083849
 One-Electron (beta)  Energy = -4019.92622214083849
 Total Coulomb        Energy = 2716.00894812563592
    4   -4921.5214424742      3.77e-03  
 Alpha HF Exchange    Energy = -18.91334180172272
 Beta HF Exchange     Energy = -18.91334180172271
 DFT Correlation      Energy =  -5.17221117733373
 DFT Exchange         Energy = -150.59522232875844
 One-Electron (alpha) Energy = -4018.03481645297188
 One-Electron (beta)  Energy = -4018.03481645297234
 Total Coulomb        Energy = 2711.86250531243968
    5   -4921.6567433151      1.57e-03  
 Alpha HF Exchange    Energy = -18.90210467431390
 Beta HF Exchange     Energy = -18.90210467431390
 DFT Correlation      Energy =  -5.16718519135539
 DFT Exchange         Energy = -150.49618452546224
 One-Electron (alpha) Energy = -4016.85252687685806
 One-Electron (beta)  Energy = -4016.85252687685897
 Total Coulomb        Energy = 2709.33949001645806
    6   -4921.6886414147      2.32e-04  
 Alpha HF Exchange    Energy = -18.90086030097084
 Beta HF Exchange     Energy = -18.90086030097083
 DFT Correlation      Energy =  -5.16723181313379
 DFT Exchange         Energy = -150.48848116342018
 One-Electron (alpha) Energy = -4016.61611471079323
 One-Electron (beta)  Energy = -4016.61611471079277
 Total Coulomb        Energy = 2708.85600332978402
    7   -4921.6891582823      1.20e-04  
 Alpha HF Exchange    Energy = -18.90121810855619
 Beta HF Exchange     Energy = -18.90121810855621
 DFT Correlation      Energy =  -5.16711030971214
 DFT Exchange         Energy = -150.49046682568490
 One-Electron (alpha) Energy = -4016.65279582655558
 One-Electron (beta)  Energy = -4016.65279582655648
 Total Coulomb        Energy = 2708.93180641895015
    8   -4921.6892971987      2.38e-05  
 Alpha HF Exchange    Energy = -18.90134896955684
 Beta HF Exchange     Energy = -18.90134896955684
 DFT Correlation      Energy =  -5.16715795646673
 DFT Exchange         Energy = -150.49149159141345
 One-Electron (alpha) Energy = -4016.68446503859241
 One-Electron (beta)  Energy = -4016.68446503859150
 Total Coulomb        Energy = 2708.99646895846581
    9   -4921.6893072177      8.35e-06  
 Alpha HF Exchange    Energy = -18.90134278093870
 Beta HF Exchange     Energy = -18.90134278093869
 DFT Correlation      Energy =  -5.16717069445951
 DFT Exchange         Energy = -150.49144216951942
 One-Electron (alpha) Energy = -4016.68175540061839
 One-Electron (beta)  Energy = -4016.68175540061748
 Total Coulomb        Energy = 2708.99099975688205
   10   -4921.6893080822      1.35e-06  
 Alpha HF Exchange    Energy = -18.90134657285188
 Beta HF Exchange     Energy = -18.90134657285189
 DFT Correlation      Energy =  -5.16717055802048
 DFT Exchange         Energy = -150.49146939040489
 One-Electron (alpha) Energy = -4016.68198783725711
 One-Electron (beta)  Energy = -4016.68198783725575
 Total Coulomb        Energy = 2708.99149927537474
   11   -4921.6893081053      3.30e-07  Convergence criterion met
 ---------------------------------------
 SCF time:   CPU 52.77s  wall 4.00s 
<S^2> =          0.000000000
 Alpha HF Exchange    Energy = -18.90134657285188
 Beta HF Exchange     Energy = -18.90134657285189
 DFT Correlation      Energy =  -5.16717055802048
 DFT Exchange         Energy = -150.49146939040489
 One-Electron (alpha) Energy = -4016.68198783725711
 One-Electron (beta)  Energy = -4016.68198783725575
 Total Coulomb        Energy = 2708.99149927537474
 Nuclear repulsion Energy = 596.14450138797054
 SCF   energy in the final basis set =    -4921.6893081053
 Total energy in the final basis set =    -4921.6893081053
 
 --------------------------------------------------------------
 
                    Orbital Energies (a.u.)
 --------------------------------------------------------------
 
 Alpha MOs
 -- Occupied --
*******-453.879 -58.122 -58.074 -52.180 -52.179 -52.177 -52.132
-52.131 -52.129 -10.289 -10.219 -10.186  -7.856  -7.808  -5.801
 -5.797  -5.790  -5.753  -5.749  -5.740  -2.135  -2.134  -2.128
 -2.124  -2.123  -2.087  -2.086  -2.079  -2.076  -2.074  -0.831
 -0.753  -0.697  -0.652  -0.527  -0.470  -0.449  -0.430  -0.418
 -0.381  -0.370  -0.364  -0.339  -0.305  -0.241  -0.214
 -- Virtual --
 -0.085  -0.023   0.041   0.072   0.094   0.096   0.141   0.150
  0.162   0.178   0.180   0.193   0.221   0.237   0.271   0.276
  0.292   0.322   0.339   0.355   0.445   0.485   0.504   0.515
  0.527   0.558   0.575   0.581   0.606   0.619   0.637   0.650
  0.680   0.694   0.771   0.813   0.831   0.849   0.859   0.880
  0.904   0.920   0.952   0.975   0.981   1.046   1.059   1.081
  1.203   1.330   1.449   1.525   1.585   1.603   1.654   1.678
  1.705   1.762   1.781   1.836   1.878   1.903   2.032   2.042
  2.058   2.068   2.100   2.103   2.156   2.200   2.240   2.295
  2.380   2.396   2.431   2.565   2.601   2.623   2.630   2.664
  2.675   2.738   2.814   2.870   2.898   3.192   3.276   3.370
  3.450   3.516   4.060   4.179   4.244   4.257   4.260   4.270
  4.332   4.350   4.354   4.385   4.437   4.483   4.497   4.605
  5.432   5.473  89.711  89.729
 
 Beta MOs
 -- Occupied --
*******-453.879 -58.122 -58.074 -52.180 -52.179 -52.177 -52.132
-52.131 -52.129 -10.289 -10.219 -10.186  -7.856  -7.808  -5.801
 -5.797  -5.790  -5.753  -5.749  -5.740  -2.135  -2.134  -2.128
 -2.124  -2.123  -2.087  -2.086  -2.079  -2.076  -2.074  -0.831
 -0.753  -0.697  -0.652  -0.527  -0.470  -0.449  -0.430  -0.418
 -0.381  -0.370  -0.364  -0.339  -0.305  -0.241  -0.214
 -- Virtual --
 -0.085  -0.023   0.041   0.072   0.094   0.096   0.141   0.150
  0.162   0.178   0.180   0.193   0.221   0.237   0.271   0.276
  0.292   0.322   0.339   0.355   0.445   0.485   0.504   0.515
  0.527   0.558   0.575   0.581   0.606   0.619   0.637   0.650
  0.680   0.694   0.771   0.813   0.831   0.849   0.859   0.880
  0.904   0.920   0.952   0.975   0.981   1.046   1.059   1.081
  1.203   1.330   1.449   1.525   1.585   1.603   1.654   1.678
  1.705   1.762   1.781   1.836   1.878   1.903   2.032   2.042
  2.058   2.068   2.100   2.103   2.156   2.200   2.240   2.295
  2.380   2.396   2.431   2.565   2.601   2.623   2.630   2.664
  2.675   2.738   2.814   2.870   2.898   3.192   3.276   3.370
  3.450   3.516   4.060   4.179   4.244   4.257   4.260   4.270
  4.332   4.350   4.354   4.385   4.437   4.483   4.497   4.605
  5.432   5.473  89.711  89.729
 --------------------------------------------------------------
 
          Ground-State Mulliken Net Atomic Charges

     Atom                 Charge (a.u.)    Spin (a.u.)
  --------------------------------------------------------
      1 C                    -0.031279       0.000000
      2 H                     0.091749       0.000000
      3 C                    -0.225689      -0.000000
      4 H                     0.151453       0.000000
      5 H                     0.129432      -0.000000
      6 C                    -0.315373      -0.000000
      7 H                     0.103957      -0.000000
      8 H                     0.125932       0.000000
      9 H                     0.141752      -0.000000
     10 Se                    0.020856       0.000000
     11 H                    -0.005485      -0.000000
     12 Se                   -0.192502       0.000000
     13 H                     0.005197       0.000000
  --------------------------------------------------------
  Sum of atomic charges =     0.000000
  Sum of spin   charges =     0.000000

 -----------------------------------------------------------------
                    Cartesian Multipole Moments
 -----------------------------------------------------------------
    Charge (ESU x 10^10)
                -0.0000
    Dipole Moment (Debye)
         X      -1.3632      Y       0.8669      Z       1.1688
       Tot       1.9940
    Quadrupole Moments (Debye-Ang)
        XX     -59.8350     XY       0.3290     YY     -55.3443
        XZ       3.9027     YZ       2.7004     ZZ     -59.0946
    Octopole Moments (Debye-Ang^2)
       XXX     -64.2070    XXY     -56.9126    XYY     -17.4353
       YYY    -144.5535    XXZ      59.9497    XYZ      -1.3218
       YYZ      62.2098    XZZ     -26.9722    YZZ     -56.0543
       ZZZ     177.8847
    Hexadecapole Moments (Debye-Ang^3)
      XXXX    -805.3486   XXXY    -116.9563   XXYY    -238.0598
      XYYY    -110.0619   YYYY    -577.5371   XXXZ      48.6261
      XXYZ      37.4881   XYYZ      15.7346   YYYZ      81.5380
      XXZZ    -262.5569   XYZZ     -34.1314   YYZZ    -243.1323
      XZZZ      62.2981   YZZZ      89.4121   ZZZZ    -829.9023
 -----------------------------------------------------------------
 Calculating analytic gradient of the SCF energy
 Gradient of SCF Energy
            1           2           3           4           5           6
    1   0.0007952  -0.0000325  -0.0005025   0.0000048  -0.0000603   0.0000990
    2  -0.0003624   0.0000630  -0.0002237  -0.0000801   0.0002613  -0.0001793
    3   0.0002957   0.0002319  -0.0001772  -0.0001679   0.0003658  -0.0003021
            7           8           9          10          11          12
    1  -0.0000525   0.0000269   0.0001834   0.0002874  -0.0030329  -0.0004179
    2  -0.0000340  -0.0000571  -0.0000148  -0.0003366   0.0010644   0.0003336
    3  -0.0001472  -0.0000468  -0.0000511   0.0005093  -0.0013530   0.0001871
           13
    1   0.0027017
    2  -0.0004343
    3   0.0006555
 Max gradient component =       3.033E-03
 RMS gradient           =       7.603E-04
 Gradient time:  CPU 19.18 s  wall 1.63 s
 Geometry Optimization Parameters
   NAtoms,    NIC,     NZ,  NCons,   NDum,   NFix, NCnnct, MaxDiis
       13     122       0       1       0       0       0       0

 Cartesian Hessian Update
 Hessian Updated using BFGS Update


** CONSTRAINED OPTIMIZATION IN DELOCALIZED INTERNAL COORDINATES **
   Searching for a Minimum

   Optimization Cycle:   4

                       Coordinates (Angstroms)
     ATOM                X               Y               Z
      1  C         0.3130144613    1.0726494242   -1.0280468351
      2  H        -1.1751874039   -0.2642528891   -2.5290379954
      3  C         0.3992078745    2.0644223031    0.1151476657
      4  H         0.0820102317    3.0347345464   -0.2961769355
      5  H        -0.3557525576    1.8096312869    0.8716552073
      6  C         1.7709716919    2.2111567079    0.7749162813
      7  H         1.7144571092    2.9524141107    1.5779944857
      8  H         2.1032766365    1.2617360165    1.2034370534
      9  H         2.5251354621    2.5331557395    0.0541211720
     10  Se       -1.5013477176    0.5438004849   -1.3447585226
     11  H        -0.0194262087   -1.7082478437    1.3333353441
     12  Se        1.6942302490    0.4989242555   -2.0040293270
     13  H        -0.7183798283   -1.5612171429    1.1449454061
   Point Group: c1    Number of degrees of freedom:    33


   Energy is  -4921.689308105

              Constraints and their Current Values
                                        Value     Constraint
   Distance(Angs):       10  11             3.800000     3.800000
 Hessian Updated using BFGS Update

 32 Hessian modes will be used to form the next step
  Hessian Eigenvalues:
     0.034545    0.107257    0.125392    0.130940    0.140196    0.162548
     0.181538    0.186957    0.194454    0.210549    0.221960    0.231251
     0.233768    0.234220    0.275084    0.316119    0.337351    0.378680
     0.427813    0.445841    0.445848    0.446196    0.507699    0.511910
     0.757844    0.777549    0.821208    0.837675    0.937028    0.955992
     0.959433    0.964769

 Minimum Search - Taking Simple RFO Step
 Searching for Lamda that Minimizes Along All modes
 Value Taken    Lamda =  -0.00002585
 Step Taken.  Stepsize is  0.010908

                             Maximum     Tolerance    Cnvgd?
         Gradient           0.002017      0.000300      NO
         Displacement       0.008311      0.001200      NO
         Energy change     -0.000667      0.000001      NO


 New Cartesian Coordinates Obtained by Inverse Iteration

[...]
   H (  8)  2.870727  5.199784  2.175805  3.078247  2.541617  1.093313
   H (  9)  2.866651  5.314751  2.176388  2.516567  3.079497  1.091606
   Se( 10)  1.915769  1.470904  2.839786  3.137143  2.794476  4.242160
   H ( 11)  3.669062  4.285006  3.989666  5.019376  3.563766  4.347361
   Se( 12)  1.787281  3.016000  2.937760  3.462034  3.765758  3.270462
   H ( 13)  3.572096  3.923745  3.934585  4.885704  3.400619  4.538245
             H (  7)   H (  8)   H (  9)   Se( 10)   H ( 11)   Se( 12)
   H (  8)  1.774541
   H (  9)  1.776281  1.765035
   Se( 10)  4.970213  4.473134  4.706458
   H ( 11)  4.978964  3.655525  5.112917  3.800000
   Se( 12)  4.347813  3.325032  3.018497  3.263498  4.355160
   H ( 13)  5.147077  3.996217  5.341127  3.351067  0.742284  4.472996

 
 Applying Cartesian multipole field
    Component          Value
    ---------          -----
     (2,0,0)        1.00000E-11
     (0,2,0)        2.00000E-11
     (0,0,2)       -3.00000E-11
 Nucleus-field energy     =    -0.0000000081 hartrees
 Requested basis set is 6-31G(d,p)
 There are 52 shells and 155 basis functions
 A cutoff of  1.0D-14 yielded   1213 shell pairs
 There are     10920 function pairs
 Smallest overlap matrix eigenvalue = 6.75E-04
 Guess from superposition of atomic densities
 Warning:  Energy on first SCF cycle will be non-variational
 SAD guess density has 93.936381 electrons

 -----------------------------------------------------------------------
  General SCF calculation program by
  Eric Jon Sundstrom, Paul Horn, Yuezhi Mao, Dmitri Zuev, Alec White,
  David Stuck, Shaama M.S., Shane Yost, Joonho Lee, David Small,
  Daniel Levine, Susi Lehtola, Hugh Burton, Evgeny Epifanovsky
 -----------------------------------------------------------------------
 Exchange:     0.2000 Hartree-Fock + 0.0800 Slater + 0.7200 B88
 Correlation:  0.1900 VWN1RPA + 0.8100 LYP
 Using SG-1 standard quadrature grid
 using 12 threads for integral computing
 -------------------------------------------------------
 OpenMP Integral computing Module                
 Release: version 1.0, May 2013, Q-Chem Inc. Pittsburgh 
 -------------------------------------------------------
 -------------------------------------------------------
 OpenMP BLAS3 based DFT computing Module                
 Release: version 1.0, May 2013, Q-Chem Inc. Pittsburgh 
 -------------------------------------------------------
 A unrestricted SCF calculation will be
 performed using DIIS
 SCF converges when DIIS error is below 1.0e-06
 Alpha HF Exchange    Energy = -18.86003726992330
 Beta HF Exchange     Energy = -18.86003726992330
 DFT Correlation      Energy =  -5.13337213180620
 DFT Exchange         Energy = -149.88102432869277
 One-Electron (alpha) Energy = -4013.44328641952552
 One-Electron (beta)  Energy = -4013.44328641952552
 Total Coulomb        Energy = 2695.87951047164461
 ---------------------------------------
  Cycle       Energy         DIIS error
 ---------------------------------------
    1   -4927.8390619221      1.51e-01  
 Alpha HF Exchange    Energy = -18.96555155688325
 Beta HF Exchange     Energy = -18.96555155688325
 DFT Correlation      Energy =  -5.18596193515994
 DFT Exchange         Energy = -151.01077359410613
 One-Electron (alpha) Energy = -4023.25977463630079
 One-Electron (beta)  Energy = -4023.25977463629943
 Total Coulomb        Energy = 2723.18917522768834
    2   -4921.5557412423      9.32e-03  
 Alpha HF Exchange    Energy = -18.84143284782762
 Beta HF Exchange     Energy = -18.84143284782761
 DFT Correlation      Energy =  -5.15130924418424
 DFT Exchange         Energy = -150.02395572707667
 One-Electron (alpha) Energy = -4010.02851043995133
 One-Electron (beta)  Energy = -4010.02851043995042
 Total Coulomb        Energy = 2695.48847179696577
    3   -4921.5242083042      4.02e-03  
 Alpha HF Exchange    Energy = -18.93872639450178
 Beta HF Exchange     Energy = -18.93872639450180
 DFT Correlation      Energy =  -5.17404948832861
 DFT Exchange         Energy = -150.76758090040741
 One-Electron (alpha) Energy = -4019.67057309149641
 One-Electron (beta)  Energy = -4019.67057309149868
 Total Coulomb        Energy = 2715.73935025252058
    4   -4921.5184076625      3.80e-03  
 Alpha HF Exchange    Energy = -18.91321440741279
 Beta HF Exchange     Energy = -18.91321440741280
 DFT Correlation      Energy =  -5.17212674607610
 DFT Exchange         Energy = -150.59451940583392
 One-Electron (alpha) Energy = -4017.80471749397930
 One-Electron (beta)  Energy = -4017.80471749398021
 Total Coulomb        Energy = 2711.64362564672592
    5   -4921.6564128623      1.57e-03  
 Alpha HF Exchange    Energy = -18.90184429733193
 Beta HF Exchange     Energy = -18.90184429733195
 DFT Correlation      Energy =  -5.16704947242849
 DFT Exchange         Energy = -150.49434181890598
 One-Electron (alpha) Energy = -4016.60990486624087
 One-Electron (beta)  Energy = -4016.60990486624314
 Total Coulomb        Energy = 2709.09376215188786
    6   -4921.6886560209      2.32e-04  
 Alpha HF Exchange    Energy = -18.90059864969344
 Beta HF Exchange     Energy = -18.90059864969343
 DFT Correlation      Energy =  -5.16709583726654
 DFT Exchange         Energy = -150.48663903172624
 One-Electron (alpha) Energy = -4016.37176390782452
 One-Electron (beta)  Energy = -4016.37176390782270
 Total Coulomb        Energy = 2708.60681408856090
    7   -4921.6891744498      1.21e-04  
 Alpha HF Exchange    Energy = -18.90097300118417
 Beta HF Exchange     Energy = -18.90097300118412
 DFT Correlation      Energy =  -5.16697778394506
 DFT Exchange         Energy = -150.48875025069290
 One-Electron (alpha) Energy = -4016.41101953525413
 One-Electron (beta)  Energy = -4016.41101953524867
 Total Coulomb        Energy = 2708.68792609000320
    8   -4921.6893155718      2.39e-05  
 Alpha HF Exchange    Energy = -18.90110222353341
 Beta HF Exchange     Energy = -18.90110222353340
 DFT Correlation      Energy =  -5.16702555850785
 DFT Exchange         Energy = -150.48976193163099
 One-Electron (alpha) Energy = -4016.44256222825970
 One-Electron (beta)  Energy = -4016.44256222825697
 Total Coulomb        Energy = 2708.75231917356678
    9   -4921.6893257745      8.38e-06  
 Alpha HF Exchange    Energy = -18.90109577623071
 Beta HF Exchange     Energy = -18.90109577623072
 DFT Correlation      Energy =  -5.16703823427289
 DFT Exchange         Energy = -150.48971058983764
 One-Electron (alpha) Energy = -4016.43979089889308
 One-Electron (beta)  Energy = -4016.43979089889399
 Total Coulomb        Energy = 2708.74672407737216
   10   -4921.6893266513      1.38e-06  
 Alpha HF Exchange    Energy = -18.90109962210901
 Beta HF Exchange     Energy = -18.90109962210902
 DFT Correlation      Energy =  -5.16703808116431
 DFT Exchange         Energy = -150.48973826134656
 One-Electron (alpha) Energy = -4016.44004175895543
 One-Electron (beta)  Energy = -4016.44004175895680
 Total Coulomb        Energy = 2708.74726098358042
   11   -4921.6893266754      3.36e-07  Convergence criterion met
 ---------------------------------------
 SCF time:   CPU 53.83s  wall 4.00s 
<S^2> =         -0.000000000
 Alpha HF Exchange    Energy = -18.90109962210901
 Beta HF Exchange     Energy = -18.90109962210902
 DFT Correlation      Energy =  -5.16703808116431
 DFT Exchange         Energy = -150.48973826134656
 One-Electron (alpha) Energy = -4016.44004175895543
 One-Electron (beta)  Energy = -4016.44004175895680
 Total Coulomb        Energy = 2708.74726098358042
 Nuclear repulsion Energy = 595.90247144568332
 SCF   energy in the final basis set =    -4921.6893266754
 Total energy in the final basis set =    -4921.6893266754
 
 --------------------------------------------------------------
 
                    Orbital Energies (a.u.)
 --------------------------------------------------------------
 
 Alpha MOs
 -- Occupied --
*******-453.879 -58.123 -58.074 -52.180 -52.179 -52.177 -52.132
-52.131 -52.128 -10.289 -10.219 -10.186  -7.856  -7.808  -5.802
 -5.797  -5.790  -5.753  -5.749  -5.740  -2.135  -2.134  -2.128
 -2.124  -2.124  -2.087  -2.086  -2.079  -2.076  -2.074  -0.831
 -0.753  -0.697  -0.652  -0.528  -0.470  -0.449  -0.430  -0.418
 -0.381  -0.370  -0.364  -0.339  -0.305  -0.241  -0.214
 -- Virtual --
 -0.085  -0.023   0.041   0.072   0.094   0.096   0.141   0.150
  0.162   0.178   0.180   0.193   0.221   0.237   0.271   0.276
  0.292   0.322   0.339   0.355   0.445   0.485   0.504   0.516
  0.527   0.558   0.574   0.580   0.607   0.619   0.638   0.650
  0.679   0.694   0.771   0.813   0.830   0.850   0.859   0.880
  0.904   0.919   0.952   0.975   0.981   1.046   1.059   1.079
  1.203   1.329   1.449   1.525   1.585   1.602   1.654   1.678
  1.705   1.760   1.783   1.837   1.876   1.903   2.032   2.042
  2.058   2.068   2.100   2.104   2.157   2.199   2.240   2.295
  2.379   2.389   2.431   2.565   2.601   2.619   2.626   2.663
  2.675   2.737   2.814   2.870   2.898   3.192   3.277   3.370
  3.449   3.517   4.059   4.161   4.243   4.257   4.260   4.269
  4.331   4.350   4.354   4.385   4.436   4.483   4.497   4.605
  5.431   5.473  89.711  89.729
 
 Beta MOs
 -- Occupied --
*******-453.879 -58.123 -58.074 -52.180 -52.179 -52.177 -52.132
-52.131 -52.128 -10.289 -10.219 -10.186  -7.856  -7.808  -5.802
 -5.797  -5.790  -5.753  -5.749  -5.740  -2.135  -2.134  -2.128
 -2.124  -2.124  -2.087  -2.086  -2.079  -2.076  -2.074  -0.831
 -0.753  -0.697  -0.652  -0.528  -0.470  -0.449  -0.430  -0.418
 -0.381  -0.370  -0.364  -0.339  -0.305  -0.241  -0.214
 -- Virtual --
 -0.085  -0.023   0.041   0.072   0.094   0.096   0.141   0.150
  0.162   0.178   0.180   0.193   0.221   0.237   0.271   0.276
  0.292   0.322   0.339   0.355   0.445   0.485   0.504   0.516
  0.527   0.558   0.574   0.580   0.607   0.619   0.638   0.650
  0.679   0.694   0.771   0.813   0.830   0.850   0.859   0.880
  0.904   0.919   0.952   0.975   0.981   1.046   1.059   1.079
  1.203   1.329   1.449   1.525   1.585   1.602   1.654   1.678
  1.705   1.760   1.783   1.837   1.876   1.903   2.032   2.042
  2.058   2.068   2.100   2.104   2.157   2.199   2.240   2.295
  2.379   2.389   2.431   2.565   2.601   2.619   2.626   2.663
  2.675   2.737   2.814   2.870   2.898   3.192   3.277   3.370
  3.449   3.517   4.059   4.161   4.243   4.257   4.260   4.269
  4.331   4.350   4.354   4.385   4.436   4.483   4.497   4.605
  5.431   5.473  89.711  89.729
 --------------------------------------------------------------
 
          Ground-State Mulliken Net Atomic Charges

     Atom                 Charge (a.u.)    Spin (a.u.)
  --------------------------------------------------------
      1 C                    -0.031808      -0.000000
      2 H                     0.091828       0.000000
      3 C                    -0.225512       0.000000
      4 H                     0.151245       0.000000
      5 H                     0.129345       0.000000
      6 C                    -0.315233      -0.000000
      7 H                     0.104126       0.000000
      8 H                     0.125989       0.000000
      9 H                     0.141648      -0.000000
     10 Se                    0.021413      -0.000000
     11 H                    -0.005445       0.000000
     12 Se                   -0.192758       0.000000
     13 H                     0.005161      -0.000000
  --------------------------------------------------------
  Sum of atomic charges =     0.000000
  Sum of spin   charges =     0.000000

 -----------------------------------------------------------------
                    Cartesian Multipole Moments
 -----------------------------------------------------------------
    Charge (ESU x 10^10)
                -0.0000
    Dipole Moment (Debye)
         X      -1.3704      Y       0.8654      Z       1.1746
       Tot       2.0016
    Quadrupole Moments (Debye-Ang)
        XX     -59.8367     XY       0.3374     YY     -55.3434
        XZ       3.9312     YZ       2.7162     ZZ     -59.1161
    Octopole Moments (Debye-Ang^2)
       XXX     -64.2611    XXY     -56.8869    XYY     -17.4135
       YYY    -144.2944    XXZ      60.0431    XYZ      -1.2869
       YYZ      62.2844    XZZ     -27.0076    YZZ     -55.9996
       ZZZ     178.0808
    Hexadecapole Moments (Debye-Ang^3)
      XXXX    -805.4471   XXXY    -117.0440   XXYY    -238.0453
      XYYY    -110.0752   YYYY    -577.4838   XXXZ      48.9841
      XXYZ      37.5349   XYYZ      15.9248   YYYZ      81.2961
      XXZZ    -262.8453   XYZZ     -34.1977   YYZZ    -243.3720
      XZZZ      62.7292   YZZZ      89.1993   ZZZZ    -831.3799
 -----------------------------------------------------------------
 Calculating analytic gradient of the SCF energy
 Gradient of SCF Energy
            1           2           3           4           5           6
    1  -0.0003178  -0.0000568   0.0000591   0.0000350   0.0000480   0.0000536
    2  -0.0000857  -0.0000746  -0.0001426   0.0000217   0.0001957   0.0001054
    3  -0.0000068  -0.0000003   0.0000268   0.0000194   0.0000558   0.0000281
            7           8           9          10          11          12
    1   0.0001140   0.0000188  -0.0000481   0.0003404  -0.0005490   0.0000885
    2   0.0000008  -0.0000005  -0.0000398  -0.0004500   0.0005430  -0.0001590
    3   0.0000195  -0.0000182  -0.0000425   0.0007329  -0.0006850  -0.0001175
           13
    1   0.0002143
    2   0.0000855
    3  -0.0000125
 Max gradient component =       7.329E-04
 RMS gradient           =       2.398E-04
 Gradient time:  CPU 19.30 s  wall 1.72 s
 Geometry Optimization Parameters
   NAtoms,    NIC,     NZ,  NCons,   NDum,   NFix, NCnnct, MaxDiis
       13     122       0       1       0       0       0       0

 Cartesian Hessian Update
 Hessian Updated using BFGS Update


** CONSTRAINED OPTIMIZATION IN DELOCALIZED INTERNAL COORDINATES **
   Searching for a Minimum

   Optimization Cycle:   8

                       Coordinates (Angstroms)
     ATOM                X               Y               Z
      1  C         0.3122529471    1.0745633193   -1.0315984209
      2  H        -1.1769856851   -0.2658473195   -2.5297090946
      3  C         0.4009496774    2.0653365069    0.1137572433
      4  H         0.0833138787    3.0372048332   -0.2935882356
      5  H        -0.3547505116    1.8075781185    0.8680240284
      6  C         1.7714318274    2.2123572547    0.7762010541
      7  H         1.7142011968    2.9515015102    1.5813795573
      8  H         2.1050855400    1.2625053082    1.2025684740
      9  H         2.5247902305    2.5371875853    0.0561041670
     10  Se       -1.5012163794    0.5415963540   -1.3437633988
     11  H        -0.0192069549   -1.7094774755    1.3351010008
     12  Se        1.6939129890    0.4961735625   -2.0067161243
     13  H        -0.7215687559   -1.5617725576    1.1457427492
   Point Group: c1    Number of degrees of freedom:    33


   Energy is  -4921.689326675

              Constraints and their Current Values
                                        Value     Constraint
   Distance(Angs):       10  11             3.800000     3.800000
 Hessian Updated using BFGS Update

 32 Hessian modes will be used to form the next step
  Hessian Eigenvalues:
     0.010677    0.035733    0.125268    0.130164    0.138880    0.149903
     0.176594    0.185084    0.191582    0.202484    0.211749    0.230629
     0.232736    0.233824    0.274614    0.300975    0.316133    0.364930
     0.386487    0.439980    0.445840    0.446027    0.500585    0.504657
     0.686282    0.767392    0.819200    0.833196    0.937018    0.954648
     0.959360    0.963189

 Minimum Search - Taking Simple RFO Step
 Searching for Lamda that Minimizes Along All modes
 Value Taken    Lamda =  -0.00000251
 Step Taken.  Stepsize is  0.012946

                             Maximum     Tolerance    Cnvgd?
         Gradient           0.000226      0.000300     YES
         Displacement       0.005926      0.001200      NO
         Energy change     -0.000001      0.000001     YES


                       Distance Matrix (Angstroms)
             C (  1)   H (  2)   C (  3)   H (  4)   H (  5)   C (  6)
   H (  2)  2.501773
   C (  3)  1.517016  3.861633
   H (  4)  2.109273  4.183150  1.100614
   H (  5)  2.142608  4.064450  1.098381  1.747348
   C (  6)  2.586874  5.075796  1.529270  2.162074  2.166317
   H (  7)  3.509417  5.967524  2.159591  2.486492  2.469412  1.094496
   H (  8)  2.870727  5.199784  2.175805  3.078247  2.541617  1.093313
   H (  9)  2.866651  5.314751  2.176388  2.516567  3.079497  1.091606
   Se( 10)  1.915769  1.470904  2.839786  3.137143  2.794476  4.242160
   H ( 11)  3.669062  4.285006  3.989666  5.019376  3.563766  4.347361
   Se( 12)  1.787281  3.016000  2.937760  3.462034  3.765758  3.270462
   H ( 13)  3.572096  3.923745  3.934585  4.885704  3.400619  4.538245
             H (  7)   H (  8)   H (  9)   Se( 10)   H ( 11)   Se( 12)
   H (  8)  1.774541
   H (  9)  1.776281  1.765035
   Se( 10)  4.970213  4.473134  4.706458
   H ( 11)  4.978964  3.655525  5.112917  3.800000
   Se( 12)  4.347813  3.325032  3.018497  3.263498  4.355160
   H ( 13)  5.147077  3.996217  5.341127  3.351067  0.742284  4.472996

 
 Final energy is   -4921.68932667538     


 ******************************
 **  OPTIMIZATION CONVERGED  **
 ******************************

                       Coordinates (Angstroms)
     ATOM                X               Y               Z
      1  C         0.3122529471    1.0745633193   -1.0315984209
      2  H        -1.1769856851   -0.2658473195   -2.5297090946
      3  C         0.4009496774    2.0653365069    0.1137572433
      4  H         0.0833138787    3.0372048332   -0.2935882356
      5  H        -0.3547505116    1.8075781185    0.8680240284
      6  C         1.7714318274    2.2123572547    0.7762010541
      7  H         1.7142011968    2.9515015102    1.5813795573
      8  H         2.1050855400    1.2625053082    1.2025684740
      9  H         2.5247902305    2.5371875853    0.0561041670
     10  Se       -1.5012163794    0.5415963540   -1.3437633988
     11  H        -0.0192069549   -1.7094774755    1.3351010008
     12  Se        1.6939129890    0.4961735625   -2.0067161243
     13  H        -0.7215687559   -1.5617725576    1.1457427492

Z-matrix Print:
$molecule
0 1
Se
C  1 1.787281
C  2 1.517016 1 125.315425
H  3 1.098381 2 108.964138 1 -146.395310 0
H  3 1.100614 2 106.284178 1 100.656693 0
C  3 1.529270 2 116.246621 1 -21.488554 0
H  6 1.091606 3 111.182167 2 59.603609 0
H  6 1.093313 3 111.032386 2 -60.372826 0
H  6 1.094496 3 109.678111 2 179.837792 0
Se 2 1.915769 1 123.562142 3 178.304424 0
H  10 1.470904 2 94.326214 1 -3.166730 0
H  10 3.351067 2 80.405941 1 98.009058 0
H  12 0.742284 10 122.313899 2 -17.937491 0
$end

PES scan, value:    3.8000 energy: -4921.6893266754
------- Summary of potential scan: ------ 
    3.8000     -4921.6893266754
----------------------------------------- 
Archival summary:
1\1\hpc0248\JobtypUnspecified\ProcedureUnspecified\6-31G**\e238\knomura\ThuMar1401:14:262019ThuMar1401:14:262019\0\\#,JobtypUnspecified,ProcedureUnspecified,6-31G**,\\0,1\Se\C,1,1.78728\C,2,1.51702,1,125.315\H,3,1.09838,2,108.964,1,-146.395,0\H,3,1.10061,2,106.284,1,100.657,0\C,3,1.52927,2,116.247,1,-21.4886,0\H,6,1.09161,3,111.182,2,59.6036,0\H,6,1.09331,3,111.032,2,-60.3728,0\H,6,1.0945,3,109.678,2,179.838,0\Se,2,1.91577,1,123.562,3,178.304,0\H,10,1.4709,2,94.3262,1,-3.16673,0\H,10,3.35107,2,80.4059,1,98.0091,0\H,12,0.742284,10,122.314,2,-17.9375,0\\\@

 Total job time:  55.15s(wall), 627.37s(cpu) 
 Thu Mar 14 01:14:26 2019

        *************************************************************
        *                                                           *
        *  Thank you very much for using Q-Chem.  Have a nice day.  *
        *                                                           *
        *************************************************************


