
Running Job 1 of 1 selenium/02/Se-H.xyz.data/inputs/bond_triplet_3.9.in
qchem selenium/02/Se-H.xyz.data/inputs/bond_triplet_3.9.in_5243.0 /staging/scratch/2868765/qchem5243/ 1
/usr/usc/qchem/5.1.1/exe/qcprog.exe_s selenium/02/Se-H.xyz.data/inputs/bond_triplet_3.9.in_5243.0 /staging/scratch/2868765/qchem5243/
Check license passed

                  Welcome to Q-Chem
     A Quantum Leap Into The Future Of Chemistry


 Q-Chem 5.1, Q-Chem, Inc., Pleasanton, CA (2018)

 Yihan Shao,  Zhengting Gan,  E. Epifanovsky,  A. T. B. Gilbert,  M. Wormit,  
 J. Kussmann,  A. W. Lange,  A. Behn,  Jia Deng,  Xintian Feng,  D. Ghosh,  
 M. Goldey,  P. R. Horn,  L. D. Jacobson,  I. Kaliman,  T. Kus,  A. Landau,  
 Jie Liu,  E. I. Proynov,  R. M. Richard,  R. P. Steele,  E. J. Sundstrom,  
 H. L. Woodcock III,  P. M. Zimmerman,  D. Zuev,  B. Albrecht,  E. Alguire,  
 S. A. Baeppler,  D. Barton,  Z. Benda,  Y. A. Bernard,  E. J. Berquist,  
 K. B. Bravaya,  H. Burton,  D. Casanova,  Chun-Min Chang,  Yunqing Chen,  
 A. Chien,  K. D. Closser,  M. P. Coons,  S. Coriani,  S. Dasgupta,  
 A. L. Dempwolff,  M. Diedenhofen,  Hainam Do,  R. G. Edgar,  Po-Tung Fang,  
 S. Faraji,  S. Fatehi,  Qingguo Feng,  K. D. Fenk,  J. Fosso-Tande,  
 Qinghui Ge,  A. Ghysels,  G. Gidofalvi,  J. Gomes,  J. Gonthier,  A. Gunina,  
 D. Hait,  M. W. D. Hanson-Heine,  P. H. P. Harbach,  A. W. Hauser,  
 J. E. Herr,  E. G. Hohenstein,  Z. C. Holden,  Kerwin Hui,  B. C. Huynh,  
 T.-C. Jagau,  Hyunjun Ji,  B. Kaduk,  K. Khistyaev,  Jaehoon Kim,  
 P. Klunzinger,  K. Koh,  D. Kosenkov,  L. Koulias,  T. Kowalczyk,  
 C. M. Krauter,  A. Kunitsa,  Ka Un Lao,  A. Laurent,  K. V. Lawler,  
 Joonho Lee,  D. Lefrancois,  S. Lehtola,  D. S. Levine,  Yi-Pei Li,  
 You-Sheng Lin,  Fenglai Liu,  E. Livshits,  A. Luenser,  P. Manohar,  
 E. Mansoor,  S. F. Manzer,  Shan-Ping Mao,  Yuezhi Mao,  N. Mardirossian,  
 A. V. Marenich,  T. Markovich,  L. A. Martinez-Martinez,  S. A. Maurer,  
 N. J. Mayhall,  S. C. McKenzie,  J.-M. Mewes,  A. F. Morrison,  
 J. W. Mullinax,  K. Nanda,  T. S. Nguyen-Beck,  R. Olivares-Amaya,  
 J. A. Parkhill,  T. M. Perrine,  F. Plasser,  P. Pokhilko,  S. Prager,  
 A. Prociuk,  E. Ramos,  D. R. Rehn,  F. Rob,  M. Schneider,  N. Sergueev,  
 S. M. Sharada,  S. Sharma,  D. W. Small,  T. Stauch,  T. Stein,  
 Yu-Chuan Su,  A. J. W. Thom,  A. Tkatchenko,  T. Tsuchimochi,  N. M. Tubman,  
 L. Vogt,  M. L. Vidal,  O. Vydrov,  M. A. Watson,  J. Wenzel,  
 M. de Wergifosse,  T. A. Wesolowski,  A. White,  J. Witte,  A. Yamada,  
 Jun Yang,  K. Yao,  S. Yeganeh,  S. R. Yost,  Zhi-Qiang You,  A. Zech,  
 Igor Ying Zhang,  Xing Zhang,  Yan Zhao,  Ying Zhu,  B. R. Brooks,  
 G. K. L. Chan,  C. J. Cramer,  M. S. Gordon,  W. J. Hehre,  A. Klamt,  
 M. W. Schmidt,  C. D. Sherrill,  D. G. Truhlar,  A. Aspuru-Guzik,  R. Baer,  
 A. T. Bell,  N. A. Besley,  Jeng-Da Chai,  A. E. DePrince, III,  
 R. A. DiStasio Jr.,  A. Dreuw,  B. D. Dunietz,  T. R. Furlani,  
 Chao-Ping Hsu,  Yousung Jung,  Jing Kong,  D. S. Lambrecht,  WanZhen Liang,  
 C. Ochsenfeld,  V. A. Rassolov,  L. V. Slipchenko,  J. E. Subotnik,  
 T. Van Voorhis,  J. M. Herbert,  A. I. Krylov,  P. M. W. Gill,  M. Head-Gordon

 Contributors to earlier versions of Q-Chem not listed above: 
 R. D. Adamson,  B. Austin,  J. Baker,  G. J. O. Beran,  K. Brandhorst,  
 S. T. Brown,  E. F. C. Byrd,  A. K. Chakraborty,  C.-L. Cheng,  
 Siu Hung Chien,  D. M. Chipman,  D. L. Crittenden,  H. Dachsel,  
 R. J. Doerksen,  A. D. Dutoi,  L. Fusti-Molnar,  W. A. Goddard III,  
 A. Golubeva-Zadorozhnaya,  S. R. Gwaltney,  G. Hawkins,  A. Heyden,  
 S. Hirata,  G. Kedziora,  F. J. Keil,  C. Kelley,  Jihan Kim,  R. A. King,  
 R. Z. Khaliullin,  P. P. Korambath,  W. Kurlancheek,  A. M. Lee,  M. S. Lee,  
 S. V. Levchenko,  Ching Yeh Lin,  D. Liotard,  R. C. Lochan,  I. Lotan,  
 P. E. Maslen,  N. Nair,  D. P. O'Neill,  D. Neuhauser,  E. Neuscamman,  
 C. M. Oana,  R. Olson,  B. Peters,  R. Peverati,  P. A. Pieniazek,  
 Y. M. Rhee,  J. Ritchie,  M. A. Rohrdanz,  E. Rosta,  N. J. Russ,  
 H. F. Schaefer III,  N. E. Schultz,  N. Shenvi,  A. C. Simmonett,  A. Sodt,  
 D. Stuck,  K. S. Thanthiriwatte,  V. Vanovschi,  Tao Wang,  A. Warshel,  
 C. F. Williams,  Q. Wu,  X. Xu,  W. Zhang

 Please cite Q-Chem as follows:
 Y. Shao et al., Mol. Phys. 113, 184-215 (2015)
 DOI: 10.1080/00268976.2014.952696

 Q-Chem 5.1.1 for Intel X86 EM64T Linux

 Parts of Q-Chem use Armadillo 8.300.2 (Tropical Shenanigans).
 http://arma.sourceforge.net/

 Q-Chem begins on Thu Mar 14 03:59:10 2019  

Host: 
0

     Scratch files written to /staging/scratch/2868765/qchem5243//
 Aug318 |scratch|qcdevops|jenkins|workspace|build_RNUM 6013   
Processing $rem in /usr/usc/qchem/5.1.1/config/preferences.
 MEM_TOTAL  2000 
Input Ideriv = 2
Curr. Ideriv = -1
Max.  Ideriv = 2

Checking the input file for inconsistencies... 	...done.

--------------------------------------------------------------
User input:
--------------------------------------------------------------

$comment
potential surface scanner
$end

$rem
JOBTYPE  PES_SCAN
UNRESTRICTED TRUE
SYM_IGNORE  TRUE
GEOM_OPT_MAX_CYCLES 400
SCF_MAX_CYCLES 400
METHOD   B3LYP
BASIS   6-31G**
PDB_PRINT 2
SCF_CONVERGENCE 6
THRESH 14
SCF_PRINT 1
$end
$molecule
0 3
C 0.038326 1.021500 -0.720325
H 0.181713 1.484909 -1.698921
C 0.435219 1.966434 0.409206
H -0.311715 2.771325 0.419984
H 0.333221 1.447341 1.368725
C 1.835367 2.572536 0.264597
H 2.024959 3.286478 1.071866
H 2.613003 1.804053 0.303519
H 1.940767 3.108028 -0.685302
Se -1.751975 0.239101 -0.606642
H -2.610453 -3.618293 0.012655
Se 1.119590 -0.658336 -0.850308
H 0.984175 -0.976179 0.584446
$end
$scan
stre 10 11 3.900000 3.901000 0.100000
$end
--------------------------------------------------------------
 ----------------------------------------------------------------
             Standard Nuclear Orientation (Angstroms)
    I     Atom           X                Y                Z
 ----------------------------------------------------------------
    1      C       0.0383260000     1.0215000000    -0.7203250000
    2      H       0.1817130000     1.4849090000    -1.6989210000
    3      C       0.4352190000     1.9664340000     0.4092060000
    4      H      -0.3117150000     2.7713250000     0.4199840000
    5      H       0.3332210000     1.4473410000     1.3687250000
    6      C       1.8353670000     2.5725360000     0.2645970000
    7      H       2.0249590000     3.2864780000     1.0718660000
    8      H       2.6130030000     1.8040530000     0.3035190000
    9      H       1.9407670000     3.1080280000    -0.6853020000
   10      Se     -1.7519750000     0.2391010000    -0.6066420000
   11      H      -2.6104530000    -3.6182930000     0.0126550000
   12      Se      1.1195900000    -0.6583360000    -0.8503080000
   13      H       0.9841750000    -0.9761790000     0.5844460000
 ----------------------------------------------------------------
 Nuclear Repulsion Energy =   602.8045265099 hartrees
 There are       48 alpha and       46 beta electrons
 Requested basis set is 6-31G(d,p)
 There are 52 shells and 155 basis functions

 Total QAlloc Memory Limit   2000 MB
 Mega-Array Size       188 MB
 MEM_STATIC part       192 MB
A total of 1 constraints
  
            1
    1   1.0100000
    2  10.0100000
    3  11.0100000
    4   3.9000000
    5   3.9010000
    6   0.1000000
    7   0.0000000
    8   0.0000000
    9   0.0000000
   10   0.0000000

                       Distance Matrix (Angstroms)
             C (  1)   H (  2)   C (  3)   H (  4)   H (  5)   C (  6)
   H (  2)  1.092226
   C (  3)  1.525210  2.177230
   H (  4)  2.117716  2.527468  1.098124
   H (  5)  2.152309  3.071615  1.095691  1.751852
   C (  6)  2.570047  2.787993  1.532542  2.161856  2.177523
   H (  7)  3.505536  3.784239  2.170002  2.479996  2.516451  1.094231
   H (  8)  2.879168  3.165879  2.186385  3.082719  2.541518  1.093983
   H (  9)  2.823846  2.599271  2.183543  2.531541  3.092105  1.095522
   Se( 10)  1.957102  2.546421  2.966386  3.088765  3.116081  4.367264
   H ( 11)  5.392677  6.063691  6.373582  6.802744  6.013717  7.625953
   Se( 12)  2.001968  2.488625  2.990678  3.927448  3.158538  3.491974
   H ( 13)  2.566667  3.451762  2.998505  3.968648  2.629122  3.663360
             H (  7)   H (  8)   H (  9)   Se( 10)   H ( 11)   Se( 12)
   H (  8)  1.770236
   H (  9)  1.768212  1.769186
   Se( 10)  5.135088  4.725516  4.676887
   H ( 11)  8.383605  7.534649  8.151328  4.000000
   Se( 12)  4.480625  3.102412  3.858375  3.018386  4.839346
   H ( 13)  4.414867  3.234454  4.382702  3.222129  4.497673  1.475764

 
 A cutoff of  1.0D-14 yielded   1201 shell pairs
 There are     10885 function pairs
 
 -------------------------------------------------------
 OpenMP Integral Computing Module                       
 Release: version 1.0, May 2013, Q-Chem Inc. Pittsburgh 
 -------------------------------------------------------
 Integral Job Info:
 Integral job number is                      11
 Integral operator is                         1
 short-range coefficients                     0
 long-range coefficients              100000000
 Omega coefficients                           0
 if combine SR and LR in K                    0
 Integral screening is                        0
 Integral computing path is                   2
 max size of driver memory is            800000
 size of driver memory is                593474
 size of scratch memory is             15267112
 max col of scratch BK array               1296
 max len of scratch array in speh3          155
 max len of scratch index in speh4           18
 max int batch size is                      520
 min int batch size is                       52
 fixed nKL is                                52
 max L of basis functions is                  2
 order of int derivative is                   0
 number of shells is                         52
 number of basis is                         155
 number of cartesian basis is               155
 number of contracted shell pairs          1201
 number of primitive shell pairs           4855
 maxK2 (contraction) of shell pair           36
 max number of K2 of shell pair               1
 max number of CS2 of shell pair             81
 max number of PS2 of shell pair            462
 mem total for path MDJ                  535932
 -------------------------------------------------------
 Smallest overlap matrix eigenvalue = 6.74E-04

 Scale SEOQF with 1.000000e-01/1.000000e-01/1.000000e-01

 Standard Electronic Orientation quadrupole field applied
 Nucleus-field energy     =     0.0000000113 hartrees
 Guess from superposition of atomic densities
 Warning:  Energy on first SCF cycle will be non-variational
 SAD guess density has 93.936381 electrons

 -----------------------------------------------------------------------
  General SCF calculation program by
  Eric Jon Sundstrom, Paul Horn, Yuezhi Mao, Dmitri Zuev, Alec White,
  David Stuck, Shaama M.S., Shane Yost, Joonho Lee, David Small,
  Daniel Levine, Susi Lehtola, Hugh Burton, Evgeny Epifanovsky
 -----------------------------------------------------------------------
 Exchange:     0.2000 Hartree-Fock + 0.0800 Slater + 0.7200 B88
 Correlation:  0.1900 VWN1RPA + 0.8100 LYP
 Using SG-1 standard quadrature grid
 using 12 threads for integral computing
 -------------------------------------------------------
 OpenMP Integral computing Module                
 Release: version 1.0, May 2013, Q-Chem Inc. Pittsburgh 
 -------------------------------------------------------
 -------------------------------------------------------
 OpenMP BLAS3 based DFT computing Module                
 Release: version 1.0, May 2013, Q-Chem Inc. Pittsburgh 
 -------------------------------------------------------
 A unrestricted SCF calculation will be
 performed using DIIS
 SCF converges when DIIS error is below 1.0e-06
 Alpha HF Exchange    Energy = -18.85766453625035
 Beta HF Exchange     Energy = -18.85766453625035
 DFT Correlation      Energy =  -5.13396010621634
 DFT Exchange         Energy = -149.86728188577774
 One-Electron (alpha) Energy = -4020.42418193450339
 One-Electron (beta)  Energy = -4020.42418193450339
 Total Coulomb        Energy = 2702.92698583379251
 ---------------------------------------
  Cycle       Energy         DIIS error
 ---------------------------------------
    1   -4927.8334225785      1.50e-01  
 Alpha HF Exchange    Energy = -19.04752469036043
 Beta HF Exchange     Energy = -18.88267549875427
 DFT Correlation      Energy =  -5.16884465873211
 DFT Exchange         Energy = -151.00327414756759
 One-Electron (alpha) Energy = -4049.68169544206694
 One-Electron (beta)  Energy = -4010.38487314096437
 Total Coulomb        Energy = 2729.90241094582871
    2   -4921.4619501114      9.32e-03  
 Alpha HF Exchange    Energy = -18.91900128991995
 Beta HF Exchange     Energy = -18.76686750432410
 DFT Correlation      Energy =  -5.12791592655645
 DFT Exchange         Energy = -150.00080953572967
 One-Electron (alpha) Energy = -4035.68510942717376
 One-Electron (beta)  Energy = -3997.60887163900907
 Total Coulomb        Energy = 2701.84895740384127
    3   -4921.4550913977      3.76e-03  
 Alpha HF Exchange    Energy = -19.02651266785174
 Beta HF Exchange     Energy = -18.86160521846680
 DFT Correlation      Energy =  -5.16170100952507
 DFT Exchange         Energy = -150.82555233946783
 One-Electron (alpha) Energy = -4046.61313002951010
 One-Electron (beta)  Energy = -4007.44558177291947
 Total Coulomb        Energy = 2723.65983368791467
    4   -4921.4697228286      3.27e-03  
 Alpha HF Exchange    Energy = -18.99326887261891
 Beta HF Exchange     Energy = -18.83454055844480
 DFT Correlation      Energy =  -5.14907182805783
 DFT Exchange         Energy = -150.56591850386923
 One-Electron (alpha) Energy = -4043.66801866913829
 One-Electron (beta)  Energy = -4004.84252836430096
 Total Coulomb        Energy = 2717.65529705527888
    5   -4921.5935232200      1.08e-03  
 Alpha HF Exchange    Energy = -18.98572268641213
 Beta HF Exchange     Energy = -18.82539934724776
 DFT Correlation      Energy =  -5.14813879483171
 DFT Exchange         Energy = -150.50583162682568
 One-Electron (alpha) Energy = -4042.81986996775004
 One-Electron (beta)  Energy = -4003.93496588145990
 Total Coulomb        Energy = 2715.80806062630836
    6   -4921.6073411570      7.59e-05  
 Alpha HF Exchange    Energy = -18.98480235396394
 Beta HF Exchange     Energy = -18.82471946915971
 DFT Correlation      Energy =  -5.14768422430022
 DFT Exchange         Energy = -150.49838960822052
 One-Electron (alpha) Energy = -4042.64044937962899
 One-Electron (beta)  Energy = -4003.76645000495819
 Total Coulomb        Energy = 2715.45054332949076
    7   -4921.6074251896      6.97e-05  
 Alpha HF Exchange    Energy = -18.98534268869763
 Beta HF Exchange     Energy = -18.82545339962031
 DFT Correlation      Energy =  -5.14780999189603
 DFT Exchange         Energy = -150.50314534786503
 One-Electron (alpha) Energy = -4042.73146740777702
 One-Electron (beta)  Energy = -4003.85895880289263
 Total Coulomb        Energy = 2715.64015888621225
    8   -4921.6074922313      2.80e-05  
 Alpha HF Exchange    Energy = -18.98543226867567
 Beta HF Exchange     Energy = -18.82555678609460
 DFT Correlation      Energy =  -5.14779630462244
 DFT Exchange         Energy = -150.50370599937071
 One-Electron (alpha) Energy = -4042.74260801899391
 One-Electron (beta)  Energy = -4003.86943686601990
 Total Coulomb        Energy = 2715.66250551520034
    9   -4921.6075042074      1.20e-05  
 Alpha HF Exchange    Energy = -18.98541433016716
 Beta HF Exchange     Energy = -18.82560342938696
 DFT Correlation      Energy =  -5.14781086789892
 DFT Exchange         Energy = -150.50377883546651
 One-Electron (alpha) Energy = -4042.73604198093244
 One-Electron (beta)  Energy = -4003.86673827232244
 Total Coulomb        Energy = 2715.65335440266063
   10   -4921.6075067923      5.16e-06  
 Alpha HF Exchange    Energy = -18.98539642205342
 Beta HF Exchange     Energy = -18.82560736551120
 DFT Correlation      Energy =  -5.14779314215167
 DFT Exchange         Energy = -150.50366703328243
 One-Electron (alpha) Energy = -4042.73300342014454
 One-Electron (beta)  Energy = -4003.86572006504366
 Total Coulomb        Energy = 2715.64915353173865
   11   -4921.6075073953      6.83e-07  Convergence criterion met
 ---------------------------------------
 SCF time:   CPU 53.49s  wall 5.00s 
<S^2> =          2.002913755
 Alpha HF Exchange    Energy = -18.98539642205342
 Beta HF Exchange     Energy = -18.82560736551120
 DFT Correlation      Energy =  -5.14779314215167
 DFT Exchange         Energy = -150.50366703328243
 One-Electron (alpha) Energy = -4042.73300342014454
 One-Electron (beta)  Energy = -4003.86572006504366
 Total Coulomb        Energy = 2715.64915353173865
 Nuclear repulsion Energy = 602.80452652118788
 SCF   energy in the final basis set =    -4921.6075073953
 Total energy in the final basis set =    -4921.6075073953
 
 --------------------------------------------------------------
 
                    Orbital Energies (a.u.)
 --------------------------------------------------------------
 
 Alpha MOs
 -- Occupied --
*******-453.888 -58.121 -58.083 -52.178 -52.177 -52.176 -52.142
-52.140 -52.137 -10.260 -10.207 -10.189  -7.855  -7.817  -5.799
 -5.796  -5.788  -5.763  -5.759  -5.747  -2.133  -2.132  -2.126
 -2.123  -2.122  -2.097  -2.096  -2.086  -2.084  -2.082  -0.824
 -0.749  -0.691  -0.641  -0.582  -0.470  -0.444  -0.423  -0.399
 -0.384  -0.361  -0.351  -0.321  -0.308  -0.277  -0.225  -0.223
 -- Virtual --
 -0.024   0.026   0.027   0.093   0.116   0.136   0.148   0.163
  0.169   0.198   0.199   0.229   0.248   0.264   0.281   0.306
  0.311   0.323   0.349   0.433   0.434   0.473   0.496   0.527
  0.546   0.572   0.585   0.596   0.616   0.650   0.683   0.712
  0.735   0.741   0.785   0.804   0.831   0.851   0.864   0.883
  0.904   0.921   0.933   0.949   1.006   1.049   1.102   1.332
  1.384   1.439   1.533   1.561   1.611   1.639   1.718   1.783
  1.825   1.861   1.928   1.958   1.958   1.961   2.036   2.055
  2.059   2.069   2.090   2.106   2.125   2.162   2.241   2.288
  2.355   2.420   2.476   2.527   2.586   2.613   2.676   2.713
  2.755   2.817   2.873   2.896   3.182   3.274   3.302   3.412
  3.457   3.522   4.174   4.236   4.241   4.260   4.288   4.304
  4.350   4.379   4.396   4.412   4.497   4.510   4.623   5.437
  5.478  89.679  89.833
 
 Beta MOs
 -- Occupied --
*******-453.887 -58.121 -58.082 -52.178 -52.177 -52.175 -52.140
-52.138 -52.136 -10.260 -10.207 -10.189  -7.854  -7.814  -5.799
 -5.795  -5.787  -5.759  -5.755  -5.746  -2.132  -2.131  -2.125
 -2.122  -2.121  -2.092  -2.092  -2.084  -2.081  -2.079  -0.822
 -0.745  -0.681  -0.629  -0.576  -0.470  -0.443  -0.419  -0.397
 -0.382  -0.360  -0.346  -0.316  -0.254  -0.213
 -- Virtual --
 -0.135  -0.037  -0.021   0.029   0.033   0.094   0.116   0.138
  0.149   0.164   0.170   0.200   0.202   0.232   0.253   0.265
  0.286   0.312   0.321   0.336   0.355   0.435   0.445   0.477
  0.504   0.540   0.556   0.587   0.592   0.604   0.625   0.654
  0.697   0.717   0.744   0.791   0.806   0.835   0.852   0.864
  0.883   0.905   0.923   0.935   0.950   0.958   1.007   1.050
  1.104   1.332   1.386   1.441   1.538   1.565   1.613   1.641
  1.720   1.784   1.825   1.861   1.928   2.036   2.055   2.059
  2.069   2.090   2.106   2.125   2.162   2.189   2.192   2.192
  2.241   2.288   2.355   2.420   2.476   2.527   2.586   2.613
  2.676   2.713   2.755   2.817   2.873   2.896   3.182   3.274
  3.302   3.412   3.457   3.522   4.174   4.244   4.246   4.268
  4.294   4.307   4.353   4.383   4.400   4.414   4.499   4.514
  4.623   5.444   5.487  89.683  89.836
 --------------------------------------------------------------
 
          Ground-State Mulliken Net Atomic Charges

     Atom                 Charge (a.u.)    Spin (a.u.)
  --------------------------------------------------------
      1 C                    -0.232625      -0.030841
      2 H                     0.155871       0.001660
      3 C                    -0.172157       0.002370
      4 H                     0.123142      -0.000559
      5 H                     0.117847      -0.000319
      6 C                    -0.328278       0.000036
      7 H                     0.112600       0.000283
      8 H                     0.126532       0.000069
      9 H                     0.108791       0.000030
     10 Se                   -0.110236       0.823440
     11 H                     0.001282       0.996986
     12 Se                    0.019749       0.212778
     13 H                     0.077481      -0.005934
  --------------------------------------------------------
  Sum of atomic charges =     0.000000
  Sum of spin   charges =     2.000000

 -----------------------------------------------------------------
                    Cartesian Multipole Moments
 -----------------------------------------------------------------
    Charge (ESU x 10^10)
                -0.0000
    Dipole Moment (Debye)
         X       2.0770      Y       1.2551      Z       0.7465
       Tot       2.5390
    Quadrupole Moments (Debye-Ang)
        XX     -61.4371     XY       0.0456     YY     -54.3948
        XZ      -0.6073     YZ      -1.5781     ZZ     -58.4137
    Octopole Moments (Debye-Ang^2)
       XXX      -8.2956    XXY     -28.0549    XYY       0.2265
       YYY     -70.1758    XXZ      29.7072    XYZ      -0.8106
       YYZ      26.5164    XZZ       4.6651    YZZ     -22.5750
       ZZZ      77.1686
    Hexadecapole Moments (Debye-Ang^3)
      XXXX    -780.8833   XXXY     -96.2828   XXYY    -246.8982
      XYYY     -97.0318   YYYY    -717.0420   XXXZ     -21.8692
      XXYZ     -10.5477   XYYZ      -6.3454   YYYZ     -38.9246
      XXZZ    -180.8582   XYZZ     -28.8205   YYZZ    -158.8913
      XZZZ     -33.4179   YZZZ     -42.4980   ZZZZ    -240.2819
 -----------------------------------------------------------------
 Calculating analytic gradient of the SCF energy
 Gradient of SCF Energy
            1           2           3           4           5           6
    1   0.0000295  -0.0001118  -0.0001026   0.0000198  -0.0000222   0.0000168
    2  -0.0000588   0.0000818  -0.0000185   0.0000212   0.0000162  -0.0000222
    3  -0.0000959   0.0000365  -0.0000159  -0.0000160   0.0000042  -0.0000139
            7           8           9          10          11          12
    1  -0.0000033   0.0000086   0.0000177   0.0001524   0.0000144  -0.0001320
    2   0.0000036  -0.0000026  -0.0000273   0.0001585   0.0000377  -0.0002568
    3  -0.0000151   0.0000108  -0.0000146  -0.0000282  -0.0000161  -0.0000721
           13
    1   0.0001127
    2   0.0000672
    3   0.0002364
 Max gradient component =       2.568E-04
 RMS gradient           =       8.203E-05
 Gradient time:  CPU 19.08 s  wall 1.62 s
 Geometry Optimization Parameters
   NAtoms,    NIC,     NZ,  NCons,   NDum,   NFix, NCnnct, MaxDiis
       13      94       0       1       0       0       0       0


** CONSTRAINED OPTIMIZATION IN DELOCALIZED INTERNAL COORDINATES **
   Searching for a Minimum

   Optimization Cycle:   1

                       Coordinates (Angstroms)
     ATOM                X               Y               Z
      1  C         0.0383260000    1.0215000000   -0.7203250000
      2  H         0.1817130000    1.4849090000   -1.6989210000
      3  C         0.4352190000    1.9664340000    0.4092060000
      4  H        -0.3117150000    2.7713250000    0.4199840000
      5  H         0.3332210000    1.4473410000    1.3687250000
      6  C         1.8353670000    2.5725360000    0.2645970000
      7  H         2.0249590000    3.2864780000    1.0718660000
      8  H         2.6130030000    1.8040530000    0.3035190000
      9  H         1.9407670000    3.1080280000   -0.6853020000
     10  Se       -1.7519750000    0.2391010000   -0.6066420000
     11  H        -2.6104530000   -3.6182930000    0.0126550000
     12  Se        1.1195900000   -0.6583360000   -0.8503080000
     13  H         0.9841750000   -0.9761790000    0.5844460000
   Point Group: c1    Number of degrees of freedom:    33


   Energy is  -4921.607507395

              Constraints and their Current Values
                                        Value     Constraint
   Distance(Angs):       10  11             4.000000     3.900000

 Attempting to Generate Delocalized Internal Coordinates

   Using Lagrange Multiplier Algorithm


 34 Hessian modes will be used to form the next step
  Hessian Eigenvalues:
    -0.997363    0.045000    0.045000    0.045148    0.050262    0.062871
     0.066891    0.071950    0.076884    0.077956    0.082342    0.083355
     0.097848    0.105907    0.130471    0.133765    0.153607    0.159239
     0.160000    0.160000    0.160000    0.160733    0.177497    0.179742
     0.219529    0.291899    0.298703    0.338904    0.341632    0.341822
     0.343282    0.343564    0.345566    1.002644

 Minimum Search - Taking P-RFO Step
 Searching for Lamda that Maximizes Along the Constraint modes Only
 Value Taken    Lamda =   0.01764394
 Searching for Lamda that Minimizes Along All other modes
 Value Taken    Lamda =  -0.01745350
 Step Taken.  Stepsize is  0.185774

                             Maximum     Tolerance    Cnvgd?
         Gradient            0.188973       0.000300      NO
         Displacement        0.185714       0.001200      NO
         Energy change     *********       0.000001      NO


 New Cartesian Coordinates Obtained by Inverse Iteration

 Displacement from previous Coordinates is:  0.170231
 ----------------------------------------------------------------
             Standard Nuclear Orientation (Angstroms)
    I     Atom           X                Y                Z
 ----------------------------------------------------------------
    1      C       0.0364570697     1.0123578625    -0.7185999315
    2      H       0.1780082583     1.4753176018    -1.6976982457
    3      C       0.4318584152     1.9591754285     0.4099684957
    4      H      -0.3175235712     2.7617850597     0.4210511899
    5      H       0.3324896420     1.4403256931     1.3698763185
    6      C       1.8300166266     2.5694309698     0.2635576438
    7      H       2.0183859726     3.2843599319     1.0702432642
    8      H       2.6099333508     1.8032398401     0.3020639796
    9      H       1.9328414132     3.1047521363    -0.6867247285
   10      Se     -1.7517773768     0.2241815703    -0.6025617153
   11      H      -2.5796254943    -3.5397157582     0.0067000166
   12      Se      1.1227446391    -0.6636970091    -0.8492539474
   13      H       0.9883880550    -0.9826163268     0.5848776602
 ----------------------------------------------------------------
 Nuclear Repulsion Energy =   602.9805347406 hartrees
 There are       48 alpha and       46 beta electrons

                       Distance Matrix (Angstroms)
             C (  1)   H (  2)   C (  3)   H (  4)   H (  5)   C (  6)
   H (  2)  1.092246
   C (  3)  1.525278  2.177342
   H (  4)  2.117688  2.527776  1.098125
   H (  5)  2.152330  3.071661  1.095674  1.751868
   C (  6)  2.570207  2.787963  1.532545  2.161882  2.177477
   H (  7)  3.505709  3.784326  2.170057  2.480123  2.516444  1.094234
   H (  8)  2.879241  3.165571  2.186314  3.082689  2.541393  1.093984
   H (  9)  2.824076  2.599339  2.183582  2.531588  3.092095  1.095526
   Se( 10)  1.957669  2.547300  2.967101  3.089385  3.116679  4.368021
   H ( 11)  5.300125  5.971606  6.282473  6.708033  5.927856  7.538739
   Se( 12)  2.001562  2.487522  2.990389  3.927082  3.158473  3.491661
   H ( 13)  2.566154  3.450842  2.999076  3.968978  2.630033  3.664509
             H (  7)   H (  8)   H (  9)   Se( 10)   H ( 11)   Se( 12)
   H (  8)  1.770239
   H (  9)  1.768195  1.769206
   Se( 10)  5.135864  4.726129  4.677733
   H ( 11)  8.297038  7.454256  8.061771  3.901725
   Se( 12)  4.480379  3.102103  3.857963  3.018619  4.765678
   H ( 13)  4.416284  3.235798  4.383554  3.221006  4.427614  1.475295

 
 Applying Cartesian multipole field
    Component          Value
    ---------          -----
     (2,0,0)        1.00000E-11
     (0,2,0)        2.00000E-11
     (0,0,2)       -3.00000E-11
 Nucleus-field energy     =     0.0000000112 hartrees
 Requested basis set is 6-31G(d,p)
 There are 52 shells and 155 basis functions
 A cutoff of  1.0D-14 yielded   1202 shell pairs
 There are     10889 function pairs
 Smallest overlap matrix eigenvalue = 6.74E-04
 Guess from superposition of atomic densities
 Warning:  Energy on first SCF cycle will be non-variational
 SAD guess density has 93.936381 electrons

 -----------------------------------------------------------------------
  General SCF calculation program by
  Eric Jon Sundstrom, Paul Horn, Yuezhi Mao, Dmitri Zuev, Alec White,
  David Stuck, Shaama M.S., Shane Yost, Joonho Lee, David Small,
  Daniel Levine, Susi Lehtola, Hugh Burton, Evgeny Epifanovsky
 -----------------------------------------------------------------------
 Exchange:     0.2000 Hartree-Fock + 0.0800 Slater + 0.7200 B88
 Correlation:  0.1900 VWN1RPA + 0.8100 LYP
 Using SG-1 standard quadrature grid
 using 12 threads for integral computing
 -------------------------------------------------------
 OpenMP Integral computing Module                
 Release: version 1.0, May 2013, Q-Chem Inc. Pittsburgh 
 -------------------------------------------------------
 -------------------------------------------------------
 OpenMP BLAS3 based DFT computing Module                
 Release: version 1.0, May 2013, Q-Chem Inc. Pittsburgh 
 -------------------------------------------------------
 A unrestricted SCF calculation will be
 performed using DIIS
 SCF converges when DIIS error is below 1.0e-06
 Alpha HF Exchange    Energy = -18.85767098816373
 Beta HF Exchange     Energy = -18.85767098816373
 DFT Correlation      Energy =  -5.13402603929172
 DFT Exchange         Energy = -149.86726101171683
 One-Electron (alpha) Energy = -4020.60001994221511
 One-Electron (beta)  Energy = -4020.60001994221511
 Total Coulomb        Energy = 2703.10242879785255
 ---------------------------------------
  Cycle       Energy         DIIS error
 ---------------------------------------
    1   -4927.8337053620      1.50e-01  
 Alpha HF Exchange    Energy = -19.04749891240548
 Beta HF Exchange     Energy = -18.88260607792025
 DFT Correlation      Energy =  -5.16894458401789
 DFT Exchange         Energy = -151.00297008219454
 One-Electron (alpha) Energy = -4049.97315621710550
 One-Electron (beta)  Energy = -4010.44800293717526
 Total Coulomb        Energy = 2730.08083395962512
    2   -4921.4618100993      9.32e-03  
 Alpha HF Exchange    Energy = -18.91905943043799
 Beta HF Exchange     Energy = -18.76672071708196
 DFT Correlation      Energy =  -5.12803383667058
 DFT Exchange         Energy = -150.00051779056258
 One-Electron (alpha) Energy = -4035.97070108512344
 One-Electron (beta)  Energy = -3997.66005357239055
 Total Coulomb        Energy = 2702.00972696771350
    3   -4921.4548247127      3.76e-03  
 Alpha HF Exchange    Energy = -19.02654076908322
 Beta HF Exchange     Energy = -18.86156752340028
 DFT Correlation      Energy =  -5.16178037328776
 DFT Exchange         Energy = -150.82549937858155
 One-Electron (alpha) Energy = -4046.90089237324128
 One-Electron (beta)  Energy = -4007.51329888946884
 Total Coulomb        Energy = 2723.83967487101336
    4   -4921.4693696842      3.28e-03  
 Alpha HF Exchange    Energy = -18.99332621593302
 Beta HF Exchange     Energy = -18.83451069214595
 DFT Correlation      Energy =  -5.14915256886465
 DFT Exchange         Energy = -150.56602683550892
 One-Electron (alpha) Energy = -4043.95599109165505
 One-Electron (beta)  Energy = -4004.91132100581581
 Total Coulomb        Energy = 2717.83631401073171
    5   -4921.5934796473      1.08e-03  
 Alpha HF Exchange    Energy = -18.98575696220478
 Beta HF Exchange     Energy = -18.82533920706749
 DFT Correlation      Energy =  -5.14821180582717
 DFT Exchange         Energy = -150.50572875929345
 One-Electron (alpha) Energy = -4043.10508816785614
 One-Electron (beta)  Energy = -4004.00095102942760
 Total Coulomb        Energy = 2715.98320803389834
    6   -4921.6073331459      7.59e-05  
 Alpha HF Exchange    Energy = -18.98483936200174
 Beta HF Exchange     Energy = -18.82466499120730
 DFT Correlation      Energy =  -5.14775619068720
 DFT Exchange         Energy = -150.49831489942437
 One-Electron (alpha) Energy = -4042.92536967155866
 One-Electron (beta)  Energy = -4003.83287099980771
 Total Coulomb        Energy = 2715.62586334521666
    7   -4921.6074180176      6.96e-05  
 Alpha HF Exchange    Energy = -18.98538078636284
 Beta HF Exchange     Energy = -18.82540128276379
 DFT Correlation      Energy =  -5.14788100389756
 DFT Exchange         Energy = -150.50308351278977
 One-Electron (alpha) Energy = -4043.01654933482723
 One-Electron (beta)  Energy = -4003.92587475318760
 Total Coulomb        Energy = 2715.81615113338785
    8   -4921.6074847886      2.81e-05  
 Alpha HF Exchange    Energy = -18.98546940093126
 Beta HF Exchange     Energy = -18.82550467484129
 DFT Correlation      Energy =  -5.14786687811212
 DFT Exchange         Energy = -150.50364003937747
 One-Electron (alpha) Energy = -4043.02750320184305
 One-Electron (beta)  Energy = -4003.93635306044916
 Total Coulomb        Energy = 2715.83830567458881
    9   -4921.6074968291      1.20e-05  
 Alpha HF Exchange    Energy = -18.98545125073376
 Beta HF Exchange     Energy = -18.82555174291397
 DFT Correlation      Energy =  -5.14788130238457
 DFT Exchange         Energy = -150.50371381007983
 One-Electron (alpha) Energy = -4043.02088818870789
 One-Electron (beta)  Energy = -4003.93370965268014
 Total Coulomb        Energy = 2715.82916176181061
   10   -4921.6074994338      5.19e-06  
 Alpha HF Exchange    Energy = -18.98543312525809
 Beta HF Exchange     Energy = -18.82555578675507
 DFT Correlation      Energy =  -5.14786341202695
 DFT Exchange         Energy = -150.50360132993268
 One-Electron (alpha) Energy = -4043.01781318411213
 One-Electron (beta)  Energy = -4003.93270715682411
 Total Coulomb        Energy = 2715.82493919806302
   11   -4921.6075000450      6.91e-07  Convergence criterion met
 ---------------------------------------
 SCF time:   CPU 53.15s  wall 4.00s 
<S^2> =          2.002923262
 Alpha HF Exchange    Energy = -18.98543312525809
 Beta HF Exchange     Energy = -18.82555578675507
 DFT Correlation      Energy =  -5.14786341202695
 DFT Exchange         Energy = -150.50360132993268
 One-Electron (alpha) Energy = -4043.01781318411213
 One-Electron (beta)  Energy = -4003.93270715682411
 Total Coulomb        Energy = 2715.82493919806302
 Nuclear repulsion Energy = 602.98053475187442
 SCF   energy in the final basis set =    -4921.6075000450
 Total energy in the final basis set =    -4921.6075000450
 
 --------------------------------------------------------------
 
                    Orbital Energies (a.u.)
 --------------------------------------------------------------
 
 Alpha MOs
 -- Occupied --
*******-453.888 -58.121 -58.083 -52.179 -52.177 -52.176 -52.142
-52.140 -52.137 -10.260 -10.207 -10.189  -7.855  -7.817  -5.799
 -5.796  -5.788  -5.763  -5.759  -5.747  -2.133  -2.132  -2.126
 -2.123  -2.122  -2.097  -2.096  -2.086  -2.084  -2.082  -0.824
 -0.749  -0.691  -0.641  -0.582  -0.470  -0.444  -0.423  -0.399
 -0.384  -0.362  -0.351  -0.321  -0.307  -0.277  -0.225  -0.223
 -- Virtual --
 -0.024   0.026   0.027   0.093   0.116   0.136   0.148   0.163
  0.169   0.198   0.199   0.229   0.248   0.264   0.281   0.307
  0.311   0.323   0.349   0.433   0.434   0.473   0.495   0.527
  0.546   0.571   0.585   0.596   0.616   0.650   0.683   0.713
  0.736   0.744   0.785   0.804   0.831   0.851   0.864   0.883
  0.904   0.921   0.933   0.949   1.006   1.049   1.102   1.332
  1.385   1.439   1.533   1.561   1.611   1.639   1.718   1.784
  1.825   1.861   1.928   1.959   1.959   1.963   2.036   2.055
  2.059   2.069   2.090   2.106   2.125   2.162   2.241   2.288
  2.355   2.420   2.476   2.527   2.586   2.613   2.676   2.713
  2.755   2.817   2.873   2.896   3.182   3.274   3.302   3.412
  3.457   3.522   4.174   4.236   4.241   4.260   4.288   4.304
  4.350   4.379   4.396   4.412   4.497   4.510   4.623   5.437
  5.478  89.680  89.834
 
 Beta MOs
 -- Occupied --
*******-453.887 -58.121 -58.082 -52.178 -52.177 -52.175 -52.140
-52.138 -52.136 -10.260 -10.207 -10.189  -7.854  -7.814  -5.799
 -5.795  -5.787  -5.759  -5.755  -5.746  -2.132  -2.132  -2.125
 -2.122  -2.121  -2.092  -2.092  -2.084  -2.081  -2.079  -0.822
 -0.745  -0.681  -0.629  -0.576  -0.470  -0.443  -0.419  -0.397
 -0.382  -0.360  -0.346  -0.316  -0.254  -0.213
 -- Virtual --
 -0.135  -0.039  -0.021   0.029   0.033   0.094   0.116   0.138
  0.149   0.164   0.170   0.200   0.202   0.232   0.253   0.265
  0.286   0.312   0.321   0.337   0.355   0.435   0.445   0.477
  0.503   0.540   0.556   0.587   0.592   0.604   0.625   0.654
  0.697   0.717   0.744   0.791   0.807   0.835   0.852   0.864
  0.883   0.905   0.923   0.935   0.950   0.959   1.007   1.050
  1.104   1.332   1.386   1.441   1.538   1.565   1.612   1.641
  1.720   1.784   1.825   1.861   1.928   2.036   2.055   2.059
  2.070   2.090   2.106   2.125   2.162   2.188   2.190   2.190
  2.241   2.288   2.355   2.420   2.476   2.527   2.586   2.613
  2.676   2.713   2.755   2.817   2.873   2.896   3.182   3.275
  3.302   3.412   3.457   3.522   4.174   4.244   4.246   4.268
  4.294   4.307   4.353   4.383   4.400   4.414   4.499   4.514
  4.623   5.444   5.487  89.683  89.836
 --------------------------------------------------------------
 
          Ground-State Mulliken Net Atomic Charges

     Atom                 Charge (a.u.)    Spin (a.u.)
  --------------------------------------------------------
      1 C                    -0.232689      -0.030571
      2 H                     0.155836       0.001670
      3 C                    -0.172139       0.002373
      4 H                     0.123138      -0.000559
      5 H                     0.117857      -0.000315
      6 C                    -0.328308       0.000053
      7 H                     0.112619       0.000285
      8 H                     0.126546       0.000067
      9 H                     0.108796       0.000029
     10 Se                   -0.110442       0.823538
     11 H                     0.001400       0.996349
     12 Se                    0.019840       0.213003
     13 H                     0.077546      -0.005923
  --------------------------------------------------------
  Sum of atomic charges =    -0.000000
  Sum of spin   charges =     2.000000

 -----------------------------------------------------------------
                    Cartesian Multipole Moments
 -----------------------------------------------------------------
    Charge (ESU x 10^10)
                -0.0000
    Dipole Moment (Debye)
         X       2.0757      Y       1.2609      Z       0.7440
       Tot       2.5401
    Quadrupole Moments (Debye-Ang)
        XX     -61.4294     XY       0.0096     YY     -54.4171
        XZ      -0.5988     YZ      -1.5840     ZZ     -58.4107
    Octopole Moments (Debye-Ang^2)
       XXX      -8.3547    XXY     -27.6462    XYY       0.1751
       YYY     -69.0640    XXZ      29.6271    XYZ      -0.7975
       YYZ      26.4583    XZZ       4.6226    YZZ     -22.1571
       ZZZ      76.8658
    Hexadecapole Moments (Debye-Ang^3)
      XXXX    -779.3680   XXXY     -95.4282   XXYY    -245.4466
      XYYY     -96.1770   YYYY    -710.5294   XXXZ     -21.4551
      XXYZ     -10.8751   XYYZ      -6.1479   YYYZ     -39.7898
      XXZZ    -180.4696   XYZZ     -28.6267   YYZZ    -157.6736
      XZZZ     -32.8551   YZZZ     -43.4108   ZZZZ    -239.4137
 -----------------------------------------------------------------
 Calculating analytic gradient of the SCF energy
 Gradient of SCF Energy
            1           2           3           4           5           6
    1   0.0000776  -0.0000170  -0.0000326   0.0000161  -0.0000225   0.0000105
    2  -0.0000548   0.0000350  -0.0000152   0.0000137   0.0000229  -0.0000073
    3  -0.0000972   0.0000214   0.0000081  -0.0000289  -0.0000025   0.0000022
            7           8           9          10          11          12
    1   0.0000072  -0.0000023   0.0000213  -0.0000540   0.0000290  -0.0001518
    2   0.0000093  -0.0000069  -0.0000227   0.0000427   0.0000692  -0.0001973
    3  -0.0000171   0.0000136  -0.0000154   0.0000073  -0.0000252   0.0000731
           13
    1   0.0001185
    2   0.0001114
    3   0.0000606
 Max gradient component =       1.973E-04
 RMS gradient           =       5.876E-05
 Gradient time:  CPU 19.49 s  wall 1.67 s
 Geometry Optimization Parameters
   NAtoms,    NIC,     NZ,  NCons,   NDum,   NFix, NCnnct, MaxDiis
       13      94       0       1       0       0       0       0

 Cartesian Hessian Update
 Hessian Updated using BFGS Update


** CONSTRAINED OPTIMIZATION IN DELOCALIZED INTERNAL COORDINATES **
   Searching for a Minimum

   Optimization Cycle:   2

                       Coordinates (Angstroms)
     ATOM                X               Y               Z
      1  C         0.0364570697    1.0123578625   -0.7185999315
      2  H         0.1780082583    1.4753176018   -1.6976982457
      3  C         0.4318584152    1.9591754285    0.4099684957
      4  H        -0.3175235712    2.7617850597    0.4210511899
      5  H         0.3324896420    1.4403256931    1.3698763185
      6  C         1.8300166266    2.5694309698    0.2635576438
      7  H         2.0183859726    3.2843599319    1.0702432642
      8  H         2.6099333508    1.8032398401    0.3020639796
      9  H         1.9328414132    3.1047521363   -0.6867247285
     10  Se       -1.7517773768    0.2241815703   -0.6025617153
     11  H        -2.5796254943   -3.5397157582    0.0067000166
     12  Se        1.1227446391   -0.6636970091   -0.8492539474
     13  H         0.9883880550   -0.9826163268    0.5848776602
   Point Group: c1    Number of degrees of freedom:    33


   Energy is  -4921.607500045

              Constraints and their Current Values
                                        Value     Constraint
   Distance(Angs):       10  11             3.901725     3.900000
 Hessian Updated using BFGS Update

   Using Lagrange Multiplier Algorithm


 33 Hessian modes will be used to form the next step
  Hessian Eigenvalues:
    -0.999889    0.044999    0.045002    0.045109    0.050137    0.062946
     0.066894    0.073166    0.076912    0.077956    0.082345    0.083361
     0.097862    0.105916    0.130496    0.133787    0.153609    0.158949
     0.160000    0.160018    0.163788    0.178092    0.186931    0.219765
     0.291903    0.299013    0.338906    0.341643    0.341823    0.343284
     0.343566    0.345571    1.000114

 Minimum Search - Taking P-RFO Step
 Searching for Lamda that Maximizes Along the Constraint modes Only
 Value Taken    Lamda =   0.00000274
 Searching for Lamda that Minimizes Along All other modes
 Value Taken    Lamda =  -0.00001053
 Step Taken.  Stepsize is  0.006362

                             Maximum     Tolerance    Cnvgd?
         Gradient            0.003259       0.000300      NO
         Displacement        0.003431       0.001200      NO
         Energy change      0.000007       0.000001      NO


 New Cartesian Coordinates Obtained by Inverse Iteration

 Displacement from previous Coordinates is:  0.008842
 ----------------------------------------------------------------
             Standard Nuclear Orientation (Angstroms)
    I     Atom           X                Y                Z
 ----------------------------------------------------------------
    1      C       0.0369763197     1.0121586646    -0.7187080550
    2      H       0.1787593171     1.4751390856    -1.6977764665
    3      C       0.4318835848     1.9589732935     0.4100221948
    4      H      -0.3178921440     2.7612229047     0.4212271920
    5      H       0.3327548751     1.4398788169     1.3698185804
    6      C       1.8297523620     2.5699077601     0.2637492748
    7      H       2.0177418131     3.2847184565     1.0706243568
    8      H       2.6100488590     1.8040837027     0.3020774140
    9      H       1.9323238213     3.1055225277    -0.6863944785
   10      Se     -1.7509663150     0.2231634365    -0.6030820467
   11      H      -2.5809446715    -3.5381210089     0.0083714291
   12      Se      1.1240467995    -0.6632169976    -0.8499327205
   13      H       0.9877123788    -0.9845336424     0.5835033253
 ----------------------------------------------------------------
 Nuclear Repulsion Energy =   602.9805043326 hartrees
 There are       48 alpha and       46 beta electrons

                       Distance Matrix (Angstroms)
             C (  1)   H (  2)   C (  3)   H (  4)   H (  5)   C (  6)
   H (  2)  1.092258
   C (  3)  1.525268  2.177380
   H (  4)  2.117690  2.528013  1.098132
   H (  5)  2.152295  3.071660  1.095671  1.751890
   C (  6)  2.570185  2.787809  1.532538  2.161892  2.177466
   H (  7)  3.505663  3.784241  2.170010  2.480111  2.516373  1.094231
   H (  8)  2.879210  3.165247  2.186332  3.082718  2.541414  1.093992
   H (  9)  2.824103  2.599237  2.183581  2.531569  3.092087  1.095526
   Se( 10)  1.957708  2.547477  2.967196  3.089443  3.116830  4.368083
   H ( 11)  5.299736  5.971573  6.281441  6.706235  5.926522  7.538400
   Se( 12)  2.001456  2.486961  2.990394  3.927063  3.158552  3.491619
   H ( 13)  2.566405  3.450889  3.000546  3.970092  2.631546  3.666787
             H (  7)   H (  8)   H (  9)   Se( 10)   H ( 11)   Se( 12)
   H (  8)  1.770246
   H (  9)  1.768198  1.769218
   Se( 10)  5.135910  4.726212  4.677773
   H ( 11)  8.296230  7.454651  8.061656  3.900000
   Se( 12)  4.480338  3.102080  3.857908  3.018660  4.767465
   H ( 13)  4.418683  3.238451  4.385600  3.219764  4.425709  1.475320

 
 Applying Cartesian multipole field
    Component          Value
    ---------          -----
     (2,0,0)        1.00000E-11
     (0,2,0)        2.00000E-11
     (0,0,2)       -3.00000E-11
 Nucleus-field energy     =     0.0000000112 hartrees
 Requested basis set is 6-31G(d,p)
 There are 52 shells and 155 basis functions
 A cutoff of  1.0D-14 yielded   1202 shell pairs
 There are     10889 function pairs
 Smallest overlap matrix eigenvalue = 6.74E-04
 Guess from superposition of atomic densities
 Warning:  Energy on first SCF cycle will be non-variational
 SAD guess density has 93.936381 electrons

 -----------------------------------------------------------------------
  General SCF calculation program by
  Eric Jon Sundstrom, Paul Horn, Yuezhi Mao, Dmitri Zuev, Alec White,
  David Stuck, Shaama M.S., Shane Yost, Joonho Lee, David Small,
  Daniel Levine, Susi Lehtola, Hugh Burton, Evgeny Epifanovsky
 -----------------------------------------------------------------------
 Exchange:     0.2000 Hartree-Fock + 0.0800 Slater + 0.7200 B88
 Correlation:  0.1900 VWN1RPA + 0.8100 LYP
 Using SG-1 standard quadrature grid
 using 12 threads for integral computing
 -------------------------------------------------------
 OpenMP Integral computing Module                
 Release: version 1.0, May 2013, Q-Chem Inc. Pittsburgh 
 -------------------------------------------------------
 -------------------------------------------------------
 OpenMP BLAS3 based DFT computing Module                
 Release: version 1.0, May 2013, Q-Chem Inc. Pittsburgh 
 -------------------------------------------------------
 A unrestricted SCF calculation will be
 performed using DIIS
 SCF converges when DIIS error is below 1.0e-06
 Alpha HF Exchange    Energy = -18.85767469780111
 Beta HF Exchange     Energy = -18.85767469780111
 DFT Correlation      Energy =  -5.13402710120670
 DFT Exchange         Energy = -149.86726879444504
 One-Electron (alpha) Energy = -4020.59999029893470
 One-Electron (beta)  Energy = -4020.59999029893470
 Total Coulomb        Energy = 2703.10237707626402
 ---------------------------------------
  Cycle       Energy         DIIS error
 ---------------------------------------
    1   -4927.8337444691      1.50e-01  
 Alpha HF Exchange    Energy = -19.04749781343046
 Beta HF Exchange     Energy = -18.88260522555058
 DFT Correlation      Energy =  -5.16894660608333
 DFT Exchange         Energy = -151.00296737452169
 One-Electron (alpha) Energy = -4049.97352720996150
 One-Electron (beta)  Energy = -4010.44732435536480
 Total Coulomb        Energy = 2730.08054147957455
    2   -4921.4618227615      9.32e-03  
 Alpha HF Exchange    Energy = -18.91906068952925
 Beta HF Exchange     Energy = -18.76671539126420
 DFT Correlation      Energy =  -5.12803668303208
 DFT Exchange         Energy = -150.00050838431247
 One-Electron (alpha) Energy = -4035.97135705153096
 One-Electron (beta)  Energy = -3997.65910867766524
 Total Coulomb        Energy = 2702.00944989621348
    3   -4921.4548326373      3.76e-03  
 Alpha HF Exchange    Energy = -19.02654209895984
 Beta HF Exchange     Energy = -18.86156775490245
 DFT Correlation      Energy =  -5.16178253866398
 DFT Exchange         Energy = -150.82550988158170
 One-Electron (alpha) Energy = -4046.90125182578913
 One-Electron (beta)  Energy = -4007.51276041700930
 Total Coulomb        Energy = 2723.83954858917241
    4   -4921.4693615839      3.28e-03  
 Alpha HF Exchange    Energy = -18.99332772112355
 Beta HF Exchange     Energy = -18.83451120086789
 DFT Correlation      Energy =  -5.14915437554918
 DFT Exchange         Energy = -150.56603641628467
 One-Electron (alpha) Energy = -4043.95643290113730
 One-Electron (beta)  Energy = -4004.91082589219968
 Total Coulomb        Energy = 2717.83630509369277
    5   -4921.5934790697      1.08e-03  
 Alpha HF Exchange    Energy = -18.98575779254521
 Beta HF Exchange     Energy = -18.82533827219341
 DFT Correlation      Energy =  -5.14821319410332
 DFT Exchange         Energy = -150.50573022030639
 One-Electron (alpha) Energy = -4043.10548315629421
 One-Electron (beta)  Energy = -4004.00041040753467
 Total Coulomb        Energy = 2715.98309408166324
    6   -4921.6073346175      7.58e-05  
 Alpha HF Exchange    Energy = -18.98484014316386
 Beta HF Exchange     Energy = -18.82466455786153
 DFT Correlation      Energy =  -5.14775770509485
 DFT Exchange         Energy = -150.49831806639912
 One-Electron (alpha) Energy = -4042.92572369615164
 One-Electron (beta)  Energy = -4003.83233692884141
 Total Coulomb        Energy = 2715.62571715997819
    7   -4921.6074195937      6.95e-05  
 Alpha HF Exchange    Energy = -18.98538161989157
 Beta HF Exchange     Energy = -18.82540069833865
 DFT Correlation      Energy =  -5.14788231722578
 DFT Exchange         Energy = -150.50308591766228
 One-Electron (alpha) Energy = -4043.01692336844053
 One-Electron (beta)  Energy = -4003.92535487303894
 Total Coulomb        Energy = 2715.81603819868678
    8   -4921.6074862521      2.81e-05  
 Alpha HF Exchange    Energy = -18.98547004595525
 Beta HF Exchange     Energy = -18.82550392524992
 DFT Correlation      Energy =  -5.14786818360186
 DFT Exchange         Energy = -150.50364116579874
 One-Electron (alpha) Energy = -4043.02783932727152
 One-Electron (beta)  Energy = -4003.93580226444101
 Total Coulomb        Energy = 2715.83812228158649
    9   -4921.6074982869      1.20e-05  
 Alpha HF Exchange    Energy = -18.98545194651776
 Beta HF Exchange     Energy = -18.82555109521253
 DFT Correlation      Energy =  -5.14788262733477
 DFT Exchange         Energy = -150.50371551702085
 One-Electron (alpha) Energy = -4043.02123557185405
 One-Electron (beta)  Energy = -4003.93317266572149
 Total Coulomb        Energy = 2715.82900418753070
   10   -4921.6075008923      5.19e-06  
 Alpha HF Exchange    Energy = -18.98543380657150
 Beta HF Exchange     Energy = -18.82555513148663
 DFT Correlation      Energy =  -5.14786472571175
 DFT Exchange         Energy = -150.50360292737787
 One-Electron (alpha) Energy = -4043.01815686778991
 One-Electron (beta)  Energy = -4003.93216728334028
 Total Coulomb        Energy = 2715.82477489469557
   11   -4921.6075015038      6.90e-07  Convergence criterion met
 ---------------------------------------
 SCF time:   CPU 53.32s  wall 5.00s 
<S^2> =          2.002922782
 Alpha HF Exchange    Energy = -18.98543380657150
 Beta HF Exchange     Energy = -18.82555513148663
 DFT Correlation      Energy =  -5.14786472571175
 DFT Exchange         Energy = -150.50360292737787
 One-Electron (alpha) Energy = -4043.01815686778991
 One-Electron (beta)  Energy = -4003.93216728334028
 Total Coulomb        Energy = 2715.82477489469557
 Nuclear repulsion Energy = 602.98050434380548
 SCF   energy in the final basis set =    -4921.6075015038
 Total energy in the final basis set =    -4921.6075015038
 
 --------------------------------------------------------------
 
                    Orbital Energies (a.u.)
 --------------------------------------------------------------
 
 Alpha MOs
 -- Occupied --
*******-453.888 -58.121 -58.083 -52.178 -52.177 -52.176 -52.142
-52.140 -52.137 -10.260 -10.207 -10.189  -7.855  -7.817  -5.799
 -5.796  -5.788  -5.763  -5.759  -5.747  -2.133  -2.132  -2.126
 -2.123  -2.122  -2.097  -2.096  -2.087  -2.084  -2.082  -0.824
 -0.749  -0.691  -0.641  -0.582  -0.470  -0.444  -0.423  -0.399
 -0.384  -0.362  -0.351  -0.321  -0.307  -0.277  -0.225  -0.223
 -- Virtual --
 -0.024   0.026   0.027   0.093   0.116   0.136   0.148   0.163
  0.169   0.198   0.199   0.229   0.248   0.264   0.281   0.306
  0.312   0.323   0.349   0.433   0.434   0.473   0.495   0.527
  0.546   0.571   0.585   0.596   0.616   0.650   0.683   0.713
  0.736   0.744   0.785   0.804   0.831   0.851   0.864   0.883
  0.904   0.921   0.933   0.949   1.006   1.049   1.102   1.332
  1.385   1.439   1.533   1.561   1.611   1.639   1.718   1.784
  1.825   1.861   1.928   1.959   1.959   1.963   2.036   2.055
  2.059   2.070   2.090   2.106   2.125   2.162   2.241   2.288
  2.355   2.420   2.476   2.527   2.586   2.613   2.676   2.713
  2.755   2.817   2.873   2.896   3.182   3.274   3.302   3.412
  3.457   3.522   4.174   4.236   4.241   4.260   4.288   4.304
  4.350   4.379   4.396   4.412   4.497   4.510   4.623   5.437
  5.478  89.680  89.834
 
 Beta MOs
 -- Occupied --
*******-453.887 -58.121 -58.082 -52.178 -52.177 -52.175 -52.140
-52.138 -52.136 -10.260 -10.207 -10.189  -7.854  -7.814  -5.799
 -5.795  -5.787  -5.759  -5.755  -5.746  -2.132  -2.131  -2.125
 -2.122  -2.121  -2.092  -2.092  -2.084  -2.081  -2.079  -0.822
 -0.745  -0.681  -0.629  -0.576  -0.470  -0.443  -0.419  -0.397
 -0.382  -0.360  -0.346  -0.316  -0.254  -0.213
 -- Virtual --
 -0.135  -0.039  -0.021   0.029   0.033   0.094   0.116   0.138
  0.149   0.164   0.170   0.200   0.202   0.232   0.253   0.265
  0.286   0.312   0.321   0.337   0.355   0.435   0.445   0.477
  0.503   0.540   0.556   0.587   0.592   0.604   0.625   0.654
  0.697   0.717   0.744   0.791   0.807   0.835   0.852   0.864
  0.883   0.905   0.923   0.935   0.950   0.959   1.007   1.050
  1.105   1.332   1.386   1.441   1.538   1.565   1.612   1.641
  1.720   1.784   1.825   1.861   1.928   2.036   2.055   2.059
  2.070   2.090   2.106   2.125   2.162   2.188   2.190   2.190
  2.241   2.288   2.355   2.420   2.476   2.527   2.586   2.613
  2.676   2.713   2.755   2.817   2.873   2.896   3.182   3.275
  3.302   3.412   3.457   3.522   4.174   4.244   4.246   4.268
  4.294   4.307   4.353   4.383   4.400   4.414   4.499   4.514
  4.623   5.444   5.487  89.683  89.836
 --------------------------------------------------------------
 
          Ground-State Mulliken Net Atomic Charges

     Atom                 Charge (a.u.)    Spin (a.u.)
  --------------------------------------------------------
      1 C                    -0.232703      -0.030563
      2 H                     0.155817       0.001675
      3 C                    -0.172082       0.002374
      4 H                     0.123124      -0.000560
      5 H                     0.117865      -0.000315
      6 C                    -0.328336       0.000055
      7 H                     0.112622       0.000285
      8 H                     0.126576       0.000068
      9 H                     0.108786       0.000029
     10 Se                   -0.110436       0.823553
     11 H                     0.001404       0.996338
     12 Se                    0.019797       0.212977
     13 H                     0.077568      -0.005916
  --------------------------------------------------------
  Sum of atomic charges =     0.000000
  Sum of spin   charges =     2.000000

 -----------------------------------------------------------------
                    Cartesian Multipole Moments
 -----------------------------------------------------------------
    Charge (ESU x 10^10)
                -0.0000
    Dipole Moment (Debye)
         X       2.0740      Y       1.2608      Z       0.7445
       Tot       2.5388
    Quadrupole Moments (Debye-Ang)
        XX     -61.4259     XY       0.0093     YY     -54.4148
        XZ      -0.6030     YZ      -1.5861     ZZ     -58.4154
    Octopole Moments (Debye-Ang^2)
       XXX      -8.4761    XXY     -27.6366    XYY       0.1365
       YYY     -69.0494    XXZ      29.6367    XYZ      -0.8016
       YYZ      26.4827    XZZ       4.5871    YZZ     -22.1379
       ZZZ      76.9351
    Hexadecapole Moments (Debye-Ang^3)
      XXXX    -779.3671   XXXY     -95.5368   XXYY    -245.4209
      XYYY     -96.2794   YYYY    -710.4139   XXXZ     -21.3693
      XXYZ     -10.8780   XYYZ      -6.1148   YYYZ     -39.8150
      XXZZ    -180.4840   XYZZ     -28.6540   YYZZ    -157.6942
      XZZZ     -32.7703   YZZZ     -43.4531   ZZZZ    -239.6406
 -----------------------------------------------------------------
 Calculating analytic gradient of the SCF energy
 Gradient of SCF Energy
            1           2           3           4           5           6
    1   0.0000673   0.0000175  -0.0000210   0.0000123  -0.0000230   0.0000079
    2  -0.0000405   0.0000121  -0.0000106   0.0000147   0.0000204  -0.0000066
    3  -0.0000854   0.0000150   0.0000070  -0.0000310  -0.0000055  -0.0000002
            7           8           9          10          11          12
    1   0.0000033   0.0000031   0.0000215  -0.0000725   0.0000297  -0.0001481
    2   0.0000069  -0.0000082  -0.0000240   0.0000257   0.0000694  -0.0001580
    3  -0.0000167   0.0000127  -0.0000151   0.0000176  -0.0000254   0.0000705
           13
    1   0.0001022
    2   0.0000987
    3   0.0000565
 Max gradient component =       1.580E-04
 RMS gradient           =       5.233E-05
 Gradient time:  CPU 19.47 s  wall 1.67 s
 Geometry Optimization Parameters
   NAtoms,    NIC,     NZ,  NCons,   NDum,   NFix, NCnnct, MaxDiis
       13      94       0       1       0       0       0       0

 Cartesian Hessian Update
 Hessian Updated using BFGS Update


** CONSTRAINED OPTIMIZATION IN DELOCALIZED INTERNAL COORDINATES **
   Searching for a Minimum

   Optimization Cycle:   3

                       Coordinates (Angstroms)
     ATOM                X               Y               Z
      1  C         0.0369763197    1.0121586646   -0.7187080550
      2  H         0.1787593171    1.4751390856   -1.6977764665
      3  C         0.4318835848    1.9589732935    0.4100221948
      4  H        -0.3178921440    2.7612229047    0.4212271920
      5  H         0.3327548751    1.4398788169    1.3698185804
      6  C         1.8297523620    2.5699077601    0.2637492748
      7  H         2.0177418131    3.2847184565    1.0706243568
      8  H         2.6100488590    1.8040837027    0.3020774140
      9  H         1.9323238213    3.1055225277   -0.6863944785
     10  Se       -1.7509663150    0.2231634365   -0.6030820467
     11  H        -2.5809446715   -3.5381210089    0.0083714291
     12  Se        1.1240467995   -0.6632169976   -0.8499327205
     13  H         0.9877123788   -0.9845336424    0.5835033253
   Point Group: c1    Number of degrees of freedom:    33


   Energy is  -4921.607501504

              Constraints and their Current Values
                                        Value     Constraint
   Distance(Angs):       10  11             3.900000     3.900000
 Hessian Updated using BFGS Update

 32 Hessian modes will be used to form the next step
  Hessian Eigenvalues:
     0.004666    0.045001    0.045071    0.047662    0.063195    0.066890
     0.076576    0.076981    0.078081    0.082347    0.083379    0.097896
     0.105987    0.124649    0.133849    0.136997    0.153722    0.160000
     0.160000    0.160451    0.168526    0.179952    0.190195    0.220069
     0.291913    0.299226    0.338954    0.341647    0.341824    0.343306
     0.343723    0.345546

 Minimum Search - Taking Simple RFO Step
 Searching for Lamda that Minimizes Along All modes
 Value Taken    Lamda =  -0.00001923
 Step Taken.  Stepsize is  0.063501

                             Maximum     Tolerance    Cnvgd?
         Gradient           0.000171      0.000300     YES
         Displacement       0.038056      0.001200      NO
         Energy change     -0.000001      0.000001      NO


 New Cartesian Coordinates Obtained by Inverse Iteration

 Displacement from previous Coordinates is:  0.108663
 ----------------------------------------------------------------
             Standard Nuclear Orientation (Angstroms)
    I     Atom           X                Y                Z
 ----------------------------------------------------------------
    1      C       0.0442244582     1.0110466445    -0.7209207246
    2      H       0.1874253031     1.4752895516    -1.6993508253
    3      C       0.4329564327     1.9575167362     0.4102408788
    4      H      -0.3215000488     2.7553946068     0.4228974220
    5      H       0.3364513957     1.4353771465     1.3686183663
    6      C       1.8273791715     2.5767888280     0.2667073279
    7      H       2.0105964397     3.2899648169     1.0761268033
    8      H       2.6119074261     1.8151924744     0.3032561104
    9      H       1.9275898650     3.1162193643    -0.6815298771
   10      Se     -1.7401218303     0.2137361564    -0.6106651041
   11      H      -2.6064063217    -3.5343045983     0.0310059840
   12      Se      1.1403269359    -0.6573790918    -0.8589541411
   13      H       0.9813677729    -1.0059456356     0.5660677795
 ----------------------------------------------------------------
 Nuclear Repulsion Energy =   602.8852418709 hartrees
 There are       48 alpha and       46 beta electrons

                       Distance Matrix (Angstroms)
             C (  1)   H (  2)   C (  3)   H (  4)   H (  5)   C (  6)
   H (  2)  1.092407
   C (  3)  1.525269  2.177890
   H (  4)  2.117740  2.530141  1.098168
   H (  5)  2.152121  3.071846  1.095642  1.752066
   C (  6)  2.570330  2.787137  1.532486  2.161938  2.177130
   H (  7)  3.505634  3.784214  2.169740  2.480151  2.515514  1.094234
   H (  8)  2.878990  3.162923  2.186213  3.082722  2.541054  1.094006
   H (  9)  2.824955  2.599381  2.183686  2.531474  3.091935  1.095528
   Se( 10)  1.957486  2.547978  2.967371  3.088813  3.118032  4.368165
   H ( 11)  5.315210  5.991299  6.288215  6.703334  5.928520  7.553772
   Se( 12)  2.001034  2.482451  2.991473  3.927735  3.160368  3.492706
   H ( 13)  2.569598  3.452390  3.017805  3.983170  2.649540  3.693418
             H (  7)   H (  8)   H (  9)   Se( 10)   H ( 11)   Se( 12)
   H (  8)  1.770270
   H (  9)  1.768173  1.769397
   Se( 10)  5.135790  4.726529  4.677771
   H ( 11)  8.305399  7.478104  8.080489  3.900000
   Se( 12)  4.481454  3.103207  3.858926  3.019516  4.806947
   H ( 13)  4.446832  3.269029  4.409544  3.206061  4.421653  1.475620

 
 Applying Cartesian multipole field
    Component          Value
    ---------          -----
     (2,0,0)        1.00000E-11
     (0,2,0)        2.00000E-11
     (0,0,2)       -3.00000E-11
 Nucleus-field energy     =     0.0000000111 hartrees
 Requested basis set is 6-31G(d,p)
 There are 52 shells and 155 basis functions
 A cutoff of  1.0D-14 yielded   1202 shell pairs
 There are     10889 function pairs
 Smallest overlap matrix eigenvalue = 6.74E-04
 Guess from superposition of atomic densities
 Warning:  Energy on first SCF cycle will be non-variational
 SAD guess density has 93.936381 electrons

 -----------------------------------------------------------------------
  General SCF calculation program by
  Eric Jon Sundstrom, Paul Horn, Yuezhi Mao, Dmitri Zuev, Alec White,
  David Stuck, Shaama M.S., Shane Yost, Joonho Lee, David Small,
  Daniel Levine, Susi Lehtola, Hugh Burton, Evgeny Epifanovsky
 -----------------------------------------------------------------------
 Exchange:     0.2000 Hartree-Fock + 0.0800 Slater + 0.7200 B88
 Correlation:  0.1900 VWN1RPA + 0.8100 LYP
 Using SG-1 standard quadrature grid
 using 12 threads for integral computing
 -------------------------------------------------------
 OpenMP Integral computing Module                
 Release: version 1.0, May 2013, Q-Chem Inc. Pittsburgh 
 -------------------------------------------------------
 -------------------------------------------------------
 OpenMP BLAS3 based DFT computing Module                
 Release: version 1.0, May 2013, Q-Chem Inc. Pittsburgh 
 -------------------------------------------------------
 A unrestricted SCF calculation will be
 performed using DIIS
 SCF converges when DIIS error is below 1.0e-06
 Alpha HF Exchange    Energy = -18.85768293053009
 Beta HF Exchange     Energy = -18.85768293053009
 DFT Correlation      Energy =  -5.13401148578218
 DFT Exchange         Energy = -149.86730423894602
 One-Electron (alpha) Energy = -4020.50483778249145
 One-Electron (beta)  Energy = -4020.50483778249145
 Total Coulomb        Energy = 2703.00741617776430
 ---------------------------------------
  Cycle       Energy         DIIS error
 ---------------------------------------
    1   -4927.8336990910      1.50e-01  
 Alpha HF Exchange    Energy = -19.04747983302851
 Beta HF Exchange     Energy = -18.88260528916449
 DFT Correlation      Energy =  -5.16893549098536
 DFT Exchange         Energy = -151.00294733607424
 One-Electron (alpha) Energy = -4049.85652269982938
 One-Electron (beta)  Energy = -4010.37014567583356
 Total Coulomb        Energy = 2729.98139912698116
    2   -4921.4619953159      9.32e-03  
 Alpha HF Exchange    Energy = -18.91905638839399
 Beta HF Exchange     Energy = -18.76668281282324
 DFT Correlation      Energy =  -5.12803173552972
 DFT Exchange         Energy = -150.00042870127047
 One-Electron (alpha) Energy = -4035.86040375620087
 One-Electron (beta)  Energy = -3997.58189584158299
 Total Coulomb        Energy = 2701.91628322857059
    3   -4921.4549741252      3.76e-03  
 Alpha HF Exchange    Energy = -19.02653946049453
 Beta HF Exchange     Energy = -18.86157125063929
 DFT Correlation      Energy =  -5.16177826116925
 DFT Exchange         Energy = -150.82557905891019
 One-Electron (alpha) Energy = -4046.78449584256168
 One-Electron (beta)  Energy = -4007.43601498678254
 Total Coulomb        Energy = 2723.74150379994580
    4   -4921.4692331786      3.28e-03  
 Alpha HF Exchange    Energy = -18.99332867053078
 Beta HF Exchange     Energy = -18.83452732317408
 DFT Correlation      Energy =  -5.14914471864540
 DFT Exchange         Energy = -150.56611439045730
 One-Electron (alpha) Energy = -4043.84199382208180
 One-Electron (beta)  Energy = -4004.83482657237528
 Total Coulomb        Energy = 2717.74124930100425
    5   -4921.5934443143      1.08e-03  
 Alpha HF Exchange    Energy = -18.98575117672420
 Beta HF Exchange     Energy = -18.82533876774299
 DFT Correlation      Energy =  -5.14820014612457
 DFT Exchange         Energy = -150.50572479068427
 One-Electron (alpha) Energy = -4042.99073310587210
 One-Electron (beta)  Energy = -4003.92419442970959
 Total Coulomb        Energy = 2715.88735512952007
    6   -4921.6073454053      7.57e-05  
 Alpha HF Exchange    Energy = -18.98483119224962
 Beta HF Exchange     Energy = -18.82466782715912
 DFT Correlation      Energy =  -5.14774577659421
 DFT Exchange         Energy = -150.49831372906303
 One-Electron (alpha) Energy = -4042.81037178943643
 One-Electron (beta)  Energy = -4003.75587332879104
 Total Coulomb        Energy = 2715.52913027991826
    7   -4921.6074314814      6.91e-05  
 Alpha HF Exchange    Energy = -18.98537350649855
 Beta HF Exchange     Energy = -18.82540297378791
 DFT Correlation      Energy =  -5.14786857562983
 DFT Exchange         Energy = -150.50307644107178
 One-Electron (alpha) Energy = -4042.90183047108940
 One-Electron (beta)  Energy = -4003.84902383421058
 Total Coulomb        Energy = 2715.71983665768494
    8   -4921.6074972626      2.80e-05  
 Alpha HF Exchange    Energy = -18.98546028738666
 Beta HF Exchange     Energy = -18.82550483981947
 DFT Correlation      Energy =  -5.14785440049665
 DFT Exchange         Energy = -150.50362041899780
 One-Electron (alpha) Energy = -4042.91240426909417
 One-Electron (beta)  Energy = -4003.85917642884033
 Total Coulomb        Energy = 2715.74126951755352
    9   -4921.6075092451      1.20e-05  
 Alpha HF Exchange    Energy = -18.98544272835970
 Beta HF Exchange     Energy = -18.82555305211858
 DFT Correlation      Energy =  -5.14786906539568
 DFT Exchange         Energy = -150.50370056709852
 One-Electron (alpha) Energy = -4042.90592078996633
 One-Electron (beta)  Energy = -4003.85667623723975
 Total Coulomb        Energy = 2715.73240869790789
   10   -4921.6075118603      5.22e-06  
 Alpha HF Exchange    Energy = -18.98542447439109
 Beta HF Exchange     Energy = -18.82555700120019
 DFT Correlation      Energy =  -5.14785106111308
 DFT Exchange         Energy = -150.50358690417130
 One-Electron (alpha) Energy = -4042.90280708158525
 One-Electron (beta)  Energy = -4003.85563654886255
 Total Coulomb        Energy = 2715.72810871489355
   11   -4921.6075124744      6.83e-07  Convergence criterion met
 ---------------------------------------
 SCF time:   CPU 53.95s  wall 5.00s 
<S^2> =          2.002918361
 Alpha HF Exchange    Energy = -18.98542447439109
 Beta HF Exchange     Energy = -18.82555700120019
 DFT Correlation      Energy =  -5.14785106111308
 DFT Exchange         Energy = -150.50358690417130
 One-Electron (alpha) Energy = -4042.90280708158525
 One-Electron (beta)  Energy = -4003.85563654886255
 Total Coulomb        Energy = 2715.72810871489355
 Nuclear repulsion Energy = 602.88524188200699
 SCF   energy in the final basis set =    -4921.6075124744
 Total energy in the final basis set =    -4921.6075124744
 
 --------------------------------------------------------------
 
                    Orbital Energies (a.u.)
 --------------------------------------------------------------
 
 Alpha MOs
 -- Occupied --
*******-453.889 -58.121 -58.083 -52.178 -52.177 -52.175 -52.142
-52.140 -52.137 -10.260 -10.207 -10.189  -7.855  -7.817  -5.799
 -5.795  -5.788  -5.763  -5.760  -5.747  -2.133  -2.132  -2.126
 -2.123  -2.122  -2.097  -2.096  -2.087  -2.084  -2.082  -0.824
 -0.749  -0.691  -0.641  -0.582  -0.470  -0.444  -0.423  -0.399
 -0.384  -0.362  -0.351  -0.321  -0.308  -0.277  -0.225  -0.223
 -- Virtual --
 -0.024   0.026   0.027   0.093   0.116   0.136   0.148   0.163
  0.169   0.197   0.199   0.229   0.247   0.264   0.281   0.306
  0.312   0.323   0.349   0.433   0.435   0.473   0.494   0.527
  0.546   0.571   0.585   0.596   0.616   0.649   0.683   0.713
  0.736   0.744   0.785   0.804   0.831   0.851   0.864   0.883
  0.905   0.921   0.933   0.949   1.006   1.048   1.103   1.332
  1.386   1.439   1.533   1.561   1.610   1.639   1.718   1.784
  1.825   1.861   1.928   1.959   1.959   1.963   2.036   2.055
  2.058   2.070   2.091   2.105   2.124   2.162   2.241   2.289
  2.355   2.420   2.476   2.527   2.586   2.614   2.676   2.713
  2.755   2.817   2.873   2.896   3.182   3.274   3.302   3.412
  3.457   3.522   4.174   4.236   4.241   4.260   4.289   4.304
  4.349   4.379   4.396   4.412   4.497   4.510   4.623   5.437
  5.478  89.680  89.833
 
 Beta MOs
 -- Occupied --
*******-453.887 -58.121 -58.082 -52.178 -52.177 -52.175 -52.140
-52.138 -52.136 -10.260 -10.207 -10.189  -7.854  -7.814  -5.799
 -5.795  -5.787  -5.759  -5.755  -5.746  -2.132  -2.131  -2.125
 -2.122  -2.121  -2.093  -2.092  -2.084  -2.081  -2.080  -0.822
 -0.745  -0.681  -0.629  -0.576  -0.470  -0.443  -0.419  -0.396
 -0.382  -0.360  -0.346  -0.316  -0.254  -0.213
 -- Virtual --
 -0.135  -0.039  -0.020   0.029   0.033   0.094   0.116   0.138
  0.149   0.164   0.170   0.200   0.203   0.232   0.252   0.266
  0.286   0.312   0.321   0.337   0.355   0.436   0.445   0.477
  0.502   0.540   0.556   0.587   0.592   0.605   0.624   0.653
  0.697   0.717   0.744   0.791   0.807   0.835   0.852   0.864
  0.883   0.905   0.923   0.936   0.949   0.959   1.007   1.049
  1.105   1.332   1.387   1.441   1.537   1.565   1.612   1.641
  1.721   1.784   1.825   1.861   1.928   2.036   2.055   2.058
  2.070   2.091   2.106   2.124   2.162   2.188   2.190   2.191
  2.241   2.289   2.355   2.420   2.476   2.527   2.586   2.614
  2.676   2.713   2.755   2.817   2.873   2.896   3.182   3.274
  3.302   3.412   3.457   3.522   4.174   4.244   4.247   4.267
  4.295   4.307   4.352   4.382   4.401   4.414   4.499   4.514
  4.623   5.444   5.486  89.684  89.835
 --------------------------------------------------------------
 
          Ground-State Mulliken Net Atomic Charges

     Atom                 Charge (a.u.)    Spin (a.u.)
  --------------------------------------------------------
      1 C                    -0.232873      -0.030567
      2 H                     0.155674       0.001730
      3 C                    -0.171478       0.002396
      4 H                     0.122960      -0.000578
      5 H                     0.117957      -0.000314
      6 C                    -0.328618       0.000066
      7 H                     0.112642       0.000286
      8 H                     0.126879       0.000076
      9 H                     0.108663       0.000030
     10 Se                   -0.110277       0.823848
     11 H                     0.001437       0.996351
     12 Se                    0.019216       0.212509
     13 H                     0.077818      -0.005831
  --------------------------------------------------------
  Sum of atomic charges =     0.000000
  Sum of spin   charges =     2.000000

 -----------------------------------------------------------------
                    Cartesian Multipole Moments
 -----------------------------------------------------------------
    Charge (ESU x 10^10)
                -0.0000
    Dipole Moment (Debye)
         X       2.0515      Y       1.2587      Z       0.7513
       Tot       2.5214
    Quadrupole Moments (Debye-Ang)
        XX     -61.3836     XY       0.0073     YY     -54.3815
        XZ      -0.6480     YZ      -1.6092     ZZ     -58.4723
    Octopole Moments (Debye-Ang^2)
       XXX     -10.0586    XXY     -27.5853    XYY      -0.3604
       YYY     -69.0270    XXZ      29.7962    XYZ      -0.8475
       YYZ      26.8005    XZZ       4.1166    YZZ     -21.9678
       ZZZ      77.8927
    Hexadecapole Moments (Debye-Ang^3)
      XXXX    -779.7311   XXXY     -97.0092   XXYY    -245.4121
      XYYY     -97.6532   YYYY    -710.4416   XXXZ     -20.2963
      XXYZ     -10.8743   XYYZ      -5.7171   YYYZ     -40.0223
      XXZZ    -180.7777   XYZZ     -29.0208   YYZZ    -158.2337
      XZZZ     -31.7519   YZZZ     -43.8464   ZZZZ    -242.7777
 -----------------------------------------------------------------
 Calculating analytic gradient of the SCF energy
 Gradient of SCF Energy
            1           2           3           4           5           6
    1  -0.0001443   0.0002414   0.0000377  -0.0000020  -0.0000110  -0.0000014
    2   0.0000439  -0.0001678   0.0000531   0.0000153   0.0000106   0.0000048
    3   0.0000293  -0.0000664  -0.0000298  -0.0000440  -0.0000212  -0.0000004
            7           8           9          10          11          12
    1  -0.0000088   0.0000048   0.0000227  -0.0000733   0.0000343  -0.0000272
    2   0.0000051  -0.0000120  -0.0000226  -0.0000176   0.0000637   0.0000510
    3  -0.0000088   0.0000180  -0.0000085   0.0000893  -0.0000262   0.0000569
           13
    1  -0.0000729
    2  -0.0000275
    3   0.0000117
 Max gradient component =       2.414E-04
 RMS gradient           =       6.337E-05
 Gradient time:  CPU 19.55 s  wall 1.68 s
 Geometry Optimization Parameters
   NAtoms,    NIC,     NZ,  NCons,   NDum,   NFix, NCnnct, MaxDiis
       13      94       0       1       0       0       0       0

 Cartesian Hessian Update
 Hessian Updated using BFGS Update


** CONSTRAINED OPTIMIZATION IN DELOCALIZED INTERNAL COORDINATES **
   Searching for a Minimum

   Optimization Cycle:   4

                       Coordinates (Angstroms)
     ATOM                X               Y               Z
      1  C         0.0442244582    1.0110466445   -0.7209207246
      2  H         0.1874253031    1.4752895516   -1.6993508253
      3  C         0.4329564327    1.9575167362    0.4102408788
      4  H        -0.3215000488    2.7553946068    0.4228974220
      5  H         0.3364513957    1.4353771465    1.3686183663
      6  C         1.8273791715    2.5767888280    0.2667073279
      7  H         2.0105964397    3.2899648169    1.0761268033
      8  H         2.6119074261    1.8151924744    0.3032561104
      9  H         1.9275898650    3.1162193643   -0.6815298771
     10  Se       -1.7401218303    0.2137361564   -0.6106651041
     11  H        -2.6064063217   -3.5343045983    0.0310059840
     12  Se        1.1403269359   -0.6573790918   -0.8589541411
     13  H         0.9813677729   -1.0059456356    0.5660677795
   Point Group: c1    Number of degrees of freedom:    33


   Energy is  -4921.607512474

              Constraints and their Current Values
                                        Value     Constraint
   Distance(Angs):       10  11             3.900000     3.900000
 Hessian Updated using BFGS Update

 32 Hessian modes will be used to form the next step
  Hessian Eigenvalues:
     0.003542    0.045001    0.045121    0.048728    0.063334    0.066891
     0.076890    0.077833    0.079273    0.082362    0.083392    0.097905
     0.105987    0.124191    0.133871    0.136830    0.154439    0.160000
     0.160004    0.160456    0.168980    0.180119    0.190910    0.220068
     0.291919    0.299229    0.338957    0.341649    0.341824    0.343306
     0.343727    0.345577

 Minimum Search - Taking Simple RFO Step
 Searching for Lamda that Minimizes Along All modes
 Value Taken    Lamda =  -0.00000309
 Step Taken.  Stepsize is  0.022102

                             Maximum     Tolerance    Cnvgd?
         Gradient           0.000208      0.000300     YES
         Displacement       0.010798      0.001200      NO
         Energy change     -0.000011      0.000001      NO


 New Cartesian Coordinates Obtained by Inverse Iteration

 Displacement from previous Coordinates is:  0.044237
 ----------------------------------------------------------------
             Standard Nuclear Orientation (Angstroms)
    I     Atom           X                Y                Z
 ----------------------------------------------------------------
    1      C       0.0473026746     1.0103489801    -0.7222106442
    2      H       0.1897916386     1.4759525881    -1.7001215431
    3      C       0.4332917715     1.9564522446     0.4101616147
    4      H      -0.3232030674     2.7523988349     0.4234429311
    5      H       0.3378066951     1.4329958831     1.3679171909
    6      C       1.8262716484     2.5792725376     0.2680223794
    7      H       2.0073568023     3.2917473282     1.0785393806
    8      H       2.6125731157     1.8194735371     0.3039952463
[...]
   H (  8)  2.881858  3.164746  2.186753  3.082122  2.542085  1.093751
   H (  9)  2.827328  2.602090  2.183772  2.530221  3.092173  1.095544
   Se( 10)  1.957780  2.546088  2.965672  3.083286  3.118378  4.367775
   H ( 11)  5.563284  6.287694  6.371700  6.603201  5.953121  7.769198
   Se( 12)  2.000731  2.483678  2.992547  3.928720  3.158859  3.499328
   H ( 13)  2.571742  3.457148  3.037466  3.995091  2.666561  3.733426
             H (  7)   H (  8)   H (  9)   Se( 10)   H ( 11)   Se( 12)
   H (  8)  1.769809
   H (  9)  1.767636  1.769377
   Se( 10)  5.133636  4.731127  4.676369
   H ( 11)  8.417815  7.849594  8.327163  3.900000
   Se( 12)  4.487402  3.113174  3.868045  3.023395  5.468555
   H ( 13)  4.488026  3.321001  4.447291  3.185292  4.926229  1.476417

 
 Applying Cartesian multipole field
    Component          Value
    ---------          -----
     (2,0,0)        1.00000E-11
     (0,2,0)        2.00000E-11
     (0,0,2)       -3.00000E-11
 Nucleus-field energy     =     0.0000000093 hartrees
 Requested basis set is 6-31G(d,p)
 There are 52 shells and 155 basis functions
 A cutoff of  1.0D-14 yielded   1197 shell pairs
 There are     10855 function pairs
 Smallest overlap matrix eigenvalue = 6.74E-04
 Guess from superposition of atomic densities
 Warning:  Energy on first SCF cycle will be non-variational
 SAD guess density has 93.936381 electrons

 -----------------------------------------------------------------------
  General SCF calculation program by
  Eric Jon Sundstrom, Paul Horn, Yuezhi Mao, Dmitri Zuev, Alec White,
  David Stuck, Shaama M.S., Shane Yost, Joonho Lee, David Small,
  Daniel Levine, Susi Lehtola, Hugh Burton, Evgeny Epifanovsky
 -----------------------------------------------------------------------
 Exchange:     0.2000 Hartree-Fock + 0.0800 Slater + 0.7200 B88
 Correlation:  0.1900 VWN1RPA + 0.8100 LYP
 Using SG-1 standard quadrature grid
 using 12 threads for integral computing
 -------------------------------------------------------
 OpenMP Integral computing Module                
 Release: version 1.0, May 2013, Q-Chem Inc. Pittsburgh 
 -------------------------------------------------------
 -------------------------------------------------------
 OpenMP BLAS3 based DFT computing Module                
 Release: version 1.0, May 2013, Q-Chem Inc. Pittsburgh 
 -------------------------------------------------------
 A unrestricted SCF calculation will be
 performed using DIIS
 SCF converges when DIIS error is below 1.0e-06
 Alpha HF Exchange    Energy = -18.85752000257983
 Beta HF Exchange     Energy = -18.85752000257983
 DFT Correlation      Energy =  -5.13391765761645
 DFT Exchange         Energy = -149.86709278732025
 One-Electron (alpha) Energy = -4019.64947434827036
 One-Electron (beta)  Energy = -4019.64947434827036
 Total Coulomb        Energy = 2702.15579403832726
 ---------------------------------------
  Cycle       Energy         DIIS error
 ---------------------------------------
    1   -4927.8305256509      1.50e-01  
 Alpha HF Exchange    Energy = -19.04722112705233
 Beta HF Exchange     Energy = -18.88257657927998
 DFT Correlation      Energy =  -5.16887818126055
 DFT Exchange         Energy = -151.00231287414928
 One-Electron (alpha) Energy = -4048.74882947559081
 One-Electron (beta)  Energy = -4009.78536045324245
 Total Coulomb        Energy = 2729.14461162332645
    2   -4921.4618876099      9.32e-03  
 Alpha HF Exchange    Energy = -18.91885950415139
 Beta HF Exchange     Energy = -18.76632511538891
 DFT Correlation      Energy =  -5.12804230418300
 DFT Exchange         Energy = -149.99857505033503
 One-Electron (alpha) Energy = -4034.73116700352102
 One-Electron (beta)  Energy = -3996.93780060040990
 Total Coulomb        Energy = 2700.99772457478957
    3   -4921.4543655458      3.76e-03  
 Alpha HF Exchange    Energy = -19.02648246372459
 Beta HF Exchange     Energy = -18.86162139145468
 DFT Correlation      Energy =  -5.16171342702908
 DFT Exchange         Energy = -150.82589255926675
 One-Electron (alpha) Energy = -4045.67256693110039
 One-Electron (beta)  Energy = -4006.86635941029635
 Total Coulomb        Energy = 2722.91815259703981
    4   -4921.4678041285      3.29e-03  
 Alpha HF Exchange    Energy = -18.99326757022102
 Beta HF Exchange     Energy = -18.83458673977115
 DFT Correlation      Energy =  -5.14909999692987
 DFT Exchange         Energy = -150.56620463722899
 One-Electron (alpha) Energy = -4042.72493115657699
 One-Electron (beta)  Energy = -4004.24787467744636
 Total Coulomb        Energy = 2716.89394719842085
    5   -4921.5933381224      1.09e-03  
 Alpha HF Exchange    Energy = -18.98561710538520
 Beta HF Exchange     Energy = -18.82530712182673
 DFT Correlation      Energy =  -5.14811186189999
 DFT Exchange         Energy = -150.50519203686267
 One-Electron (alpha) Energy = -4041.86699619961064
 One-Electron (beta)  Energy = -4003.33430700967574
 Total Coulomb        Energy = 2715.02938683740376
    6   -4921.6074650405      7.59e-05  
 Alpha HF Exchange    Energy = -18.98469772965975
 Beta HF Exchange     Energy = -18.82465010036294
 DFT Correlation      Energy =  -5.14765484428901
 DFT Exchange         Energy = -150.49782120087144
 One-Electron (alpha) Energy = -4041.68468858856750
 One-Electron (beta)  Energy = -4003.16618264238195
 Total Coulomb        Energy = 2714.66945968873006
    7   -4921.6075559600      6.86e-05  
 Alpha HF Exchange    Energy = -18.98524588756120
 Beta HF Exchange     Energy = -18.82539174137034
 DFT Correlation      Energy =  -5.14777620702279
 DFT Exchange         Energy = -150.50261948550713
 One-Electron (alpha) Energy = -4041.77714481315934
 One-Electron (beta)  Energy = -4003.26040000136663
 Total Coulomb        Energy = 2714.86227760929796
    8   -4921.6076210693      2.83e-05  
 Alpha HF Exchange    Energy = -18.98532993987946
 Beta HF Exchange     Energy = -18.82549365570211
 DFT Correlation      Energy =  -5.14776132957324
 DFT Exchange         Energy = -150.50314905086850
 One-Electron (alpha) Energy = -4041.78704694497401
 One-Electron (beta)  Energy = -4003.27026560128388
 Total Coulomb        Energy = 2714.88273376998177
    9   -4921.6076332949      1.23e-05  
 Alpha HF Exchange    Energy = -18.98531249276881
 Beta HF Exchange     Energy = -18.82554374820384
 DFT Correlation      Energy =  -5.14777642151731
 DFT Exchange         Energy = -150.50323569898308
 One-Electron (alpha) Energy = -4041.78060689244194
 One-Electron (beta)  Energy = -4003.26791652435213
 Total Coulomb        Energy = 2714.87407631883843
   10   -4921.6076360020      5.34e-06  
 Alpha HF Exchange    Energy = -18.98529402566620
 Beta HF Exchange     Energy = -18.82554789422245
 DFT Correlation      Energy =  -5.14775806924082
 DFT Exchange         Energy = -150.50312072574386
 One-Electron (alpha) Energy = -4041.77743522047240
 One-Electron (beta)  Energy = -4003.26686903049585
 Total Coulomb        Energy = 2714.86970886926110
   11   -4921.6076366392      6.90e-07  Convergence criterion met
 ---------------------------------------
 SCF time:   CPU 52.81s  wall 4.00s 
<S^2> =          2.002882810
 Alpha HF Exchange    Energy = -18.98529402566620
 Beta HF Exchange     Energy = -18.82554789422245
 DFT Correlation      Energy =  -5.14775806924082
 DFT Exchange         Energy = -150.50312072574386
 One-Electron (alpha) Energy = -4041.77743522047240
 One-Electron (beta)  Energy = -4003.26686903049585
 Total Coulomb        Energy = 2714.86970886926110
 Nuclear repulsion Energy = 602.02867945738012
 SCF   energy in the final basis set =    -4921.6076366392
 Total energy in the final basis set =    -4921.6076366392
 
 --------------------------------------------------------------
 
                    Orbital Energies (a.u.)
 --------------------------------------------------------------
 
 Alpha MOs
 -- Occupied --
*******-453.889 -58.121 -58.084 -52.178 -52.177 -52.175 -52.142
-52.141 -52.137 -10.260 -10.207 -10.188  -7.854  -7.817  -5.799
 -5.795  -5.788  -5.764  -5.760  -5.748  -2.132  -2.132  -2.126
 -2.123  -2.121  -2.097  -2.097  -2.087  -2.085  -2.082  -0.824
 -0.749  -0.691  -0.641  -0.582  -0.470  -0.444  -0.423  -0.398
 -0.384  -0.362  -0.351  -0.321  -0.307  -0.277  -0.226  -0.223
 -- Virtual --
 -0.024   0.027   0.027   0.093   0.116   0.136   0.148   0.164
  0.169   0.197   0.200   0.230   0.247   0.264   0.280   0.305
  0.312   0.323   0.349   0.433   0.435   0.473   0.493   0.526
  0.546   0.570   0.585   0.597   0.616   0.650   0.682   0.714
  0.737   0.742   0.784   0.806   0.830   0.851   0.864   0.882
  0.905   0.921   0.934   0.948   1.006   1.047   1.104   1.332
  1.384   1.438   1.532   1.561   1.610   1.639   1.719   1.784
  1.825   1.861   1.928   1.958   1.958   1.963   2.036   2.055
  2.059   2.070   2.090   2.106   2.123   2.163   2.241   2.289
  2.355   2.420   2.476   2.527   2.586   2.614   2.676   2.714
  2.756   2.817   2.873   2.896   3.182   3.274   3.302   3.412
  3.457   3.523   4.174   4.235   4.241   4.259   4.290   4.304
  4.348   4.378   4.396   4.412   4.496   4.510   4.624   5.437
  5.477  89.682  89.830
 
 Beta MOs
 -- Occupied --
*******-453.887 -58.120 -58.083 -52.178 -52.177 -52.174 -52.140
-52.139 -52.137 -10.260 -10.207 -10.188  -7.853  -7.815  -5.798
 -5.794  -5.786  -5.760  -5.755  -5.747  -2.132  -2.131  -2.124
 -2.121  -2.120  -2.093  -2.092  -2.085  -2.082  -2.080  -0.822
 -0.745  -0.680  -0.629  -0.576  -0.469  -0.443  -0.419  -0.396
 -0.382  -0.360  -0.346  -0.316  -0.253  -0.213
 -- Virtual --
 -0.136  -0.041  -0.020   0.029   0.034   0.094   0.116   0.138
  0.149   0.164   0.170   0.199   0.202   0.232   0.252   0.266
  0.286   0.313   0.321   0.335   0.356   0.437   0.445   0.478
  0.501   0.540   0.556   0.587   0.592   0.605   0.624   0.653
  0.696   0.718   0.745   0.791   0.806   0.834   0.852   0.865
  0.883   0.905   0.923   0.936   0.948   0.959   1.008   1.048
  1.107   1.333   1.386   1.440   1.537   1.565   1.611   1.641
  1.721   1.784   1.825   1.862   1.928   2.036   2.055   2.058
  2.071   2.090   2.106   2.123   2.162   2.189   2.190   2.191
  2.241   2.289   2.355   2.420   2.476   2.527   2.586   2.614
  2.676   2.714   2.756   2.817   2.873   2.896   3.182   3.274
  3.302   3.412   3.457   3.523   4.174   4.243   4.248   4.266
  4.296   4.307   4.351   4.382   4.400   4.414   4.498   4.514
  4.624   5.444   5.486  89.686  89.832
 --------------------------------------------------------------
 
          Ground-State Mulliken Net Atomic Charges

     Atom                 Charge (a.u.)    Spin (a.u.)
  --------------------------------------------------------
      1 C                    -0.233645      -0.030024
      2 H                     0.155791       0.001830
      3 C                    -0.170811       0.002405
      4 H                     0.122652      -0.000632
      5 H                     0.117974      -0.000308
      6 C                    -0.329006       0.000059
      7 H                     0.112678       0.000284
      8 H                     0.127232       0.000098
      9 H                     0.108441       0.000029
     10 Se                   -0.109708       0.826242
     11 H                     0.001943       0.996011
     12 Se                    0.018313       0.209728
     13 H                     0.078146      -0.005722
  --------------------------------------------------------
  Sum of atomic charges =     0.000000
  Sum of spin   charges =     2.000000

 -----------------------------------------------------------------
                    Cartesian Multipole Moments
 -----------------------------------------------------------------
    Charge (ESU x 10^10)
                -0.0000
    Dipole Moment (Debye)
         X       1.8931      Y       1.3686      Z       0.8409
       Tot       2.4828
    Quadrupole Moments (Debye-Ang)
        XX     -60.6367     XY      -0.3862     YY     -54.3998
        XZ      -0.6878     YZ      -1.7082     ZZ     -58.8811
    Octopole Moments (Debye-Ang^2)
       XXX     -32.5349    XXY     -26.1606    XYY      -7.8008
       YYY     -63.2681    XXZ      33.9291    XYZ      -1.0663
       YYZ      30.8707    XZZ      -3.2917    YZZ     -18.7474
       ZZZ      91.8554
    Hexadecapole Moments (Debye-Ang^3)
      XXXX    -799.5698   XXXY    -119.6842   XXYY    -243.8718
      XYYY    -117.3051   YYYY    -693.1430   XXXZ       0.7209
      XXYZ     -12.5081   XYYZ       0.8386   YYYZ     -45.8269
      XXZZ    -190.3241   XYZZ     -35.6904   YYZZ    -162.7661
      XZZZ     -13.3737   YZZZ     -50.8555   ZZZZ    -292.9910
 -----------------------------------------------------------------
 Calculating analytic gradient of the SCF energy
 Gradient of SCF Energy
            1           2           3           4           5           6
    1  -0.0000970   0.0000245   0.0000068  -0.0000028  -0.0000329   0.0000116
    2   0.0000816  -0.0000255   0.0000205   0.0000080  -0.0000055  -0.0000064
    3   0.0000613  -0.0000183  -0.0000562  -0.0000075  -0.0000024   0.0000135
            7           8           9          10          11          12
    1  -0.0000326  -0.0000196   0.0000135   0.0000733   0.0000125  -0.0000023
    2   0.0000247  -0.0000040  -0.0000161  -0.0000445  -0.0000505   0.0000146
    3  -0.0000037   0.0000523  -0.0000031  -0.0000075  -0.0000085  -0.0000018
           13
    1   0.0000449
    2   0.0000030
    3  -0.0000180
 Max gradient component =       9.699E-05
 RMS gradient           =       3.384E-05
 Gradient time:  CPU 19.51 s  wall 1.70 s
 Geometry Optimization Parameters
   NAtoms,    NIC,     NZ,  NCons,   NDum,   NFix, NCnnct, MaxDiis
       13      94       0       1       0       0       0       0

 Cartesian Hessian Update
 Hessian Updated using BFGS Update


** CONSTRAINED OPTIMIZATION IN DELOCALIZED INTERNAL COORDINATES **
   Searching for a Minimum

   Optimization Cycle:  14

                       Coordinates (Angstroms)
     ATOM                X               Y               Z
      1  C         0.1435990158    0.9741705316   -0.7779868670
      2  H         0.2512569073    1.5005335008   -1.7292997682
      3  C         0.4392745922    1.8899056928    0.4061132480
      4  H        -0.3838012458    2.6154362239    0.4541918258
      5  H         0.3845285593    1.3098657744    1.3340190310
      6  C         1.7719826213    2.6403051076    0.3115110968
      7  H         1.8837964588    3.3222856496    1.1600112318
      8  H         2.6232499604    1.9535640324    0.3161906065
      9  H         1.8281603498    3.2382428896   -0.6047486341
     10  Se       -1.5693887367    0.0274329475   -0.7304064998
     11  H        -3.1272981926   -3.3894021648    0.3222834292
     12  Se        1.3800819423   -0.5844459854   -0.9895230764
     13  H         1.2067547679   -1.0489972001    0.4011443763
   Point Group: c1    Number of degrees of freedom:    33


   Energy is  -4921.607636639

              Constraints and their Current Values
                                        Value     Constraint
   Distance(Angs):       10  11             3.900000     3.900000
 Hessian Updated using BFGS Update

 32 Hessian modes will be used to form the next step
  Hessian Eigenvalues:
     0.000828    0.004701    0.006157    0.044991    0.059432    0.066222
     0.069049    0.077379    0.078178    0.082452    0.083257    0.085499
     0.098363    0.106011    0.134705    0.147457    0.149857    0.159965
     0.160403    0.160760    0.169313    0.180397    0.194572    0.220650
     0.292141    0.299403    0.338963    0.341684    0.341809    0.343329
     0.343794    0.345602

 Minimum Search - Taking Simple RFO Step
 Searching for Lamda that Minimizes Along All modes
 Value Taken    Lamda =  -0.00000219
 Step Taken.  Stepsize is  0.019371

                             Maximum     Tolerance    Cnvgd?
         Gradient           0.000132      0.000300     YES
         Displacement       0.008276      0.001200      NO
         Energy change     -0.000001      0.000001     YES


                       Distance Matrix (Angstroms)
             C (  1)   H (  2)   C (  3)   H (  4)   H (  5)   C (  6)
   H (  2)  1.092540
   C (  3)  1.525807  2.178750
   H (  4)  2.119002  2.532576  1.098253
   H (  5)  2.152047  3.072139  1.095652  1.751839
   C (  6)  2.571895  2.788655  1.532371  2.160643  2.177297
   H (  7)  3.506817  3.785774  2.169497  2.477865  2.515535  1.094327
   H (  8)  2.881858  3.164746  2.186753  3.082122  2.542085  1.093751
   H (  9)  2.827328  2.602090  2.183772  2.530221  3.092173  1.095544
   Se( 10)  1.957780  2.546088  2.965672  3.083286  3.118378  4.367775
   H ( 11)  5.563284  6.287694  6.371700  6.603201  5.953121  7.769198
   Se( 12)  2.000731  2.483678  2.992547  3.928720  3.158859  3.499328
   H ( 13)  2.571742  3.457148  3.037466  3.995091  2.666561  3.733426
             H (  7)   H (  8)   H (  9)   Se( 10)   H ( 11)   Se( 12)
   H (  8)  1.769809
   H (  9)  1.767636  1.769377
   Se( 10)  5.133636  4.731127  4.676369
   H ( 11)  8.417815  7.849594  8.327163  3.900000
   Se( 12)  4.487402  3.113174  3.868045  3.023395  5.468555
   H ( 13)  4.488026  3.321001  4.447291  3.185292  4.926229  1.476417

 
 Final energy is   -4921.60763663920     


 ******************************
 **  OPTIMIZATION CONVERGED  **
 ******************************

                       Coordinates (Angstroms)
     ATOM                X               Y               Z
      1  C         0.1435990158    0.9741705316   -0.7779868670
      2  H         0.2512569073    1.5005335008   -1.7292997682
      3  C         0.4392745922    1.8899056928    0.4061132480
      4  H        -0.3838012458    2.6154362239    0.4541918258
      5  H         0.3845285593    1.3098657744    1.3340190310
      6  C         1.7719826213    2.6403051076    0.3115110968
      7  H         1.8837964588    3.3222856496    1.1600112318
      8  H         2.6232499604    1.9535640324    0.3161906065
      9  H         1.8281603498    3.2382428896   -0.6047486341
     10  Se       -1.5693887367    0.0274329475   -0.7304064998
     11  H        -3.1272981926   -3.3894021648    0.3222834292
     12  Se        1.3800819423   -0.5844459854   -0.9895230764
     13  H         1.2067547679   -1.0489972001    0.4011443763

Z-matrix Print:
$molecule
0 3
Se
H  1 1.476417
C  1 2.000731 2 94.184935
H  3 1.092540 1 102.847462 2 174.031745 0
C  3 1.525807 1 115.456928 2 52.294165 0
H  5 1.095652 3 109.258055 1 -59.410615 0
H  5 1.098253 3 106.572378 1 -173.498017 0
C  5 1.532371 3 114.489302 1 65.503008 0
H  8 1.093751 5 111.663605 3 -63.625948 0
H  8 1.094327 5 110.253430 3 176.352106 0
H  8 1.095544 5 111.315457 3 56.960431 0
Se 3 1.957780 1 99.589803 2 -72.853328 0
H  12 3.900000 3 141.237153 1 29.559323 0
$end

PES scan, value:    3.9000 energy: -4921.6076366392
------- Summary of potential scan: ------ 
    3.9000     -4921.6076366392
----------------------------------------- 
Archival summary:
1\1\hpc0248\JobtypUnspecified\ProcedureUnspecified\6-31G**\e238(3)\knomura\ThuMar1404:00:492019ThuMar1404:00:492019\0\\#,JobtypUnspecified,ProcedureUnspecified,6-31G**,\\0,3\Se\H,1,1.47642\C,1,2.00073,2,94.1849\H,3,1.09254,1,102.847,2,174.032,0\C,3,1.52581,1,115.457,2,52.2942,0\H,5,1.09565,3,109.258,1,-59.4106,0\H,5,1.09825,3,106.572,1,-173.498,0\C,5,1.53237,3,114.489,1,65.503,0\H,8,1.09375,5,111.664,3,-63.6259,0\H,8,1.09433,5,110.253,3,176.352,0\H,8,1.09554,5,111.315,3,56.9604,0\Se,3,1.95778,1,99.5898,2,-72.8533,0\H,12,3.9,3,141.237,1,29.5593,0\\\@

 Total job time:  98.62s(wall), 1100.44s(cpu) 
 Thu Mar 14 04:00:49 2019

        *************************************************************
        *                                                           *
        *  Thank you very much for using Q-Chem.  Have a nice day.  *
        *                                                           *
        *************************************************************


