
Running Job 1 of 1 selenium/02/Se-H.xyz.data/inputs/bond_singlet_1.8.in
qchem selenium/02/Se-H.xyz.data/inputs/bond_singlet_1.8.in_32746.0 /staging/scratch/2868765/qchem32746/ 1
/usr/usc/qchem/5.1.1/exe/qcprog.exe_s selenium/02/Se-H.xyz.data/inputs/bond_singlet_1.8.in_32746.0 /staging/scratch/2868765/qchem32746/
Check license passed

                  Welcome to Q-Chem
     A Quantum Leap Into The Future Of Chemistry


 Q-Chem 5.1, Q-Chem, Inc., Pleasanton, CA (2018)

 Yihan Shao,  Zhengting Gan,  E. Epifanovsky,  A. T. B. Gilbert,  M. Wormit,  
 J. Kussmann,  A. W. Lange,  A. Behn,  Jia Deng,  Xintian Feng,  D. Ghosh,  
 M. Goldey,  P. R. Horn,  L. D. Jacobson,  I. Kaliman,  T. Kus,  A. Landau,  
 Jie Liu,  E. I. Proynov,  R. M. Richard,  R. P. Steele,  E. J. Sundstrom,  
 H. L. Woodcock III,  P. M. Zimmerman,  D. Zuev,  B. Albrecht,  E. Alguire,  
 S. A. Baeppler,  D. Barton,  Z. Benda,  Y. A. Bernard,  E. J. Berquist,  
 K. B. Bravaya,  H. Burton,  D. Casanova,  Chun-Min Chang,  Yunqing Chen,  
 A. Chien,  K. D. Closser,  M. P. Coons,  S. Coriani,  S. Dasgupta,  
 A. L. Dempwolff,  M. Diedenhofen,  Hainam Do,  R. G. Edgar,  Po-Tung Fang,  
 S. Faraji,  S. Fatehi,  Qingguo Feng,  K. D. Fenk,  J. Fosso-Tande,  
 Qinghui Ge,  A. Ghysels,  G. Gidofalvi,  J. Gomes,  J. Gonthier,  A. Gunina,  
 D. Hait,  M. W. D. Hanson-Heine,  P. H. P. Harbach,  A. W. Hauser,  
 J. E. Herr,  E. G. Hohenstein,  Z. C. Holden,  Kerwin Hui,  B. C. Huynh,  
 T.-C. Jagau,  Hyunjun Ji,  B. Kaduk,  K. Khistyaev,  Jaehoon Kim,  
 P. Klunzinger,  K. Koh,  D. Kosenkov,  L. Koulias,  T. Kowalczyk,  
 C. M. Krauter,  A. Kunitsa,  Ka Un Lao,  A. Laurent,  K. V. Lawler,  
 Joonho Lee,  D. Lefrancois,  S. Lehtola,  D. S. Levine,  Yi-Pei Li,  
 You-Sheng Lin,  Fenglai Liu,  E. Livshits,  A. Luenser,  P. Manohar,  
 E. Mansoor,  S. F. Manzer,  Shan-Ping Mao,  Yuezhi Mao,  N. Mardirossian,  
 A. V. Marenich,  T. Markovich,  L. A. Martinez-Martinez,  S. A. Maurer,  
 N. J. Mayhall,  S. C. McKenzie,  J.-M. Mewes,  A. F. Morrison,  
 J. W. Mullinax,  K. Nanda,  T. S. Nguyen-Beck,  R. Olivares-Amaya,  
 J. A. Parkhill,  T. M. Perrine,  F. Plasser,  P. Pokhilko,  S. Prager,  
 A. Prociuk,  E. Ramos,  D. R. Rehn,  F. Rob,  M. Schneider,  N. Sergueev,  
 S. M. Sharada,  S. Sharma,  D. W. Small,  T. Stauch,  T. Stein,  
 Yu-Chuan Su,  A. J. W. Thom,  A. Tkatchenko,  T. Tsuchimochi,  N. M. Tubman,  
 L. Vogt,  M. L. Vidal,  O. Vydrov,  M. A. Watson,  J. Wenzel,  
 M. de Wergifosse,  T. A. Wesolowski,  A. White,  J. Witte,  A. Yamada,  
 Jun Yang,  K. Yao,  S. Yeganeh,  S. R. Yost,  Zhi-Qiang You,  A. Zech,  
 Igor Ying Zhang,  Xing Zhang,  Yan Zhao,  Ying Zhu,  B. R. Brooks,  
 G. K. L. Chan,  C. J. Cramer,  M. S. Gordon,  W. J. Hehre,  A. Klamt,  
 M. W. Schmidt,  C. D. Sherrill,  D. G. Truhlar,  A. Aspuru-Guzik,  R. Baer,  
 A. T. Bell,  N. A. Besley,  Jeng-Da Chai,  A. E. DePrince, III,  
 R. A. DiStasio Jr.,  A. Dreuw,  B. D. Dunietz,  T. R. Furlani,  
 Chao-Ping Hsu,  Yousung Jung,  Jing Kong,  D. S. Lambrecht,  WanZhen Liang,  
 C. Ochsenfeld,  V. A. Rassolov,  L. V. Slipchenko,  J. E. Subotnik,  
 T. Van Voorhis,  J. M. Herbert,  A. I. Krylov,  P. M. W. Gill,  M. Head-Gordon

 Contributors to earlier versions of Q-Chem not listed above: 
 R. D. Adamson,  B. Austin,  J. Baker,  G. J. O. Beran,  K. Brandhorst,  
 S. T. Brown,  E. F. C. Byrd,  A. K. Chakraborty,  C.-L. Cheng,  
 Siu Hung Chien,  D. M. Chipman,  D. L. Crittenden,  H. Dachsel,  
 R. J. Doerksen,  A. D. Dutoi,  L. Fusti-Molnar,  W. A. Goddard III,  
 A. Golubeva-Zadorozhnaya,  S. R. Gwaltney,  G. Hawkins,  A. Heyden,  
 S. Hirata,  G. Kedziora,  F. J. Keil,  C. Kelley,  Jihan Kim,  R. A. King,  
 R. Z. Khaliullin,  P. P. Korambath,  W. Kurlancheek,  A. M. Lee,  M. S. Lee,  
 S. V. Levchenko,  Ching Yeh Lin,  D. Liotard,  R. C. Lochan,  I. Lotan,  
 P. E. Maslen,  N. Nair,  D. P. O'Neill,  D. Neuhauser,  E. Neuscamman,  
 C. M. Oana,  R. Olson,  B. Peters,  R. Peverati,  P. A. Pieniazek,  
 Y. M. Rhee,  J. Ritchie,  M. A. Rohrdanz,  E. Rosta,  N. J. Russ,  
 H. F. Schaefer III,  N. E. Schultz,  N. Shenvi,  A. C. Simmonett,  A. Sodt,  
 D. Stuck,  K. S. Thanthiriwatte,  V. Vanovschi,  Tao Wang,  A. Warshel,  
 C. F. Williams,  Q. Wu,  X. Xu,  W. Zhang

 Please cite Q-Chem as follows:
 Y. Shao et al., Mol. Phys. 113, 184-215 (2015)
 DOI: 10.1080/00268976.2014.952696

 Q-Chem 5.1.1 for Intel X86 EM64T Linux

 Parts of Q-Chem use Armadillo 8.300.2 (Tropical Shenanigans).
 http://arma.sourceforge.net/

 Q-Chem begins on Thu Mar 14 00:39:53 2019  

Host: 
0

     Scratch files written to /staging/scratch/2868765/qchem32746//
 Aug318 |scratch|qcdevops|jenkins|workspace|build_RNUM 6013   
Processing $rem in /usr/usc/qchem/5.1.1/config/preferences.
 MEM_TOTAL  2000 
Input Ideriv = 2
Curr. Ideriv = -1
Max.  Ideriv = 2

Checking the input file for inconsistencies... 	...done.

--------------------------------------------------------------
User input:
--------------------------------------------------------------

$comment
potential surface scanner
$end

$rem
JOBTYPE  PES_SCAN
UNRESTRICTED TRUE
SYM_IGNORE  TRUE
GEOM_OPT_MAX_CYCLES 400
SCF_MAX_CYCLES 400
METHOD   B3LYP
BASIS   6-31G**
PDB_PRINT 2
SCF_CONVERGENCE 6
THRESH 14
SCF_PRINT 1
$end
$molecule
0 1
C 0.071651 0.525879 -0.369259
H 0.127669 0.655103 -1.451751
C 0.365053 1.855844 0.341126
H -0.476136 2.534512 0.143762
H 0.388066 1.692448 1.424753
C 1.661148 2.529207 -0.119728
H 1.794371 3.486979 0.392872
H 2.531344 1.903049 0.093868
H 1.640810 2.728515 -1.197000
Se -1.803560 0.020325 0.069910
H -1.803723 -1.424904 -0.825251
Se 1.401072 -0.911291 -0.004978
H 0.934435 -1.146765 1.375176
$end
$scan
stre 10 11 1.800000 1.801000 0.100000
$end
--------------------------------------------------------------
 ----------------------------------------------------------------
             Standard Nuclear Orientation (Angstroms)
    I     Atom           X                Y                Z
 ----------------------------------------------------------------
    1      C       0.0716510000     0.5258790000    -0.3692590000
    2      H       0.1276690000     0.6551030000    -1.4517510000
    3      C       0.3650530000     1.8558440000     0.3411260000
    4      H      -0.4761360000     2.5345120000     0.1437620000
    5      H       0.3880660000     1.6924480000     1.4247530000
    6      C       1.6611480000     2.5292070000    -0.1197280000
    7      H       1.7943710000     3.4869790000     0.3928720000
    8      H       2.5313440000     1.9030490000     0.0938680000
    9      H       1.6408100000     2.7285150000    -1.1970000000
   10      Se     -1.8035600000     0.0203250000     0.0699100000
   11      H      -1.8037230000    -1.4249040000    -0.8252510000
   12      Se      1.4010720000    -0.9112910000    -0.0049780000
   13      H       0.9344350000    -1.1467650000     1.3751760000
 ----------------------------------------------------------------
 Nuclear Repulsion Energy =   594.9767324707 hartrees
 There are       47 alpha and       47 beta electrons
 Requested basis set is 6-31G(d,p)
 There are 52 shells and 155 basis functions

 Total QAlloc Memory Limit   2000 MB
 Mega-Array Size       188 MB
 MEM_STATIC part       192 MB
A total of 1 constraints
  
            1
    1   1.0100000
    2  10.0100000
    3  11.0100000
    4   1.8000000
    5   1.8010000
    6   0.1000000
    7   0.0000000
    8   0.0000000
    9   0.0000000
   10   0.0000000

                       Distance Matrix (Angstroms)
             C (  1)   H (  2)   C (  3)   H (  4)   H (  5)   C (  6)
   H (  2)  1.091616
   C (  3)  1.536079  2.170838
   H (  4)  2.144264  2.538192  1.098700
   H (  5)  2.163211  3.068903  1.096118  1.759788
   C (  6)  2.569453  2.763713  1.531557  2.153471  2.169407
   H (  7)  3.509519  3.768296  2.169384  2.474763  2.502561  1.094456
   H (  8)  2.856777  3.118327  2.180867  3.073462  2.531649  1.093132
   H (  9)  2.828254  2.579444  2.180583  2.513313  3.084865  1.095743
   Se( 10)  1.991198  2.539299  2.854045  2.844054  3.071615  4.281898
   H ( 11)  2.744178  2.906752  4.102113  4.287009  4.425420  5.304535
   Se( 12)  1.991361  2.483606  2.974922  3.926779  3.138434  3.452222
   H ( 13)  2.566162  3.448060  3.226316  4.130120  2.891731  4.034305
             H (  7)   H (  8)   H (  9)   Se( 10)   H ( 11)   Se( 12)
   H (  8)  1.772390
   H (  9)  1.768203  1.772226
   Se( 10)  5.006706  4.726163  4.561035
   H ( 11)  6.209404  5.541918  5.408687  1.700000
   Se( 12)  4.433706  3.034435  3.837522  3.338141  3.347739
   H ( 13)  4.814145  3.673314  4.704556  3.249990  3.523741  1.475813

 
 A cutoff of  1.0D-14 yielded   1243 shell pairs
 There are     11139 function pairs
 
 -------------------------------------------------------
 OpenMP Integral Computing Module                       
 Release: version 1.0, May 2013, Q-Chem Inc. Pittsburgh 
 -------------------------------------------------------
 Integral Job Info:
 Integral job number is                      11
 Integral operator is                         1
 short-range coefficients                     0
 long-range coefficients              100000000
 Omega coefficients                           0
 if combine SR and LR in K                    0
 Integral screening is                        0
 Integral computing path is                   2
 max size of driver memory is            800000
 size of driver memory is                593474
 size of scratch memory is             15267112
 max col of scratch BK array               1296
 max len of scratch array in speh3          155
 max len of scratch index in speh4           18
 max int batch size is                      520
 min int batch size is                       52
 fixed nKL is                                52
 max L of basis functions is                  2
 order of int derivative is                   0
 number of shells is                         52
 number of basis is                         155
 number of cartesian basis is               155
 number of contracted shell pairs          1243
 number of primitive shell pairs           5046
 maxK2 (contraction) of shell pair           36
 max number of K2 of shell pair               1
 max number of CS2 of shell pair             84
 max number of PS2 of shell pair            468
 mem total for path MDJ                  535932
 -------------------------------------------------------
 Smallest overlap matrix eigenvalue = 6.73E-04

 Scale SEOQF with 1.000000e-01/1.000000e-01/1.000000e+00

 Standard Electronic Orientation quadrupole field applied
 Nucleus-field energy     =     0.0000000057 hartrees
 Guess from superposition of atomic densities
 Warning:  Energy on first SCF cycle will be non-variational
 SAD guess density has 93.936381 electrons

 -----------------------------------------------------------------------
  General SCF calculation program by
  Eric Jon Sundstrom, Paul Horn, Yuezhi Mao, Dmitri Zuev, Alec White,
  David Stuck, Shaama M.S., Shane Yost, Joonho Lee, David Small,
  Daniel Levine, Susi Lehtola, Hugh Burton, Evgeny Epifanovsky
 -----------------------------------------------------------------------
 Exchange:     0.2000 Hartree-Fock + 0.0800 Slater + 0.7200 B88
 Correlation:  0.1900 VWN1RPA + 0.8100 LYP
 Using SG-1 standard quadrature grid
 using 12 threads for integral computing
 -------------------------------------------------------
 OpenMP Integral computing Module                
 Release: version 1.0, May 2013, Q-Chem Inc. Pittsburgh 
 -------------------------------------------------------
 -------------------------------------------------------
 OpenMP BLAS3 based DFT computing Module                
 Release: version 1.0, May 2013, Q-Chem Inc. Pittsburgh 
 -------------------------------------------------------
 A unrestricted SCF calculation will be
 performed using DIIS
 SCF converges when DIIS error is below 1.0e-06
 Alpha HF Exchange    Energy = -18.86939414540731
 Beta HF Exchange     Energy = -18.86939414540731
 DFT Correlation      Energy =  -5.14269897053787
 DFT Exchange         Energy = -149.89441214649787
 One-Electron (alpha) Energy = -4012.58450825552336
 One-Electron (beta)  Energy = -4012.58450825552336
 Total Coulomb        Energy = 2695.08038192010645
 ---------------------------------------
  Cycle       Energy         DIIS error
 ---------------------------------------
    1   -4927.8878015224      1.51e-01  
 Alpha HF Exchange    Energy = -18.97044582915388
 Beta HF Exchange     Energy = -18.97044582915390
 DFT Correlation      Energy =  -5.19680225224470
 DFT Exchange         Energy = -151.03438961555628
 One-Electron (alpha) Energy = -4023.21419113275988
 One-Electron (beta)  Energy = -4023.21419113276215
 Total Coulomb        Energy = 2724.04856653374964
    2   -4921.5751667815      9.34e-03  
 Alpha HF Exchange    Energy = -18.83309400878948
 Beta HF Exchange     Energy = -18.83309400878949
 DFT Correlation      Energy =  -5.15184665576057
 DFT Exchange         Energy = -149.92965446545998
 One-Electron (alpha) Energy = -4007.42009955536741
 One-Electron (beta)  Energy = -4007.42009955536923
 Total Coulomb        Energy = 2691.04940668980225
    3   -4921.5617490834      3.89e-03  
 Alpha HF Exchange    Energy = -18.95233567653751
 Beta HF Exchange     Energy = -18.95233567653754
 DFT Correlation      Energy =  -5.19129345057510
 DFT Exchange         Energy = -150.88150801372791
 One-Electron (alpha) Energy = -4020.97312052802545
 One-Electron (beta)  Energy = -4020.97312052802818
 Total Coulomb        Energy = 2719.33290517664500
    4   -4921.6140762204      3.04e-03  
 Alpha HF Exchange    Energy = -18.90736356474182
 Beta HF Exchange     Energy = -18.90736356474183
 DFT Correlation      Energy =  -5.17507719470407
 DFT Exchange         Energy = -150.51818497727987
 One-Electron (alpha) Energy = -4016.08235056559033
 One-Electron (beta)  Energy = -4016.08235056559079
 Total Coulomb        Energy = 2708.98801486090770
    5   -4921.7079430954      7.85e-04  
 Alpha HF Exchange    Energy = -18.90419964162150
 Beta HF Exchange     Energy = -18.90419964162155
 DFT Correlation      Energy =  -5.17538422635896
 DFT Exchange         Energy = -150.49678304733632
 One-Electron (alpha) Energy = -4015.75378276341053
 One-Electron (beta)  Energy = -4015.75378276341689
 Total Coulomb        Energy = 2708.29606537022164
    6   -4921.7153342372      1.00e-04  
 Alpha HF Exchange    Energy = -18.90327155876613
 Beta HF Exchange     Energy = -18.90327155876614
 DFT Correlation      Energy =  -5.17492870060850
 DFT Exchange         Energy = -150.48883710900162
 One-Electron (alpha) Energy = -4015.59778176751570
 One-Electron (beta)  Energy = -4015.59778176751570
 Total Coulomb        Energy = 2707.97369117026892
    7   -4921.7154488155      3.91e-05  
 Alpha HF Exchange    Energy = -18.90346115712546
 Beta HF Exchange     Energy = -18.90346115712549
 DFT Correlation      Energy =  -5.17493640522618
 DFT Exchange         Energy = -150.49030691816972
 One-Electron (alpha) Energy = -4015.62974857836025
 One-Electron (beta)  Energy = -4015.62974857836343
 Total Coulomb        Energy = 2708.03946389802195
    8   -4921.7154664200      1.02e-05  
 Alpha HF Exchange    Energy = -18.90351144532360
 Beta HF Exchange     Energy = -18.90351144532356
 DFT Correlation      Energy =  -5.17496948702035
 DFT Exchange         Energy = -150.49071940444699
 One-Electron (alpha) Energy = -4015.63782270188858
 One-Electron (beta)  Energy = -4015.63782270188449
 Total Coulomb        Energy = 2708.05615703286003
    9   -4921.7154676767      1.59e-06  
 Alpha HF Exchange    Energy = -18.90351127131268
 Beta HF Exchange     Energy = -18.90351127131266
 DFT Correlation      Energy =  -5.17497139893618
 DFT Exchange         Energy = -150.49071983375177
 One-Electron (alpha) Energy = -4015.63710115845606
 One-Electron (beta)  Energy = -4015.63710115845424
 Total Coulomb        Energy = 2708.05471591346350
   10   -4921.7154677024      6.64e-07  Convergence criterion met
 ---------------------------------------
 SCF time:   CPU 50.69s  wall 4.00s 
<S^2> =         -0.000000000
 Alpha HF Exchange    Energy = -18.90351127131268
 Beta HF Exchange     Energy = -18.90351127131266
 DFT Correlation      Energy =  -5.17497139893618
 DFT Exchange         Energy = -150.49071983375177
 One-Electron (alpha) Energy = -4015.63710115845606
 One-Electron (beta)  Energy = -4015.63710115845424
 Total Coulomb        Energy = 2708.05471591346350
 Nuclear repulsion Energy = 594.97673247636283
 SCF   energy in the final basis set =    -4921.7154677024
 Total energy in the final basis set =    -4921.7154677024
 
 --------------------------------------------------------------
 
                    Orbital Energies (a.u.)
 --------------------------------------------------------------
 
 Alpha MOs
 -- Occupied --
*******-453.900 -58.102 -58.096 -52.160 -52.159 -52.156 -52.153
-52.152 -52.149 -10.258 -10.206 -10.185  -7.835  -7.829  -5.780
 -5.777  -5.775  -5.771  -5.766  -5.761  -2.114  -2.114  -2.108
 -2.108  -2.105  -2.102  -2.100  -2.100  -2.096  -2.095  -0.818
 -0.737  -0.690  -0.640  -0.581  -0.467  -0.437  -0.432  -0.386
 -0.377  -0.360  -0.345  -0.342  -0.312  -0.242  -0.222
 -- Virtual --
 -0.039  -0.007   0.029   0.044   0.095   0.119   0.144   0.152
  0.166   0.171   0.193   0.223   0.227   0.243   0.275   0.287
  0.300   0.313   0.316   0.343   0.446   0.456   0.483   0.498
  0.519   0.553   0.589   0.600   0.620   0.630   0.651   0.665
  0.700   0.750   0.766   0.822   0.837   0.854   0.867   0.877
  0.904   0.915   0.932   0.943   0.958   1.009   1.051   1.120
  1.338   1.380   1.438   1.531   1.549   1.610   1.660   1.702
  1.776   1.829   1.869   1.953   2.021   2.040   2.044   2.060
  2.077   2.084   2.101   2.112   2.125   2.154   2.248   2.301
  2.355   2.431   2.440   2.486   2.529   2.595   2.623   2.675
  2.716   2.751   2.817   2.879   2.900   3.186   3.272   3.308
  3.411   3.461   3.527   4.182   4.253   4.271   4.308   4.330
  4.342   4.357   4.380   4.401   4.421   4.512   4.542   4.632
  5.456   5.479  89.725  89.832
 
 Beta MOs
 -- Occupied --
*******-453.900 -58.102 -58.096 -52.160 -52.159 -52.156 -52.153
-52.152 -52.149 -10.258 -10.206 -10.185  -7.835  -7.829  -5.780
 -5.777  -5.775  -5.771  -5.766  -5.761  -2.114  -2.114  -2.108
 -2.108  -2.105  -2.102  -2.100  -2.100  -2.096  -2.095  -0.818
 -0.737  -0.690  -0.640  -0.581  -0.467  -0.437  -0.432  -0.386
 -0.377  -0.360  -0.345  -0.342  -0.312  -0.242  -0.222
 -- Virtual --
 -0.039  -0.007   0.029   0.044   0.095   0.119   0.144   0.152
  0.166   0.171   0.193   0.223   0.227   0.243   0.275   0.287
  0.300   0.313   0.316   0.343   0.446   0.456   0.483   0.498
  0.519   0.553   0.589   0.600   0.620   0.630   0.651   0.665
  0.700   0.750   0.766   0.822   0.837   0.854   0.867   0.877
  0.904   0.915   0.932   0.943   0.958   1.009   1.051   1.120
  1.338   1.380   1.438   1.531   1.549   1.610   1.660   1.702
  1.776   1.829   1.869   1.953   2.021   2.040   2.044   2.060
  2.077   2.084   2.101   2.112   2.125   2.154   2.248   2.301
  2.355   2.431   2.440   2.486   2.529   2.595   2.623   2.675
  2.716   2.751   2.817   2.879   2.900   3.186   3.272   3.308
  3.411   3.461   3.527   4.182   4.253   4.271   4.308   4.330
  4.342   4.357   4.380   4.401   4.421   4.512   4.542   4.632
  5.456   5.479  89.725  89.832
 --------------------------------------------------------------
 
          Ground-State Mulliken Net Atomic Charges

     Atom                 Charge (a.u.)    Spin (a.u.)
  --------------------------------------------------------
      1 C                    -0.225908      -0.000000
      2 H                     0.153969       0.000000
      3 C                    -0.189545       0.000000
      4 H                     0.120821      -0.000000
      5 H                     0.120640      -0.000000
      6 C                    -0.328225      -0.000000
      7 H                     0.110727      -0.000000
      8 H                     0.137816      -0.000000
      9 H                     0.106338       0.000000
     10 Se                   -0.060193       0.000000
     11 H                     0.051777       0.000000
     12 Se                   -0.067445       0.000000
     13 H                     0.069228      -0.000000
  --------------------------------------------------------
  Sum of atomic charges =    -0.000000
  Sum of spin   charges =     0.000000

 -----------------------------------------------------------------
                    Cartesian Multipole Moments
 -----------------------------------------------------------------
    Charge (ESU x 10^10)
                -0.0000
    Dipole Moment (Debye)
         X       0.3812      Y       1.0002      Z      -0.0650
       Tot       1.0724
    Quadrupole Moments (Debye-Ang)
        XX     -61.5903     XY       2.0537     YY     -55.6361
        XZ       0.5344     YZ      -0.0854     ZZ     -56.0956
    Octopole Moments (Debye-Ang^2)
       XXX     -23.6133    XXY     -21.1201    XYY      -6.6909
       YYY     -42.7018    XXZ       0.4565    XYZ      -4.5002
       YYZ       2.5943    XZZ      -2.7240    YZZ     -16.6258
       ZZZ      -2.0207
    Hexadecapole Moments (Debye-Ang^3)
      XXXX    -823.3798   XXXY     -32.6686   XXYY    -233.2283
      XYYY     -37.8233   YYYY    -622.7031   XXXZ      -3.0233
      XXYZ       3.8826   XYYZ       7.3178   YYYZ      -0.4643
      XXZZ    -157.5049   XYZZ     -14.5883   YYZZ    -121.4590
      XZZZ       3.5922   YZZZ      -4.2911   ZZZZ    -110.0622
 -----------------------------------------------------------------
 Calculating analytic gradient of the SCF energy
 Gradient of SCF Energy
            1           2           3           4           5           6
    1   0.0000609  -0.0000328  -0.0001389   0.0000099  -0.0000062   0.0000420
    2  -0.0003000   0.0000453   0.0000327   0.0000208  -0.0000155   0.0000713
    3  -0.0000648   0.0000194   0.0001165  -0.0000338  -0.0000113   0.0000002
            7           8           9          10          11          12
    1  -0.0000673  -0.0000278  -0.0000396   0.0000579   0.0000428   0.0000509
    2   0.0000373   0.0000477  -0.0000072   0.0470159  -0.0470544   0.0000929
    3  -0.0000293   0.0000001  -0.0000093   0.0291045  -0.0290846  -0.0000151
           13
    1   0.0000484
    2   0.0000131
    3   0.0000074
 Max gradient component =       4.705E-02
 RMS gradient           =       1.252E-02
 Gradient time:  CPU 20.16 s  wall 1.71 s
 Geometry Optimization Parameters
   NAtoms,    NIC,     NZ,  NCons,   NDum,   NFix, NCnnct, MaxDiis
       13      82       0       1       0       0       0       0


** CONSTRAINED OPTIMIZATION IN DELOCALIZED INTERNAL COORDINATES **
   Searching for a Minimum

   Optimization Cycle:   1

                       Coordinates (Angstroms)
     ATOM                X               Y               Z
      1  C         0.0716510000    0.5258790000   -0.3692590000
      2  H         0.1276690000    0.6551030000   -1.4517510000
      3  C         0.3650530000    1.8558440000    0.3411260000
      4  H        -0.4761360000    2.5345120000    0.1437620000
      5  H         0.3880660000    1.6924480000    1.4247530000
      6  C         1.6611480000    2.5292070000   -0.1197280000
      7  H         1.7943710000    3.4869790000    0.3928720000
      8  H         2.5313440000    1.9030490000    0.0938680000
      9  H         1.6408100000    2.7285150000   -1.1970000000
     10  Se       -1.8035600000    0.0203250000    0.0699100000
     11  H        -1.8037230000   -1.4249040000   -0.8252510000
     12  Se        1.4010720000   -0.9112910000   -0.0049780000
     13  H         0.9344350000   -1.1467650000    1.3751760000
   Point Group: c1    Number of degrees of freedom:    33


   Energy is  -4921.715467702

              Constraints and their Current Values
                                        Value     Constraint
   Distance(Angs):       10  11             1.700000     1.800000

 Attempting to Generate Delocalized Internal Coordinates

   Using Lagrange Multiplier Algorithm


 34 Hessian modes will be used to form the next step
  Hessian Eigenvalues:
    -0.949226    0.045000    0.045000    0.045000    0.045000    0.067507
     0.078192    0.081041    0.082633    0.083511    0.084886    0.104962
     0.109622    0.133092    0.154046    0.154109    0.160000    0.160000
     0.160000    0.160000    0.160000    0.179719    0.199210    0.215632
     0.219658    0.288691    0.292801    0.338263    0.341151    0.341573
     0.343027    0.344532    0.346265    1.053490

 Minimum Search - Taking P-RFO Step
 Searching for Lamda that Maximizes Along the Constraint modes Only
 Value Taken    Lamda =   0.03127463
 Searching for Lamda that Minimizes Along All other modes
 Value Taken    Lamda =  -0.00763510
 Step Taken.  Stepsize is  0.184485

                             Maximum     Tolerance    Cnvgd?
         Gradient            0.188973       0.000300      NO
         Displacement        0.184476       0.001200      NO
         Energy change     *********       0.000001      NO


 New Cartesian Coordinates Obtained by Inverse Iteration

 Displacement from previous Coordinates is:  0.165368
 ----------------------------------------------------------------
             Standard Nuclear Orientation (Angstroms)
    I     Atom           X                Y                Z
 ----------------------------------------------------------------
    1      C       0.0680589057     0.5340450908    -0.3631295986
    2      H       0.1205775314     0.6620934672    -1.4459554187
    3      C       0.3692705905     1.8631343356     0.3452254802
    4      H      -0.4703271571     2.5446509904     0.1509261020
    5      H       0.3958997030     1.7002127430     1.4288514661
    6      C       1.6659797212     2.5313875129    -0.1209842762
    7      H       1.8048572490     3.4887826621     0.3908324927
    8      H       2.5346788314     1.9020516212     0.0894081609
    9      H       1.6422283979     2.7305365186    -1.1982197194
   10      Se     -1.8073155078     0.0349805694     0.0832424142
   11      H      -1.8158327867    -1.4935032154    -0.8628567371
   12      Se      1.3932337935    -0.9083171143    -0.0029402428
   13      H       0.9308907282    -1.1411541814     1.3790998766
 ----------------------------------------------------------------
 Nuclear Repulsion Energy =   594.2967484516 hartrees
 There are       47 alpha and       47 beta electrons

                       Distance Matrix (Angstroms)
             C (  1)   H (  2)   C (  3)   H (  4)   H (  5)   C (  6)
   H (  2)  1.091635
   C (  3)  1.535895  2.170870
   H (  4)  2.143980  2.538350  1.098700
   H (  5)  2.163012  3.068877  1.096129  1.759693
   C (  6)  2.569312  2.763707  1.531460  2.153583  2.169319
   H (  7)  3.509331  3.768390  2.169268  2.474955  2.502324  1.094463
   H (  8)  2.856649  3.118128  2.180814  3.073561  2.531644  1.093145
   H (  9)  2.828420  2.579777  2.180603  2.513491  3.084867  1.095747
   Se( 10)  1.991317  2.539387  2.854524  2.844392  3.072103  4.282235
   H ( 11)  2.812424  2.955721  4.183438  4.375481  4.510378  5.373373
   Se( 12)  1.991541  2.483573  2.975006  3.926770  3.138332  3.452520
   H ( 13)  2.566347  3.448079  3.226463  4.130010  2.891722  4.034622
             H (  7)   H (  8)   H (  9)   Se( 10)   H ( 11)   Se( 12)
   H (  8)  1.772346
   H (  9)  1.768183  1.772242
   Se( 10)  5.007110  4.726405  4.561526
   H ( 11)  6.285245  5.600317  5.469293  1.797620
   Se( 12)  4.433845  3.034732  3.838222  3.337777  3.373427
   H ( 13)  4.814229  3.673764  4.705164  3.249664  3.563006  1.475808

 
 Applying Cartesian multipole field
    Component          Value
    ---------          -----
     (2,0,0)        1.00000E-11
     (0,2,0)        2.00000E-11
     (0,0,2)       -3.00000E-10
 Nucleus-field energy     =     0.0000000056 hartrees
 Requested basis set is 6-31G(d,p)
 There are 52 shells and 155 basis functions
 A cutoff of  1.0D-14 yielded   1243 shell pairs
 There are     11139 function pairs
 Smallest overlap matrix eigenvalue = 6.73E-04
 Guess from superposition of atomic densities
 Warning:  Energy on first SCF cycle will be non-variational
 SAD guess density has 93.936381 electrons

 -----------------------------------------------------------------------
  General SCF calculation program by
  Eric Jon Sundstrom, Paul Horn, Yuezhi Mao, Dmitri Zuev, Alec White,
  David Stuck, Shaama M.S., Shane Yost, Joonho Lee, David Small,
  Daniel Levine, Susi Lehtola, Hugh Burton, Evgeny Epifanovsky
 -----------------------------------------------------------------------
 Exchange:     0.2000 Hartree-Fock + 0.0800 Slater + 0.7200 B88
 Correlation:  0.1900 VWN1RPA + 0.8100 LYP
 Using SG-1 standard quadrature grid
 using 12 threads for integral computing
 -------------------------------------------------------
 OpenMP Integral computing Module                
 Release: version 1.0, May 2013, Q-Chem Inc. Pittsburgh 
 -------------------------------------------------------
 -------------------------------------------------------
 OpenMP BLAS3 based DFT computing Module                
 Release: version 1.0, May 2013, Q-Chem Inc. Pittsburgh 
 -------------------------------------------------------
 A unrestricted SCF calculation will be
 performed using DIIS
 SCF converges when DIIS error is below 1.0e-06
 Alpha HF Exchange    Energy = -18.86649398709031
 Beta HF Exchange     Energy = -18.86649398709031
 DFT Correlation      Energy =  -5.14170002530959
 DFT Exchange         Energy = -149.88755062286722
 One-Electron (alpha) Energy = -4011.91926170748911
 One-Electron (beta)  Energy = -4011.91926170748911
 Total Coulomb        Energy = 2694.44652570712515
 ---------------------------------------
  Cycle       Energy         DIIS error
 ---------------------------------------
    1   -4927.8574878731      1.50e-01  
 Alpha HF Exchange    Energy = -18.96877185614122
 Beta HF Exchange     Energy = -18.96877185614125
 DFT Correlation      Energy =  -5.19607767319199
 DFT Exchange         Energy = -151.02447164066280
 One-Electron (alpha) Energy = -4022.66542493152292
 One-Electron (beta)  Energy = -4022.66542493152565
 Total Coulomb        Energy = 2723.63260840254088
    2   -4921.5595860295      9.35e-03  
 Alpha HF Exchange    Energy = -18.82951755394091
 Beta HF Exchange     Energy = -18.82951755394089
 DFT Correlation      Energy =  -5.14971316825618
 DFT Exchange         Energy = -149.90511591833805
 One-Electron (alpha) Energy = -4006.26488680664806
 One-Electron (beta)  Energy = -4006.26488680664534
 Total Coulomb        Energy = 2689.41300351844029
    3   -4921.5338858322      4.01e-03  
 Alpha HF Exchange    Energy = -18.95237344191335
 Beta HF Exchange     Energy = -18.95237344191334
 DFT Correlation      Energy =  -5.19133936376070
 DFT Exchange         Energy = -150.88471600167480
 One-Electron (alpha) Energy = -4020.74007796408068
 One-Electron (beta)  Energy = -4020.74007796408068
 Total Coulomb        Energy = 2719.57690003212474
    4   -4921.5873096882      3.18e-03  
 Alpha HF Exchange    Energy = -18.90514383195526
 Beta HF Exchange     Energy = -18.90514383195526
 DFT Correlation      Energy =  -5.17389925885518
 DFT Exchange         Energy = -150.50489046927237
 One-Electron (alpha) Energy = -4015.31444596907659
 One-Electron (beta)  Energy = -4015.31444596907659
 Total Coulomb        Energy = 2708.12479713665607
    5   -4921.6964237364      8.12e-04  
 Alpha HF Exchange    Energy = -18.90194021961293
 Beta HF Exchange     Energy = -18.90194021961292
 DFT Correlation      Energy =  -5.17422669847081
 DFT Exchange         Energy = -150.48305521126616
 One-Electron (alpha) Energy = -4015.02603348032426
 One-Electron (beta)  Energy = -4015.02603348032426
 Total Coulomb        Energy = 2707.51213723451292
    6   -4921.7043436180      1.13e-04  
 Alpha HF Exchange    Energy = -18.90113657631341
 Beta HF Exchange     Energy = -18.90113657631341
 DFT Correlation      Energy =  -5.17377934625240
 DFT Exchange         Energy = -150.47594561505335
 One-Electron (alpha) Energy = -4014.89283421603614
 One-Electron (beta)  Energy = -4014.89283421603659
 Total Coulomb        Energy = 2707.23644157474155
    7   -4921.7044765141      5.02e-05  
 Alpha HF Exchange    Energy = -18.90131256562701
 Beta HF Exchange     Energy = -18.90131256562702
 DFT Correlation      Energy =  -5.17379396611395
 DFT Exchange         Energy = -150.47738857748089
 One-Electron (alpha) Energy = -4014.91416897264708
 One-Electron (beta)  Energy = -4014.91416897265071
 Total Coulomb        Energy = 2707.28089016569857
    8   -4921.7045069973      1.25e-05  
 Alpha HF Exchange    Energy = -18.90139049055881
 Beta HF Exchange     Energy = -18.90139049055882
 DFT Correlation      Energy =  -5.17383188363023
 DFT Exchange         Energy = -150.47800178784416
 One-Electron (alpha) Energy = -4014.92866224764066
 One-Electron (beta)  Energy = -4014.92866224764293
 Total Coulomb        Energy = 2707.31068173760059
    9   -4921.7045089531      2.62e-06  
 Alpha HF Exchange    Energy = -18.90138519499076
 Beta HF Exchange     Energy = -18.90138519499077
 DFT Correlation      Energy =  -5.17383504301032
 DFT Exchange         Energy = -150.47796671273409
 One-Electron (alpha) Energy = -4014.92674216434443
 One-Electron (beta)  Energy = -4014.92674216434489
 Total Coulomb        Energy = 2707.30679899188544
   10   -4921.7045090254      7.55e-07  Convergence criterion met
 ---------------------------------------
 SCF time:   CPU 50.27s  wall 4.00s 
<S^2> =         -0.000000000
 Alpha HF Exchange    Energy = -18.90138519499076
 Beta HF Exchange     Energy = -18.90138519499077
 DFT Correlation      Energy =  -5.17383504301032
 DFT Exchange         Energy = -150.47796671273409
 One-Electron (alpha) Energy = -4014.92674216434443
 One-Electron (beta)  Energy = -4014.92674216434489
 Total Coulomb        Energy = 2707.30679899188544
 Nuclear repulsion Energy = 594.29674845713043
 SCF   energy in the final basis set =    -4921.7045090254
 Total energy in the final basis set =    -4921.7045090254
 
 --------------------------------------------------------------
 
                    Orbital Energies (a.u.)
 --------------------------------------------------------------
 
 Alpha MOs
 -- Occupied --
*******-453.900 -58.105 -58.096 -52.163 -52.162 -52.158 -52.153
-52.152 -52.149 -10.258 -10.207 -10.185  -7.837  -7.829  -5.783
 -5.779  -5.775  -5.770  -5.768  -5.761  -2.116  -2.116  -2.108
 -2.108  -2.107  -2.104  -2.102  -2.100  -2.096  -2.095  -0.818
 -0.737  -0.689  -0.639  -0.581  -0.468  -0.437  -0.430  -0.386
 -0.377  -0.360  -0.343  -0.339  -0.311  -0.242  -0.222
 -- Virtual --
 -0.052  -0.015   0.028   0.044   0.095   0.119   0.143   0.152
  0.166   0.171   0.193   0.225   0.227   0.242   0.275   0.287
  0.300   0.314   0.321   0.344   0.446   0.456   0.482   0.497
  0.520   0.553   0.590   0.598   0.617   0.630   0.645   0.666
  0.703   0.749   0.768   0.821   0.837   0.854   0.864   0.871
  0.899   0.913   0.928   0.941   0.949   1.009   1.051   1.120
  1.338   1.379   1.437   1.526   1.545   1.609   1.659   1.701
  1.776   1.829   1.868   1.953   2.019   2.032   2.042   2.060
  2.073   2.084   2.099   2.112   2.122   2.153   2.247   2.299
  2.352   2.366   2.438   2.484   2.528   2.594   2.623   2.674
  2.716   2.750   2.817   2.879   2.899   3.186   3.272   3.308
  3.411   3.461   3.527   4.182   4.245   4.270   4.305   4.328
  4.340   4.354   4.376   4.399   4.418   4.510   4.535   4.632
  5.459   5.480  89.733  89.835
 
 Beta MOs
 -- Occupied --
*******-453.900 -58.105 -58.096 -52.163 -52.162 -52.158 -52.153
-52.152 -52.149 -10.258 -10.207 -10.185  -7.837  -7.829  -5.783
 -5.779  -5.775  -5.770  -5.768  -5.761  -2.116  -2.116  -2.108
 -2.108  -2.107  -2.104  -2.102  -2.100  -2.096  -2.095  -0.818
 -0.737  -0.689  -0.639  -0.581  -0.468  -0.437  -0.430  -0.386
 -0.377  -0.360  -0.343  -0.339  -0.311  -0.242  -0.222
 -- Virtual --
 -0.052  -0.015   0.028   0.044   0.095   0.119   0.143   0.152
  0.166   0.171   0.193   0.225   0.227   0.242   0.275   0.287
  0.300   0.314   0.321   0.344   0.446   0.456   0.482   0.497
  0.520   0.553   0.590   0.598   0.617   0.630   0.645   0.666
  0.703   0.749   0.768   0.821   0.837   0.854   0.864   0.871
  0.899   0.913   0.928   0.941   0.949   1.009   1.051   1.120
  1.338   1.379   1.437   1.526   1.545   1.609   1.659   1.701
  1.776   1.829   1.868   1.953   2.019   2.032   2.042   2.060
  2.073   2.084   2.099   2.112   2.122   2.153   2.247   2.299
  2.352   2.366   2.438   2.484   2.528   2.594   2.623   2.674
  2.716   2.750   2.817   2.879   2.899   3.186   3.272   3.308
  3.411   3.461   3.527   4.182   4.245   4.270   4.305   4.328
  4.340   4.354   4.376   4.399   4.418   4.510   4.535   4.632
  5.459   5.480  89.733  89.835
 --------------------------------------------------------------
 
          Ground-State Mulliken Net Atomic Charges

     Atom                 Charge (a.u.)    Spin (a.u.)
  --------------------------------------------------------
      1 C                    -0.226412      -0.000000
      2 H                     0.154576       0.000000
      3 C                    -0.190565       0.000000
      4 H                     0.120838      -0.000000
      5 H                     0.120876      -0.000000
      6 C                    -0.327929       0.000000
      7 H                     0.110943      -0.000000
      8 H                     0.138149      -0.000000
      9 H                     0.106629      -0.000000
     10 Se                   -0.056676       0.000000
     11 H                     0.046318       0.000000
     12 Se                   -0.065819       0.000000
     13 H                     0.069073      -0.000000
  --------------------------------------------------------
  Sum of atomic charges =    -0.000000
  Sum of spin   charges =     0.000000

 -----------------------------------------------------------------
                    Cartesian Multipole Moments
 -----------------------------------------------------------------
    Charge (ESU x 10^10)
                -0.0000
    Dipole Moment (Debye)
         X       0.4084      Y       1.0704      Z      -0.0300
       Tot       1.1461
    Quadrupole Moments (Debye-Ang)
        XX     -61.6536     XY       1.9421     YY     -55.6378
        XZ       0.4549     YZ      -0.0659     ZZ     -56.1368
    Octopole Moments (Debye-Ang^2)
       XXX     -22.6358    XXY     -21.0775    XYY      -6.2397
       YYY     -43.5563    XXZ       0.4018    XYZ      -4.4986
       YYZ       2.2462    XZZ      -2.4569    YZZ     -16.9184
       ZZZ      -2.7578
    Hexadecapole Moments (Debye-Ang^3)
      XXXX    -824.7995   XXXY     -33.8579   XXYY    -233.9525
      XYYY     -38.1525   YYYY    -625.1119   XXXZ      -2.9661
      XXYZ       3.7403   XYYZ       7.6121   YYYZ      -0.7585
      XXZZ    -157.8319   XYZZ     -14.7521   YYZZ    -121.9495
      XZZZ       4.2589   YZZZ      -4.9018   ZZZZ    -110.9613
 -----------------------------------------------------------------
 Calculating analytic gradient of the SCF energy
 Gradient of SCF Energy
            1           2           3           4           5           6
    1   0.0000022   0.0000125   0.0002485  -0.0000319  -0.0000520  -0.0000985
    2   0.0003563   0.0000353  -0.0000059  -0.0001183  -0.0000388  -0.0000064
    3   0.0002145  -0.0000203  -0.0002343  -0.0000278  -0.0000149   0.0001211
            7           8           9          10          11          12
    1  -0.0000220   0.0000162  -0.0000199   0.0004722  -0.0005359  -0.0000791
    2   0.0000492   0.0000713   0.0000091   0.0536319  -0.0539682  -0.0000662
    3  -0.0000405  -0.0000059  -0.0000258   0.0335082  -0.0334693  -0.0000491
           13
    1   0.0000877
    2   0.0000508
    3   0.0000440
 Max gradient component =       5.397E-02
 RMS gradient           =       1.435E-02
 Gradient time:  CPU 19.74 s  wall 1.67 s
 Geometry Optimization Parameters
   NAtoms,    NIC,     NZ,  NCons,   NDum,   NFix, NCnnct, MaxDiis
       13      82       0       1       0       0       0       0

 Cartesian Hessian Update
 Hessian Updated using BFGS Update


** CONSTRAINED OPTIMIZATION IN DELOCALIZED INTERNAL COORDINATES **
   Searching for a Minimum

   Optimization Cycle:   2

                       Coordinates (Angstroms)
     ATOM                X               Y               Z
      1  C         0.0680589057    0.5340450908   -0.3631295986
      2  H         0.1205775314    0.6620934672   -1.4459554187
      3  C         0.3692705905    1.8631343356    0.3452254802
      4  H        -0.4703271571    2.5446509904    0.1509261020
      5  H         0.3958997030    1.7002127430    1.4288514661
      6  C         1.6659797212    2.5313875129   -0.1209842762
      7  H         1.8048572490    3.4887826621    0.3908324927
      8  H         2.5346788314    1.9020516212    0.0894081609
      9  H         1.6422283979    2.7305365186   -1.1982197194
     10  Se       -1.8073155078    0.0349805694    0.0832424142
     11  H        -1.8158327867   -1.4935032154   -0.8628567371
     12  Se        1.3932337935   -0.9083171143   -0.0029402428
     13  H         0.9308907282   -1.1411541814    1.3790998766
   Point Group: c1    Number of degrees of freedom:    33


   Energy is  -4921.704509025

              Constraints and their Current Values
                                        Value     Constraint
   Distance(Angs):       10  11             1.797620     1.800000
 Hessian Updated using BFGS Update

   Using Lagrange Multiplier Algorithm


 29 Hessian modes will be used to form the next step
  Hessian Eigenvalues:
    -0.977976    0.044999    0.045091    0.067509    0.078195    0.081041
     0.082634    0.083511    0.084887    0.104983    0.109620    0.133102
     0.154046    0.154132    0.160000    0.160300    0.179720    0.199310
     0.215633    0.219771    0.288727    0.292807    0.338264    0.341151
     0.341573    0.343027    0.344532    0.346267    1.022550

 Minimum Search - Taking P-RFO Step
 Searching for Lamda that Maximizes Along the Constraint modes Only
 Value Taken    Lamda =   0.00000463
 Searching for Lamda that Minimizes Along All other modes
 Value Taken    Lamda =  -0.00008064
 Step Taken.  Stepsize is  0.010988

                             Maximum     Tolerance    Cnvgd?
         Gradient            0.007636       0.000300      NO
         Displacement        0.007478       0.001200      NO
         Energy change      0.010959       0.000001      NO


 New Cartesian Coordinates Obtained by Inverse Iteration

 Displacement from previous Coordinates is:  0.021956
 ----------------------------------------------------------------
             Standard Nuclear Orientation (Angstroms)
    I     Atom           X                Y                Z
 ----------------------------------------------------------------
    1      C       0.0668792454     0.5350656959    -0.3632055327
    2      H       0.1196679434     0.6628084462    -1.4460068905
    3      C       0.3684264755     1.8639271119     0.3459976073
    4      H      -0.4702668466     2.5469844444     0.1528169581
    5      H       0.3959216417     1.7006433429     1.4295741642
    6      C       1.6656927459     2.5304065133    -0.1214555109
    7      H       1.8067042742     3.4872293560     0.3907896221
    8      H       2.5334143652     1.8992806169     0.0876358708
    9      H       1.6409522367     2.7300705982    -1.1985541708
   10      Se     -1.8084916983     0.0371898399     0.0820875842
   11      H      -1.8072798782    -1.4956813976    -0.8614713195
   12      Se      1.3923164016    -0.9071138465    -0.0028621849
   13      H       0.9282630935    -1.1419097213     1.3781538027
 ----------------------------------------------------------------
 Nuclear Repulsion Energy =   594.3395139921 hartrees
 There are       47 alpha and       47 beta electrons

                       Distance Matrix (Angstroms)
             C (  1)   H (  2)   C (  3)   H (  4)   H (  5)   C (  6)
   H (  2)  1.091588
   C (  3)  1.536155  2.171600
   H (  4)  2.145372  2.540547  1.098769
   H (  5)  2.163539  3.069590  1.096155  1.759740
   C (  6)  2.568274  2.762707  1.531537  2.153561  2.169451
   H (  7)  3.508671  3.767926  2.169276  2.474932  2.502253  1.094436
   H (  8)  2.854494  3.115621  2.180636  3.073413  2.531626  1.093151
   H (  9)  2.827288  2.578587  2.180634  2.513358  3.084944  1.095728
   Se( 10)  1.990774  2.538557  2.854048  2.845157  3.072822  4.281065
   H ( 11)  2.807966  2.951930  4.180747  4.377160  4.507713  5.368291
   Se( 12)  1.991611  2.483336  2.974680  3.927372  3.137686  3.450412
   H ( 13)  2.566430  3.447712  3.227045  4.131014  2.892428  4.034667
             H (  7)   H (  8)   H (  9)   Se( 10)   H ( 11)   Se( 12)
   H (  8)  1.772453
   H (  9)  1.768269  1.772283
   Se( 10)  5.006767  4.724358  4.559640
   H ( 11)  6.281595  5.591797  5.464514  1.800000
   Se( 12)  4.431358  3.030865  3.836745  3.338278  3.364675
   H ( 13)  4.814091  3.672981  4.705272  3.249598  3.553065  1.475696

 
 Applying Cartesian multipole field
    Component          Value
    ---------          -----
     (2,0,0)        1.00000E-11
     (0,2,0)        2.00000E-11
     (0,0,2)       -3.00000E-10
 Nucleus-field energy     =     0.0000000056 hartrees
 Requested basis set is 6-31G(d,p)
 There are 52 shells and 155 basis functions
 A cutoff of  1.0D-14 yielded   1244 shell pairs
 There are     11142 function pairs
 Smallest overlap matrix eigenvalue = 6.73E-04
 Guess from superposition of atomic densities
 Warning:  Energy on first SCF cycle will be non-variational
 SAD guess density has 93.936381 electrons

 -----------------------------------------------------------------------
  General SCF calculation program by
  Eric Jon Sundstrom, Paul Horn, Yuezhi Mao, Dmitri Zuev, Alec White,
  David Stuck, Shaama M.S., Shane Yost, Joonho Lee, David Small,
  Daniel Levine, Susi Lehtola, Hugh Burton, Evgeny Epifanovsky
 -----------------------------------------------------------------------
 Exchange:     0.2000 Hartree-Fock + 0.0800 Slater + 0.7200 B88
 Correlation:  0.1900 VWN1RPA + 0.8100 LYP
 Using SG-1 standard quadrature grid
 using 12 threads for integral computing
 -------------------------------------------------------
 OpenMP Integral computing Module                
 Release: version 1.0, May 2013, Q-Chem Inc. Pittsburgh 
 -------------------------------------------------------
 -------------------------------------------------------
 OpenMP BLAS3 based DFT computing Module                
 Release: version 1.0, May 2013, Q-Chem Inc. Pittsburgh 
 -------------------------------------------------------
 A unrestricted SCF calculation will be
 performed using DIIS
 SCF converges when DIIS error is below 1.0e-06
 Alpha HF Exchange    Energy = -18.86645740385915
 Beta HF Exchange     Energy = -18.86645740385915
 DFT Correlation      Energy =  -5.14170306075527
 DFT Exchange         Energy = -149.88744626948449
 One-Electron (alpha) Energy = -4011.96225388305538
 One-Electron (beta)  Energy = -4011.96225388305538
 Total Coulomb        Energy = 2694.48995998578494
 ---------------------------------------
  Cycle       Energy         DIIS error
 ---------------------------------------
    1   -4927.8570979207      1.50e-01  
 Alpha HF Exchange    Energy = -18.96874371281665
 Beta HF Exchange     Energy = -18.96874371281666
 DFT Correlation      Energy =  -5.19608363982814
 DFT Exchange         Energy = -151.02433114009997
 One-Electron (alpha) Energy = -4022.70773275063584
 One-Electron (beta)  Energy = -4022.70773275063721
 Total Coulomb        Energy = 2723.67462049348887
    2   -4921.5592332157      9.35e-03  
 Alpha HF Exchange    Energy = -18.82946060357430
 Beta HF Exchange     Energy = -18.82946060357432
 DFT Correlation      Energy =  -5.14969503040802
 DFT Exchange         Energy = -149.90472381725087
 One-Electron (alpha) Energy = -4006.30124925942391
 One-Electron (beta)  Energy = -4006.30124925942619
 Total Coulomb        Energy = 2689.44310755978131
    3   -4921.5332170162      4.01e-03  
 Alpha HF Exchange    Energy = -18.95237878176702
 Beta HF Exchange     Energy = -18.95237878176701
 DFT Correlation      Energy =  -5.19136418062614
 DFT Exchange         Energy = -150.88482025001881
 One-Electron (alpha) Energy = -4020.78885144822107
 One-Electron (beta)  Energy = -4020.78885144822016
 Total Coulomb        Energy = 2719.63253569235803
    4   -4921.5865952006      3.18e-03  
 Alpha HF Exchange    Energy = -18.90510917102800
 Beta HF Exchange     Energy = -18.90510917102804
 DFT Correlation      Energy =  -5.17389925956544
 DFT Exchange         Energy = -150.50471129352354
 One-Electron (alpha) Energy = -4015.35485520429984
 One-Electron (beta)  Energy = -4015.35485520430439
 Total Coulomb        Energy = 2708.16288086032546
    5   -4921.6961444458      8.12e-04  
 Alpha HF Exchange    Energy = -18.90190065348860
 Beta HF Exchange     Energy = -18.90190065348859
 DFT Correlation      Energy =  -5.17422583644204
 DFT Exchange         Energy = -150.48282819120806
 One-Electron (alpha) Energy = -4015.06729070732854
 One-Electron (beta)  Energy = -4015.06729070732808
 Total Coulomb        Energy = 2707.55186125524824
    6   -4921.7040614964      1.14e-04  
 Alpha HF Exchange    Energy = -18.90110032770244
 Beta HF Exchange     Energy = -18.90110032770244
 DFT Correlation      Energy =  -5.17377902395119
 DFT Exchange         Energy = -150.47574207834845
 One-Electron (alpha) Energy = -4014.93462111037434
 One-Electron (beta)  Energy = -4014.93462111037343
 Total Coulomb        Energy = 2707.27725523793379
    7   -4921.7041947429      5.06e-05  
 Alpha HF Exchange    Energy = -18.90127563649005
 Beta HF Exchange     Energy = -18.90127563649006
 DFT Correlation      Energy =  -5.17379360837466
 DFT Exchange         Energy = -150.47718196525869
 One-Electron (alpha) Energy = -4014.95561494250251
 One-Electron (beta)  Energy = -4014.95561494250387
 Total Coulomb        Energy = 2707.32101694909625
    8   -4921.7042257849      1.26e-05  
 Alpha HF Exchange    Energy = -18.90135444213317
 Beta HF Exchange     Energy = -18.90135444213317
 DFT Correlation      Energy =  -5.17383164547804
 DFT Exchange         Energy = -150.47780153822237
 One-Electron (alpha) Energy = -4014.97030926973184
 One-Electron (beta)  Energy = -4014.97030926973275
 Total Coulomb        Energy = 2707.35121883955071
    9   -4921.7042277703      2.66e-06  
 Alpha HF Exchange    Energy = -18.90134903760398
 Beta HF Exchange     Energy = -18.90134903760396
 DFT Correlation      Energy =  -5.17383487793565
 DFT Exchange         Energy = -150.47776577519249
 One-Electron (alpha) Energy = -4014.96836596390267
 One-Electron (beta)  Energy = -4014.96836596390131
 Total Coulomb        Energy = 2707.34728881369847
   10   -4921.7042278448      7.55e-07  Convergence criterion met
 ---------------------------------------
 SCF time:   CPU 49.19s  wall 4.00s 
<S^2> =         -0.000000000
 Alpha HF Exchange    Energy = -18.90134903760398
 Beta HF Exchange     Energy = -18.90134903760396
 DFT Correlation      Energy =  -5.17383487793565
 DFT Exchange         Energy = -150.47776577519249
 One-Electron (alpha) Energy = -4014.96836596390267
 One-Electron (beta)  Energy = -4014.96836596390131
 Total Coulomb        Energy = 2707.34728881369847
 Nuclear repulsion Energy = 594.33951399762759
 SCF   energy in the final basis set =    -4921.7042278448
 Total energy in the final basis set =    -4921.7042278448
 
 --------------------------------------------------------------
 
                    Orbital Energies (a.u.)
 --------------------------------------------------------------
 
 Alpha MOs
 -- Occupied --
*******-453.900 -58.105 -58.096 -52.163 -52.162 -52.159 -52.153
-52.152 -52.149 -10.258 -10.207 -10.185  -7.837  -7.829  -5.783
 -5.779  -5.775  -5.771  -5.768  -5.761  -2.116  -2.116  -2.108
 -2.108  -2.107  -2.104  -2.102  -2.100  -2.096  -2.095  -0.818
 -0.737  -0.689  -0.639  -0.581  -0.468  -0.437  -0.430  -0.386
 -0.377  -0.360  -0.343  -0.338  -0.312  -0.242  -0.222
 -- Virtual --
 -0.053  -0.015   0.028   0.044   0.095   0.119   0.143   0.152
  0.166   0.171   0.193   0.225   0.227   0.242   0.275   0.287
  0.299   0.314   0.321   0.344   0.446   0.456   0.482   0.497
  0.520   0.553   0.590   0.598   0.617   0.630   0.645   0.666
  0.704   0.749   0.768   0.821   0.837   0.854   0.864   0.871
  0.899   0.913   0.928   0.941   0.949   1.009   1.051   1.120
  1.338   1.379   1.438   1.525   1.544   1.609   1.659   1.700
  1.776   1.829   1.868   1.954   2.019   2.032   2.042   2.059
  2.073   2.084   2.100   2.112   2.122   2.153   2.247   2.299
  2.352   2.365   2.438   2.484   2.528   2.594   2.623   2.674
  2.716   2.750   2.817   2.879   2.899   3.186   3.272   3.307
  3.411   3.461   3.527   4.182   4.244   4.270   4.305   4.328
  4.340   4.354   4.376   4.399   4.418   4.510   4.534   4.632
  5.459   5.480  89.733  89.835
 
 Beta MOs
 -- Occupied --
*******-453.900 -58.105 -58.096 -52.163 -52.162 -52.159 -52.153
-52.152 -52.149 -10.258 -10.207 -10.185  -7.837  -7.829  -5.783
 -5.779  -5.775  -5.771  -5.768  -5.761  -2.116  -2.116  -2.108
 -2.108  -2.107  -2.104  -2.102  -2.100  -2.096  -2.095  -0.818
 -0.737  -0.689  -0.639  -0.581  -0.468  -0.437  -0.430  -0.386
 -0.377  -0.360  -0.343  -0.338  -0.312  -0.242  -0.222
 -- Virtual --
 -0.053  -0.015   0.028   0.044   0.095   0.119   0.143   0.152
  0.166   0.171   0.193   0.225   0.227   0.242   0.275   0.287
  0.299   0.314   0.321   0.344   0.446   0.456   0.482   0.497
  0.520   0.553   0.590   0.598   0.617   0.630   0.645   0.666
  0.704   0.749   0.768   0.821   0.837   0.854   0.864   0.871
  0.899   0.913   0.928   0.941   0.949   1.009   1.051   1.120
  1.338   1.379   1.438   1.525   1.544   1.609   1.659   1.700
  1.776   1.829   1.868   1.954   2.019   2.032   2.042   2.059
  2.073   2.084   2.100   2.112   2.122   2.153   2.247   2.299
  2.352   2.365   2.438   2.484   2.528   2.594   2.623   2.674
  2.716   2.750   2.817   2.879   2.899   3.186   3.272   3.307
  3.411   3.461   3.527   4.182   4.244   4.270   4.305   4.328
  4.340   4.354   4.376   4.399   4.418   4.510   4.534   4.632
  5.459   5.480  89.733  89.835
 --------------------------------------------------------------
 
          Ground-State Mulliken Net Atomic Charges

     Atom                 Charge (a.u.)    Spin (a.u.)
  --------------------------------------------------------
      1 C                    -0.226366       0.000000
      2 H                     0.154604       0.000000
      3 C                    -0.190575      -0.000000
      4 H                     0.120717      -0.000000
      5 H                     0.120931       0.000000
      6 C                    -0.327982      -0.000000
      7 H                     0.110854       0.000000
      8 H                     0.138174       0.000000
      9 H                     0.106610       0.000000
     10 Se                   -0.056577      -0.000000
     11 H                     0.046336      -0.000000
     12 Se                   -0.065889       0.000000
     13 H                     0.069161      -0.000000
  --------------------------------------------------------
  Sum of atomic charges =    -0.000000
  Sum of spin   charges =    -0.000000

 -----------------------------------------------------------------
                    Cartesian Multipole Moments
 -----------------------------------------------------------------
    Charge (ESU x 10^10)
                -0.0000
    Dipole Moment (Debye)
         X       0.4091      Y       1.0696      Z      -0.0259
       Tot       1.1455
    Quadrupole Moments (Debye-Ang)
        XX     -61.6590     XY       1.9193     YY     -55.6313
        XZ       0.4383     YZ      -0.0710     ZZ     -56.1513
    Octopole Moments (Debye-Ang^2)
       XXX     -22.4750    XXY     -21.0967    XYY      -6.2189
       YYY     -43.7684    XXZ       0.4440    XYZ      -4.4879
       YYZ       2.2809    XZZ      -2.3951    YZZ     -16.9764
       ZZZ      -2.6950
    Hexadecapole Moments (Debye-Ang^3)
      XXXX    -824.6754   XXXY     -33.8679   XXYY    -233.9539
      XYYY     -38.0663   YYYY    -624.9044   XXXZ      -3.1547
      XXYZ       3.7174   XYYZ       7.5660   YYYZ      -0.7664
      XXZZ    -157.8973   XYZZ     -14.6860   YYZZ    -121.9143
      XZZZ       4.1691   YZZZ      -4.9286   ZZZZ    -110.9919
 -----------------------------------------------------------------
 Calculating analytic gradient of the SCF energy
 Gradient of SCF Energy
            1           2           3           4           5           6
    1   0.0000373  -0.0000167   0.0000086  -0.0000157  -0.0000462  -0.0000586
    2   0.0000711  -0.0000421   0.0000067  -0.0000023   0.0000067  -0.0000750
    3  -0.0000415  -0.0000175  -0.0000327   0.0000207   0.0000289   0.0000161
            7           8           9          10          11          12
    1  -0.0000603   0.0000077  -0.0000159  -0.0000165   0.0000908  -0.0000098
    2   0.0000226   0.0000357  -0.0000024   0.0541190  -0.0541566  -0.0000354
    3  -0.0000291  -0.0000078  -0.0000216   0.0335761  -0.0334646  -0.0000241
           13
    1   0.0000954
    2   0.0000519
    3  -0.0000028
 Max gradient component =       5.416E-02
 RMS gradient           =       1.442E-02
 Gradient time:  CPU 20.13 s  wall 1.72 s
 Geometry Optimization Parameters
   NAtoms,    NIC,     NZ,  NCons,   NDum,   NFix, NCnnct, MaxDiis
       13      82       0       1       0       0       0       0

 Cartesian Hessian Update
 Hessian Updated using BFGS Update


** CONSTRAINED OPTIMIZATION IN DELOCALIZED INTERNAL COORDINATES **
   Searching for a Minimum

   Optimization Cycle:   3

                       Coordinates (Angstroms)
     ATOM                X               Y               Z
      1  C         0.0668792454    0.5350656959   -0.3632055327
      2  H         0.1196679434    0.6628084462   -1.4460068905
      3  C         0.3684264755    1.8639271119    0.3459976073
      4  H        -0.4702668466    2.5469844444    0.1528169581
      5  H         0.3959216417    1.7006433429    1.4295741642
      6  C         1.6656927459    2.5304065133   -0.1214555109
      7  H         1.8067042742    3.4872293560    0.3907896221
      8  H         2.5334143652    1.8992806169    0.0876358708
      9  H         1.6409522367    2.7300705982   -1.1985541708
     10  Se       -1.8084916983    0.0371898399    0.0820875842
     11  H        -1.8072798782   -1.4956813976   -0.8614713195
     12  Se        1.3923164016   -0.9071138465   -0.0028621849
     13  H         0.9282630935   -1.1419097213    1.3781538027
   Point Group: c1    Number of degrees of freedom:    33


   Energy is  -4921.704227845

              Constraints and their Current Values
                                        Value     Constraint
   Distance(Angs):       10  11             1.800000     1.800000
 Hessian Updated using BFGS Update

 29 Hessian modes will be used to form the next step
  Hessian Eigenvalues:
     0.026693    0.045001    0.045104    0.067454    0.078153    0.081005
     0.082628    0.083501    0.084877    0.104870    0.109793    0.132538
     0.154047    0.154180    0.159708    0.160000    0.179637    0.193732
     0.201107    0.215500    0.266923    0.287606    0.295118    0.338495
     0.341510    0.341576    0.343176    0.344650    0.346204

 Minimum Search - Taking Simple RFO Step
 Searching for Lamda that Minimizes Along All modes
 Value Taken    Lamda =  -0.00000324
 Step Taken.  Stepsize is  0.010394

                             Maximum     Tolerance    Cnvgd?
         Gradient           0.000188      0.000300     YES
         Displacement       0.005676      0.001200      NO
         Energy change      0.000281      0.000001      NO


 New Cartesian Coordinates Obtained by Inverse Iteration

 Displacement from previous Coordinates is:  0.016168
 ----------------------------------------------------------------
             Standard Nuclear Orientation (Angstroms)
    I     Atom           X                Y                Z
 ----------------------------------------------------------------
    1      C       0.0668514495     0.5354795935    -0.3639236593
    2      H       0.1204673263     0.6632611754    -1.4466354927
    3      C       0.3684646712     1.8642417988     0.3459390558
    4      H      -0.4699402384     2.5478563331     0.1534070023
    5      H       0.3963669053     1.7001812609     1.4293604099
    6      C       1.6658236999     2.5309733964    -0.1214620811
    7      H       1.8075986626     3.4871534096     0.3917831399
    8      H       2.5332985650     1.8991654078     0.0864881504
    9      H       1.6404630782     2.7318008429    -1.1983100706
   10      Se     -1.8090843096     0.0384614689     0.0795473724
   11      H      -1.8050099368    -1.4988194715    -0.8568018221
   12      Se      1.3919599631    -0.9068137145    -0.0027442716
   13      H       0.9249401637    -1.1440405013     1.3768522667
 ----------------------------------------------------------------
 Nuclear Repulsion Energy =   594.3146798756 hartrees
 There are       47 alpha and       47 beta electrons

                       Distance Matrix (Angstroms)
             C (  1)   H (  2)   C (  3)   H (  4)   H (  5)   C (  6)
   H (  2)  1.091544
   C (  3)  1.536387  2.171907
   H (  4)  2.146028  2.541735  1.098781
   H (  5)  2.163557  3.069638  1.096128  1.759857
   C (  6)  2.568559  2.762709  1.531710  2.153445  2.169513
   H (  7)  3.509084  3.768363  2.169574  2.475133  2.502281  1.094441
   H (  8)  2.854097  3.114431  2.180605  3.073227  2.531675  1.093132
   H (  9)  2.827770  2.578936  2.180675  2.512922  3.084909  1.095708
   Se( 10)  1.990685  2.538263  2.854147  2.845316  3.073650  4.281122
   H ( 11)  2.808054  2.954650  4.181000  4.379328  4.506240  5.369045
   Se( 12)  1.991626  2.483274  2.974537  3.927569  3.136647  3.450721
   H ( 13)  2.566594  3.447550  3.228345  4.131902  2.893397  4.037274
             H (  7)   H (  8)   H (  9)   Se( 10)   H ( 11)   Se( 12)
   H (  8)  1.772442
   H (  9)  1.768301  1.772327
   Se( 10)  5.007131  4.724252  4.559208
   H ( 11)  6.282502  5.590798  5.466814  1.800000
   Se( 12)  4.431180  3.030534  3.838053  3.338713  3.361622
   H ( 13)  4.816368  3.675998  4.708034  3.249031  3.545096  1.475693

 
 Applying Cartesian multipole field
    Component          Value
    ---------          -----
     (2,0,0)        1.00000E-11
     (0,2,0)        2.00000E-11
     (0,0,2)       -3.00000E-10
 Nucleus-field energy     =     0.0000000056 hartrees
 Requested basis set is 6-31G(d,p)
 There are 52 shells and 155 basis functions
 A cutoff of  1.0D-14 yielded   1244 shell pairs
 There are     11142 function pairs
 Smallest overlap matrix eigenvalue = 6.73E-04
 Guess from superposition of atomic densities
 Warning:  Energy on first SCF cycle will be non-variational
 SAD guess density has 93.936381 electrons

 -----------------------------------------------------------------------
  General SCF calculation program by
  Eric Jon Sundstrom, Paul Horn, Yuezhi Mao, Dmitri Zuev, Alec White,
  David Stuck, Shaama M.S., Shane Yost, Joonho Lee, David Small,
  Daniel Levine, Susi Lehtola, Hugh Burton, Evgeny Epifanovsky
 -----------------------------------------------------------------------
 Exchange:     0.2000 Hartree-Fock + 0.0800 Slater + 0.7200 B88
 Correlation:  0.1900 VWN1RPA + 0.8100 LYP
 Using SG-1 standard quadrature grid
 using 12 threads for integral computing
 -------------------------------------------------------
 OpenMP Integral computing Module                
 Release: version 1.0, May 2013, Q-Chem Inc. Pittsburgh 
 -------------------------------------------------------
 -------------------------------------------------------
 OpenMP BLAS3 based DFT computing Module                
 Release: version 1.0, May 2013, Q-Chem Inc. Pittsburgh 
 -------------------------------------------------------
 A unrestricted SCF calculation will be
 performed using DIIS
 SCF converges when DIIS error is below 1.0e-06
 Alpha HF Exchange    Energy = -18.86642251264780
 Beta HF Exchange     Energy = -18.86642251264780
 DFT Correlation      Energy =  -5.14169659072151
 DFT Exchange         Energy = -149.88738255000587
 One-Electron (alpha) Energy = -4011.93753036908220
 One-Electron (beta)  Energy = -4011.93753036908220
 Total Coulomb        Energy = 2694.46560886741099
 ---------------------------------------
  Cycle       Energy         DIIS error
 ---------------------------------------
    1   -4927.8566961556      1.50e-01  
 Alpha HF Exchange    Energy = -18.96872620126810
 Beta HF Exchange     Energy = -18.96872620126812
 DFT Correlation      Energy =  -5.19607261186631
 DFT Exchange         Energy = -151.02420161201644
 One-Electron (alpha) Energy = -4022.68039340744508
 One-Electron (beta)  Energy = -4022.68039340744735
 Total Coulomb        Energy = 2723.64455013235374
    2   -4921.5592834278      9.35e-03  
 Alpha HF Exchange    Energy = -18.82945936079171
 Beta HF Exchange     Energy = -18.82945936079171
 DFT Correlation      Energy =  -5.14969313262578
 DFT Exchange         Energy = -149.90472812221100
 One-Electron (alpha) Energy = -4006.27900064192272
 One-Electron (beta)  Energy = -4006.27900064192227
 Total Coulomb        Energy = 2689.42338304066834
    3   -4921.5332783384      4.01e-03  
 Alpha HF Exchange    Energy = -18.95236290446336
 Beta HF Exchange     Energy = -18.95236290446336
 DFT Correlation      Energy =  -5.19135510532183
 DFT Exchange         Energy = -150.88470022124221
 One-Electron (alpha) Energy = -4020.76179626936982
 One-Electron (beta)  Energy = -4020.76179626937073
 Total Coulomb        Energy = 2719.60310602360596
    4   -4921.5865877694      3.18e-03  
 Alpha HF Exchange    Energy = -18.90509784555942
 Beta HF Exchange     Energy = -18.90509784555939
 DFT Correlation      Energy =  -5.17389182882295
 DFT Exchange         Energy = -150.50463187860507
 One-Electron (alpha) Energy = -4015.32941188950053
 One-Electron (beta)  Energy = -4015.32941188949735
 Total Coulomb        Energy = 2708.13671539277448
    5   -4921.6961479036      8.12e-04  
 Alpha HF Exchange    Energy = -18.90188893448575
 Beta HF Exchange     Energy = -18.90188893448579
 DFT Correlation      Energy =  -5.17421849736872
 DFT Exchange         Energy = -150.48274395973414
 One-Electron (alpha) Energy = -4015.04196327448835
 One-Electron (beta)  Energy = -4015.04196327449199
 Total Coulomb        Energy = 2707.52592268515127
    6   -4921.7040643087      1.14e-04  
 Alpha HF Exchange    Energy = -18.90108819849494
 Beta HF Exchange     Energy = -18.90108819849493
 DFT Correlation      Energy =  -5.17377177076192
 DFT Exchange         Energy = -150.47565479163535
 One-Electron (alpha) Energy = -4014.90921360597349
 One-Electron (beta)  Energy = -4014.90921360597122
 Total Coulomb        Energy = 2707.25115271637696
    7   -4921.7041975738      5.06e-05  
 Alpha HF Exchange    Energy = -18.90126364087839
 Beta HF Exchange     Energy = -18.90126364087839
 DFT Correlation      Energy =  -5.17378629210068
 DFT Exchange         Energy = -150.47709566529986
 One-Electron (alpha) Energy = -4014.93024097871466
 One-Electron (beta)  Energy = -4014.93024097871603
 Total Coulomb        Energy = 2707.29498271315515
    8   -4921.7042286022      1.26e-05  
 Alpha HF Exchange    Energy = -18.90134242177463
 Beta HF Exchange     Energy = -18.90134242177462
 DFT Correlation      Energy =  -5.17382432514533
 DFT Exchange         Energy = -150.47771506977958
 One-Electron (alpha) Energy = -4014.94492362439814
 One-Electron (beta)  Energy = -4014.94492362439769
 Total Coulomb        Energy = 2707.32516101934880
    9   -4921.7042305867      2.66e-06  
 Alpha HF Exchange    Energy = -18.90133703268371
 Beta HF Exchange     Energy = -18.90133703268368
 DFT Correlation      Energy =  -5.17382756599124
 DFT Exchange         Energy = -150.47767942099966
 One-Electron (alpha) Energy = -4014.94298530339574
 One-Electron (beta)  Energy = -4014.94298530339393
 Total Coulomb        Energy = 2707.32124111656049
   10   -4921.7042306614      7.54e-07  Convergence criterion met
 ---------------------------------------
 SCF time:   CPU 50.25s  wall 4.00s 
<S^2> =         -0.000000000
 Alpha HF Exchange    Energy = -18.90133703268371
 Beta HF Exchange     Energy = -18.90133703268368
 DFT Correlation      Energy =  -5.17382756599124
 DFT Exchange         Energy = -150.47767942099966
 One-Electron (alpha) Energy = -4014.94298530339574
 One-Electron (beta)  Energy = -4014.94298530339393
 Total Coulomb        Energy = 2707.32124111656049
 Nuclear repulsion Energy = 594.31467988119857
 SCF   energy in the final basis set =    -4921.7042306614
 Total energy in the final basis set =    -4921.7042306614
 
 --------------------------------------------------------------
 
                    Orbital Energies (a.u.)
 --------------------------------------------------------------
 
 Alpha MOs
 -- Occupied --
*******-453.900 -58.105 -58.096 -52.163 -52.162 -52.159 -52.153
-52.152 -52.149 -10.258 -10.207 -10.185  -7.837  -7.829  -5.783
 -5.779  -5.775  -5.771  -5.768  -5.761  -2.116  -2.116  -2.108
 -2.108  -2.107  -2.104  -2.102  -2.100  -2.096  -2.095  -0.818
 -0.737  -0.689  -0.639  -0.581  -0.468  -0.437  -0.430  -0.386
 -0.377  -0.360  -0.343  -0.338  -0.312  -0.242  -0.222
 -- Virtual --
 -0.053  -0.015   0.028   0.044   0.095   0.119   0.143   0.152
  0.166   0.171   0.193   0.225   0.227   0.242   0.275   0.287
  0.299   0.314   0.321   0.344   0.446   0.456   0.483   0.497
  0.520   0.553   0.590   0.598   0.617   0.630   0.645   0.666
  0.704   0.749   0.768   0.821   0.837   0.854   0.864   0.871
  0.899   0.913   0.928   0.941   0.949   1.009   1.051   1.120
  1.338   1.379   1.438   1.525   1.544   1.609   1.659   1.700
  1.776   1.828   1.868   1.953   2.019   2.032   2.042   2.059
  2.073   2.084   2.100   2.112   2.122   2.153   2.247   2.299
  2.352   2.365   2.438   2.484   2.528   2.594   2.623   2.674
  2.716   2.750   2.817   2.879   2.899   3.186   3.272   3.307
  3.411   3.461   3.527   4.182   4.244   4.270   4.305   4.328
  4.340   4.354   4.376   4.399   4.418   4.510   4.534   4.632
  5.459   5.480  89.732  89.835
 
 Beta MOs
 -- Occupied --
*******-453.900 -58.105 -58.096 -52.163 -52.162 -52.159 -52.153
-52.152 -52.149 -10.258 -10.207 -10.185  -7.837  -7.829  -5.783
 -5.779  -5.775  -5.771  -5.768  -5.761  -2.116  -2.116  -2.108
 -2.108  -2.107  -2.104  -2.102  -2.100  -2.096  -2.095  -0.818
 -0.737  -0.689  -0.639  -0.581  -0.468  -0.437  -0.430  -0.386
 -0.377  -0.360  -0.343  -0.338  -0.312  -0.242  -0.222
 -- Virtual --
 -0.053  -0.015   0.028   0.044   0.095   0.119   0.143   0.152
  0.166   0.171   0.193   0.225   0.227   0.242   0.275   0.287
  0.299   0.314   0.321   0.344   0.446   0.456   0.483   0.497
  0.520   0.553   0.590   0.598   0.617   0.630   0.645   0.666
  0.704   0.749   0.768   0.821   0.837   0.854   0.864   0.871
  0.899   0.913   0.928   0.941   0.949   1.009   1.051   1.120
  1.338   1.379   1.438   1.525   1.544   1.609   1.659   1.700
  1.776   1.828   1.868   1.953   2.019   2.032   2.042   2.059
  2.073   2.084   2.100   2.112   2.122   2.153   2.247   2.299
  2.352   2.365   2.438   2.484   2.528   2.594   2.623   2.674
  2.716   2.750   2.817   2.879   2.899   3.186   3.272   3.307
  3.411   3.461   3.527   4.182   4.244   4.270   4.305   4.328
  4.340   4.354   4.376   4.399   4.418   4.510   4.534   4.632
  5.459   5.480  89.732  89.835
 --------------------------------------------------------------
 
          Ground-State Mulliken Net Atomic Charges

     Atom                 Charge (a.u.)    Spin (a.u.)
  --------------------------------------------------------
      1 C                    -0.226375      -0.000000
      2 H                     0.154624      -0.000000
      3 C                    -0.190547       0.000000
      4 H                     0.120622      -0.000000
      5 H                     0.121023      -0.000000
      6 C                    -0.328044       0.000000
      7 H                     0.110878      -0.000000
      8 H                     0.138149      -0.000000
      9 H                     0.106622       0.000000
     10 Se                   -0.056661       0.000000
     11 H                     0.046427      -0.000000
     12 Se                   -0.065951       0.000000
     13 H                     0.069236      -0.000000
  --------------------------------------------------------
  Sum of atomic charges =    -0.000000
  Sum of spin   charges =     0.000000

 -----------------------------------------------------------------
                    Cartesian Multipole Moments
 -----------------------------------------------------------------
    Charge (ESU x 10^10)
                -0.0000
    Dipole Moment (Debye)
         X       0.4098      Y       1.0666      Z      -0.0237
       Tot       1.1429
    Quadrupole Moments (Debye-Ang)
        XX     -61.6579     XY       1.9194     YY     -55.6104
        XZ       0.4253     YZ      -0.0830     ZZ     -56.1739
    Octopole Moments (Debye-Ang^2)
       XXX     -22.4195    XXY     -21.1086    XYY      -6.2280
       YYY     -43.8816    XXZ       0.4844    XYZ      -4.4757
       YYZ       2.3429    XZZ      -2.3545    YZZ     -17.0068
       ZZZ      -2.5542
    Hexadecapole Moments (Debye-Ang^3)
      XXXX    -824.6526   XXXY     -33.8834   XXYY    -233.9617
      XYYY     -38.0123   YYYY    -625.0220   XXXZ      -3.4312
      XXYZ       3.7208   XYYZ       7.4981   YYYZ      -0.7529
      XXZZ    -157.9915   XYZZ     -14.6545   YYZZ    -121.9446
      XZZZ       3.9274   YZZZ      -4.9272   ZZZZ    -110.9628
 -----------------------------------------------------------------
 Calculating analytic gradient of the SCF energy
 Gradient of SCF Energy
            1           2           3           4           5           6
    1  -0.0000067  -0.0000417  -0.0000633   0.0000143  -0.0000262   0.0000147
    2  -0.0000419  -0.0000584   0.0000148   0.0000411  -0.0000022  -0.0000073
    3  -0.0000811   0.0000082   0.0000157   0.0000218   0.0000262   0.0000084
            7           8           9          10          11          12
    1  -0.0000441  -0.0000157  -0.0000278  -0.0001466   0.0002183   0.0000388
    2   0.0000315   0.0000354  -0.0000088   0.0542760  -0.0542992  -0.0000186
    3  -0.0000312  -0.0000065  -0.0000117   0.0332653  -0.0331801  -0.0000158
           13
    1   0.0000860
    2   0.0000376
    3  -0.0000191
 Max gradient component =       5.430E-02
 RMS gradient           =       1.441E-02
 Gradient time:  CPU 20.14 s  wall 1.72 s
 Geometry Optimization Parameters
   NAtoms,    NIC,     NZ,  NCons,   NDum,   NFix, NCnnct, MaxDiis
       13      82       0       1       0       0       0       0

 Cartesian Hessian Update
 Hessian Updated using BFGS Update


** CONSTRAINED OPTIMIZATION IN DELOCALIZED INTERNAL COORDINATES **
   Searching for a Minimum

   Optimization Cycle:   4

                       Coordinates (Angstroms)
     ATOM                X               Y               Z
      1  C         0.0668514495    0.5354795935   -0.3639236593
      2  H         0.1204673263    0.6632611754   -1.4466354927
      3  C         0.3684646712    1.8642417988    0.3459390558
      4  H        -0.4699402384    2.5478563331    0.1534070023
      5  H         0.3963669053    1.7001812609    1.4293604099
      6  C         1.6658236999    2.5309733964   -0.1214620811
      7  H         1.8075986626    3.4871534096    0.3917831399
      8  H         2.5332985650    1.8991654078    0.0864881504
      9  H         1.6404630782    2.7318008429   -1.1983100706
     10  Se       -1.8090843096    0.0384614689    0.0795473724
     11  H        -1.8050099368   -1.4988194715   -0.8568018221
     12  Se        1.3919599631   -0.9068137145   -0.0027442716
     13  H         0.9249401637   -1.1440405013    1.3768522667
   Point Group: c1    Number of degrees of freedom:    33


   Energy is  -4921.704230661

              Constraints and their Current Values
                                        Value     Constraint
   Distance(Angs):       10  11             1.800000     1.800000
 Hessian Updated using BFGS Update

 31 Hessian modes will be used to form the next step
  Hessian Eigenvalues:
     0.006088    0.045000    0.045043    0.045505    0.067755    0.078194
     0.081700    0.082980    0.083521    0.085191    0.106688    0.110607
     0.134280    0.154145    0.154364    0.159868    0.160000    0.162213
     0.179617    0.188499    0.204530    0.221223    0.252140    0.292093
     0.314087    0.338472    0.341252    0.341689    0.343140    0.344857
     0.348424

 Minimum Search - Taking Simple RFO Step
 Searching for Lamda that Minimizes Along All modes
 Value Taken    Lamda =  -0.00001032
 Step Taken.  Stepsize is  0.040221

                             Maximum     Tolerance    Cnvgd?
         Gradient           0.000196      0.000300     YES
         Displacement       0.021434      0.001200      NO
         Energy change     -0.000003      0.000001      NO


 New Cartesian Coordinates Obtained by Inverse Iteration

 Displacement from previous Coordinates is:  0.063185
 ----------------------------------------------------------------
             Standard Nuclear Orientation (Angstroms)
    I     Atom           X                Y                Z
 ----------------------------------------------------------------
    1      C       0.0680684694     0.5371854997    -0.3671023716
    2      H       0.1254159937     0.6657126671    -1.4495156838
    3      C       0.3691802143     1.8648696855     0.3452953097
    4      H      -0.4692511993     2.5491033688     0.1549319852
    5      H       0.3981729970     1.6977946446     1.4281058827
    6      C       1.6661383195     2.5333137603    -0.1214544384
    7      H       1.8093356033     3.4868755134     0.3962113082
    8      H       2.5334885467     1.8999094016     0.0821812776
    9      H       1.6387981967     2.7391868184    -1.1972716412
   10      Se     -1.8100921329     0.0440565072     0.0699736531
   11      H      -1.7992642195    -1.5105232904    -0.8373099373
   12      Se      1.3904697215    -0.9063798340    -0.0023669787
   13      H       0.9117394897    -1.1522037421     1.3718216344
 ----------------------------------------------------------------
 Nuclear Repulsion Energy =   594.3140077735 hartrees
 There are       47 alpha and       47 beta electrons

                       Distance Matrix (Angstroms)
             C (  1)   H (  2)   C (  3)   H (  4)   H (  5)   C (  6)
   H (  2)  1.091525
   C (  3)  1.536530  2.172267
   H (  4)  2.146869  2.544610  1.098809
   H (  5)  2.163043  3.069250  1.096008  1.760149
   C (  6)  2.568793  2.761432  1.531918  2.153260  2.169554
   H (  7)  3.509320  3.768455  2.169687  2.475801  2.501399  1.094424
   H (  8)  2.852572  3.109365  2.180525  3.072978  2.532180  1.093145
   H (  9)  2.829343  2.579389  2.180796  2.511665  3.084843  1.095680
   Se( 10)  1.990402  2.538010  2.853137  2.842592  3.075030  4.279863
   H ( 11)  2.810896  2.969039  4.182581  4.385664  4.500460  5.373461
   Se( 12)  1.991396  2.483158  2.973840  3.927298  3.132512  3.452777
   H ( 13)  2.567036  3.447183  3.232779  4.133719  2.896448  4.047472
             H (  7)   H (  8)   H (  9)   Se( 10)   H ( 11)   Se( 12)
   H (  8)  1.772420
   H (  9)  1.768420  1.772528
   Se( 10)  5.005966  4.723456  4.556806
   H ( 11)  6.286300  5.590104  5.478128  1.800000
   Se( 12)  4.431140  3.031320  3.844427  3.339485  3.352092
   H ( 13)  4.824785  3.688989  4.719298  3.245645  3.515423  1.475807

 
[...]
 There are       47 alpha and       47 beta electrons

                       Distance Matrix (Angstroms)
             C (  1)   H (  2)   C (  3)   H (  4)   H (  5)   C (  6)
   H (  2)  1.091569
   C (  3)  1.536421  2.172049
   H (  4)  2.146434  2.544274  1.098826
   H (  5)  2.163063  3.069172  1.096010  1.760034
   C (  6)  2.568700  2.760945  1.531770  2.153321  2.169493
   H (  7)  3.509229  3.768083  2.169593  2.476096  2.501196  1.094437
   H (  8)  2.852579  3.108815  2.180455  3.073066  2.532330  1.093168
   H (  9)  2.829550  2.579191  2.180821  2.511743  3.084887  1.095689
   Se( 10)  1.990581  2.538488  2.853038  2.841667  3.075063  4.279688
   H ( 11)  2.811520  2.970395  4.182866  4.385246  4.500615  5.373989
   Se( 12)  1.991305  2.483187  2.974018  3.927124  3.132666  3.453764
   H ( 13)  2.567134  3.447430  3.232752  4.133232  2.896371  4.048046
             H (  7)   H (  8)   H (  9)   Se( 10)   H ( 11)   Se( 12)
   H (  8)  1.772353
   H (  9)  1.768346  1.772541
   Se( 10)  5.005703  4.723610  4.556783
   H ( 11)  6.286690  5.590888  5.479098  1.800000
   Se( 12)  4.431997  3.032673  3.845840  3.339108  3.351809
   H ( 13)  4.825126  3.690038  4.720221  3.245536  3.515237  1.475827

 
 Applying Cartesian multipole field
    Component          Value
    ---------          -----
     (2,0,0)        1.00000E-11
     (0,2,0)        2.00000E-11
     (0,0,2)       -3.00000E-10
 Nucleus-field energy     =     0.0000000057 hartrees
 Requested basis set is 6-31G(d,p)
 There are 52 shells and 155 basis functions
 A cutoff of  1.0D-14 yielded   1244 shell pairs
 There are     11142 function pairs
 Smallest overlap matrix eigenvalue = 6.73E-04
 Guess from superposition of atomic densities
 Warning:  Energy on first SCF cycle will be non-variational
 SAD guess density has 93.936381 electrons

 -----------------------------------------------------------------------
  General SCF calculation program by
  Eric Jon Sundstrom, Paul Horn, Yuezhi Mao, Dmitri Zuev, Alec White,
  David Stuck, Shaama M.S., Shane Yost, Joonho Lee, David Small,
  Daniel Levine, Susi Lehtola, Hugh Burton, Evgeny Epifanovsky
 -----------------------------------------------------------------------
 Exchange:     0.2000 Hartree-Fock + 0.0800 Slater + 0.7200 B88
 Correlation:  0.1900 VWN1RPA + 0.8100 LYP
 Using SG-1 standard quadrature grid
 using 12 threads for integral computing
 -------------------------------------------------------
 OpenMP Integral computing Module                
 Release: version 1.0, May 2013, Q-Chem Inc. Pittsburgh 
 -------------------------------------------------------
 -------------------------------------------------------
 OpenMP BLAS3 based DFT computing Module                
 Release: version 1.0, May 2013, Q-Chem Inc. Pittsburgh 
 -------------------------------------------------------
 A unrestricted SCF calculation will be
 performed using DIIS
 SCF converges when DIIS error is below 1.0e-06
 Alpha HF Exchange    Energy = -18.86644933964630
 Beta HF Exchange     Energy = -18.86644933964630
 DFT Correlation      Energy =  -5.14170873089496
 DFT Exchange         Energy = -149.88743628192515
 One-Electron (alpha) Energy = -4011.94437861270262
 One-Electron (beta)  Energy = -4011.94437861270262
 Total Coulomb        Energy = 2694.47230232107449
 ---------------------------------------
  Cycle       Energy         DIIS error
 ---------------------------------------
    1   -4927.8569344734      1.50e-01  
 Alpha HF Exchange    Energy = -18.96872112082939
 Beta HF Exchange     Energy = -18.96872112082943
 DFT Correlation      Energy =  -5.19607335092446
 DFT Exchange         Energy = -151.02414579218873
 One-Electron (alpha) Energy = -4022.68106756540510
 One-Electron (beta)  Energy = -4022.68106756540874
 Total Coulomb        Energy = 2723.63886006173743
    2   -4921.5593723308      9.35e-03  
 Alpha HF Exchange    Energy = -18.82946686131623
 Beta HF Exchange     Energy = -18.82946686131625
 DFT Correlation      Energy =  -5.14970134171464
 DFT Exchange         Energy = -149.90480013120774
 One-Electron (alpha) Energy = -4006.28887602257919
 One-Electron (beta)  Energy = -4006.28887602257964
 Total Coulomb        Energy = 2689.43638956417453
    3   -4921.5332335535      4.01e-03  
 Alpha HF Exchange    Energy = -18.95236864510284
 Beta HF Exchange     Energy = -18.95236864510283
 DFT Correlation      Energy =  -5.19136876764933
 DFT Exchange         Energy = -150.88472828395791
 One-Electron (alpha) Energy = -4020.76400235765868
 One-Electron (beta)  Energy = -4020.76400235765686
 Total Coulomb        Energy = 2719.60098190213921
    4   -4921.5862930319      3.19e-03  
 Alpha HF Exchange    Energy = -18.90511373525691
 Beta HF Exchange     Energy = -18.90511373525689
 DFT Correlation      Energy =  -5.17389839662621
 DFT Exchange         Energy = -150.50474630005732
 One-Electron (alpha) Energy = -4015.33500115160723
 One-Electron (beta)  Energy = -4015.33500115160541
 Total Coulomb        Energy = 2708.14118995272156
    5   -4921.6961203946      8.14e-04  
 Alpha HF Exchange    Energy = -18.90189020129311
 Beta HF Exchange     Energy = -18.90189020129312
 DFT Correlation      Energy =  -5.17422432535722
 DFT Exchange         Energy = -150.48274395193840
 One-Electron (alpha) Energy = -4015.04666295978586
 One-Electron (beta)  Energy = -4015.04666295978541
 Total Coulomb        Energy = 2707.52844040458649
    6   -4921.7040700718      1.14e-04  
 Alpha HF Exchange    Energy = -18.90108807395219
 Beta HF Exchange     Energy = -18.90108807395223
 DFT Correlation      Energy =  -5.17377764400512
 DFT Exchange         Energy = -150.47564360174999
 One-Electron (alpha) Energy = -4014.91360950596527
 One-Electron (beta)  Energy = -4014.91360950596936
 Total Coulomb        Energy = 2707.25304884418892
    7   -4921.7042034383      5.06e-05  
 Alpha HF Exchange    Energy = -18.90126458271360
 Beta HF Exchange     Energy = -18.90126458271361
 DFT Correlation      Energy =  -5.17379213659758
 DFT Exchange         Energy = -150.47709275082002
 One-Electron (alpha) Energy = -4014.93482871463539
 One-Electron (beta)  Energy = -4014.93482871463539
 Total Coulomb        Energy = 2707.29727291308473
    8   -4921.7042344460      1.26e-05  
 Alpha HF Exchange    Energy = -18.90134327873989
 Beta HF Exchange     Energy = -18.90134327873991
 DFT Correlation      Energy =  -5.17383020583826
 DFT Exchange         Energy = -150.47771163459589
 One-Electron (alpha) Energy = -4014.94947485840339
 One-Electron (beta)  Energy = -4014.94947485840430
 Total Coulomb        Energy = 2707.32737756346569
    9   -4921.7042364282      2.66e-06  
 Alpha HF Exchange    Energy = -18.90133793410576
 Beta HF Exchange     Energy = -18.90133793410576
 DFT Correlation      Energy =  -5.17383345759529
 DFT Exchange         Energy = -150.47767626544828
 One-Electron (alpha) Energy = -4014.94755011978259
 One-Electron (beta)  Energy = -4014.94755011978305
 Total Coulomb        Energy = 2707.32348520478854
   10   -4921.7042365030      7.55e-07  Convergence criterion met
 ---------------------------------------
 SCF time:   CPU 49.95s  wall 5.00s 
<S^2> =         -0.000000000
 Alpha HF Exchange    Energy = -18.90133793410576
 Beta HF Exchange     Energy = -18.90133793410576
 DFT Correlation      Energy =  -5.17383345759529
 DFT Exchange         Energy = -150.47767626544828
 One-Electron (alpha) Energy = -4014.94755011978259
 One-Electron (beta)  Energy = -4014.94755011978305
 Total Coulomb        Energy = 2707.32348520478854
 Nuclear repulsion Energy = 594.32156412307279
 SCF   energy in the final basis set =    -4921.7042365030
 Total energy in the final basis set =    -4921.7042365030
 
 --------------------------------------------------------------
 
                    Orbital Energies (a.u.)
 --------------------------------------------------------------
 
 Alpha MOs
 -- Occupied --
*******-453.900 -58.105 -58.096 -52.163 -52.162 -52.158 -52.153
-52.152 -52.150 -10.258 -10.207 -10.185  -7.837  -7.829  -5.783
 -5.779  -5.775  -5.771  -5.768  -5.761  -2.116  -2.116  -2.108
 -2.108  -2.107  -2.104  -2.102  -2.100  -2.097  -2.095  -0.818
 -0.737  -0.689  -0.639  -0.581  -0.468  -0.437  -0.430  -0.386
 -0.377  -0.360  -0.343  -0.339  -0.311  -0.242  -0.223
 -- Virtual --
 -0.053  -0.015   0.028   0.044   0.095   0.119   0.143   0.152
  0.166   0.171   0.193   0.226   0.227   0.242   0.275   0.287
  0.299   0.314   0.321   0.344   0.446   0.456   0.483   0.497
  0.519   0.553   0.590   0.597   0.617   0.630   0.644   0.665
  0.705   0.749   0.768   0.821   0.837   0.854   0.864   0.872
  0.900   0.914   0.929   0.941   0.949   1.009   1.051   1.120
  1.337   1.379   1.438   1.525   1.544   1.609   1.659   1.701
  1.776   1.829   1.868   1.953   2.019   2.032   2.042   2.059
  2.073   2.083   2.100   2.112   2.123   2.153   2.248   2.299
  2.352   2.365   2.438   2.484   2.528   2.595   2.623   2.674
  2.716   2.750   2.817   2.879   2.899   3.186   3.272   3.307
  3.411   3.461   3.527   4.182   4.244   4.270   4.305   4.328
  4.340   4.354   4.375   4.399   4.418   4.510   4.534   4.632
  5.458   5.480  89.732  89.835
 
 Beta MOs
 -- Occupied --
*******-453.900 -58.105 -58.096 -52.163 -52.162 -52.158 -52.153
-52.152 -52.150 -10.258 -10.207 -10.185  -7.837  -7.829  -5.783
 -5.779  -5.775  -5.771  -5.768  -5.761  -2.116  -2.116  -2.108
 -2.108  -2.107  -2.104  -2.102  -2.100  -2.097  -2.095  -0.818
 -0.737  -0.689  -0.639  -0.581  -0.468  -0.437  -0.430  -0.386
 -0.377  -0.360  -0.343  -0.339  -0.311  -0.242  -0.223
 -- Virtual --
 -0.053  -0.015   0.028   0.044   0.095   0.119   0.143   0.152
  0.166   0.171   0.193   0.226   0.227   0.242   0.275   0.287
  0.299   0.314   0.321   0.344   0.446   0.456   0.483   0.497
  0.519   0.553   0.590   0.597   0.617   0.630   0.644   0.665
  0.705   0.749   0.768   0.821   0.837   0.854   0.864   0.872
  0.900   0.914   0.929   0.941   0.949   1.009   1.051   1.120
  1.337   1.379   1.438   1.525   1.544   1.609   1.659   1.701
  1.776   1.829   1.868   1.953   2.019   2.032   2.042   2.059
  2.073   2.083   2.100   2.112   2.123   2.153   2.248   2.299
  2.352   2.365   2.438   2.484   2.528   2.595   2.623   2.674
  2.716   2.750   2.817   2.879   2.899   3.186   3.272   3.307
  3.411   3.461   3.527   4.182   4.244   4.270   4.305   4.328
  4.340   4.354   4.375   4.399   4.418   4.510   4.534   4.632
  5.458   5.480  89.732  89.835
 --------------------------------------------------------------
 
          Ground-State Mulliken Net Atomic Charges

     Atom                 Charge (a.u.)    Spin (a.u.)
  --------------------------------------------------------
      1 C                    -0.226285      -0.000000
      2 H                     0.154648      -0.000000
      3 C                    -0.190425       0.000000
      4 H                     0.120313      -0.000000
      5 H                     0.121421       0.000000
      6 C                    -0.328262      -0.000000
      7 H                     0.111018      -0.000000
      8 H                     0.137992       0.000000
      9 H                     0.106686      -0.000000
     10 Se                   -0.057196       0.000000
     11 H                     0.046716       0.000000
     12 Se                   -0.066103      -0.000000
     13 H                     0.069477      -0.000000
  --------------------------------------------------------
  Sum of atomic charges =    -0.000000
  Sum of spin   charges =    -0.000000

 -----------------------------------------------------------------
                    Cartesian Multipole Moments
 -----------------------------------------------------------------
    Charge (ESU x 10^10)
                -0.0000
    Dipole Moment (Debye)
         X       0.4139      Y       1.0561      Z      -0.0156
       Tot       1.1344
    Quadrupole Moments (Debye-Ang)
        XX     -61.6547     XY       1.9324     YY     -55.5272
        XZ       0.3727     YZ      -0.1346     ZZ     -56.2614
    Octopole Moments (Debye-Ang^2)
       XXX     -22.2815    XXY     -21.1489    XYY      -6.2782
       YYY     -44.3019    XXZ       0.6324    XYZ      -4.4208
       YYZ       2.5869    XZZ      -2.2109    YZZ     -17.1102
       ZZZ      -1.9939
    Hexadecapole Moments (Debye-Ang^3)
      XXXX    -823.9262   XXXY     -33.7447   XXYY    -233.9141
      XYYY     -37.6998   YYYY    -625.7797   XXXZ      -4.4769
      XXYZ       3.7391   XYYZ       7.2248   YYYZ      -0.6763
      XXZZ    -158.2381   XYZZ     -14.4859   YYZZ    -122.0903
      XZZZ       2.9878   YZZZ      -4.8825   ZZZZ    -110.8549
 -----------------------------------------------------------------
 Calculating analytic gradient of the SCF energy
 Gradient of SCF Energy
            1           2           3           4           5           6
    1  -0.0000265  -0.0000651  -0.0000904   0.0000207   0.0000128   0.0000619
    2  -0.0000538  -0.0000200   0.0000122   0.0000207  -0.0000400   0.0000524
    3  -0.0000002   0.0000088   0.0000202   0.0000013  -0.0000026   0.0000093
            7           8           9          10          11          12
    1  -0.0000513  -0.0000258  -0.0000402  -0.0003276   0.0004045   0.0000999
    2   0.0000268   0.0000398  -0.0000040   0.0548352  -0.0548927   0.0000502
    3  -0.0000189  -0.0000063  -0.0000066   0.0319986  -0.0319638  -0.0000095
           13
    1   0.0000269
    2  -0.0000267
    3  -0.0000303
 Max gradient component =       5.489E-02
 RMS gradient           =       1.438E-02
 Gradient time:  CPU 20.18 s  wall 1.71 s
 Geometry Optimization Parameters
   NAtoms,    NIC,     NZ,  NCons,   NDum,   NFix, NCnnct, MaxDiis
       13      82       0       1       0       0       0       0

 Cartesian Hessian Update
 Hessian Updated using BFGS Update


** CONSTRAINED OPTIMIZATION IN DELOCALIZED INTERNAL COORDINATES **
   Searching for a Minimum

   Optimization Cycle:   6

                       Coordinates (Angstroms)
     ATOM                X               Y               Z
      1  C         0.0684641708    0.5371744348   -0.3672610510
      2  H         0.1262565158    0.6659663874   -1.4496634870
      3  C         0.3694823169    1.8646983685    0.3452402007
      4  H        -0.4694007678    2.5484310131    0.1549709366
      5  H         0.3984561726    1.6976762903    1.4280611414
      6  C         1.6660430002    2.5335642418   -0.1215237077
      7  H         1.8091614107    3.4869918623    0.3964395720
      8  H         2.5336671847    1.9003867006    0.0817781555
      9  H         1.6386005316    2.7399310495   -1.1972534892
     10  Se       -1.8099845093    0.0443072525    0.0696888108
     11  H        -1.7997336531   -1.5107643499   -0.8367582840
     12  Se        1.3899102237   -0.9070779285   -0.0022774851
     13  H         0.9112774031   -1.1523843224    1.3720586871
   Point Group: c1    Number of degrees of freedom:    33


   Energy is  -4921.704236503

              Constraints and their Current Values
                                        Value     Constraint
   Distance(Angs):       10  11             1.800000     1.800000
 Hessian Updated using BFGS Update

 32 Hessian modes will be used to form the next step
  Hessian Eigenvalues:
     0.005760    0.021523    0.045009    0.045139    0.067640    0.077520
     0.081835    0.082917    0.083542    0.084861    0.106071    0.110679
     0.133677    0.152319    0.154472    0.159329    0.159980    0.161225
     0.162190    0.179614    0.188846    0.201626    0.218733    0.263564
     0.291505    0.303563    0.338544    0.341254    0.341664    0.343140
     0.344598    0.348214

 Minimum Search - Taking Simple RFO Step
 Searching for Lamda that Minimizes Along All modes
 Value Taken    Lamda =   0.00000000
 Step Taken.  Stepsize is  0.006454

                             Maximum     Tolerance    Cnvgd?
         Gradient           0.000088      0.000300     YES
         Displacement       0.003744      0.001200      NO
         Energy change     -0.000000      0.000001     YES


                       Distance Matrix (Angstroms)
             C (  1)   H (  2)   C (  3)   H (  4)   H (  5)   C (  6)
   H (  2)  1.091569
   C (  3)  1.536421  2.172049
   H (  4)  2.146434  2.544274  1.098826
   H (  5)  2.163063  3.069172  1.096010  1.760034
   C (  6)  2.568700  2.760945  1.531770  2.153321  2.169493
   H (  7)  3.509229  3.768083  2.169593  2.476096  2.501196  1.094437
   H (  8)  2.852579  3.108815  2.180455  3.073066  2.532330  1.093168
   H (  9)  2.829550  2.579191  2.180821  2.511743  3.084887  1.095689
   Se( 10)  1.990581  2.538488  2.853038  2.841667  3.075063  4.279688
   H ( 11)  2.811520  2.970395  4.182866  4.385246  4.500615  5.373989
   Se( 12)  1.991305  2.483187  2.974018  3.927124  3.132666  3.453764
   H ( 13)  2.567134  3.447430  3.232752  4.133232  2.896371  4.048046
             H (  7)   H (  8)   H (  9)   Se( 10)   H ( 11)   Se( 12)
   H (  8)  1.772353
   H (  9)  1.768346  1.772541
   Se( 10)  5.005703  4.723610  4.556783
   H ( 11)  6.286690  5.590888  5.479098  1.800000
   Se( 12)  4.431997  3.032673  3.845840  3.339108  3.351809
   H ( 13)  4.825126  3.690038  4.720221  3.245536  3.515237  1.475827

 
 Final energy is   -4921.70423650296     


 ******************************
 **  OPTIMIZATION CONVERGED  **
 ******************************

                       Coordinates (Angstroms)
     ATOM                X               Y               Z
      1  C         0.0684641708    0.5371744348   -0.3672610510
      2  H         0.1262565158    0.6659663874   -1.4496634870
      3  C         0.3694823169    1.8646983685    0.3452402007
      4  H        -0.4694007678    2.5484310131    0.1549709366
      5  H         0.3984561726    1.6976762903    1.4280611414
      6  C         1.6660430002    2.5335642418   -0.1215237077
      7  H         1.8091614107    3.4869918623    0.3964395720
      8  H         2.5336671847    1.9003867006    0.0817781555
      9  H         1.6386005316    2.7399310495   -1.1972534892
     10  Se       -1.8099845093    0.0443072525    0.0696888108
     11  H        -1.7997336531   -1.5107643499   -0.8367582840
     12  Se        1.3899102237   -0.9070779285   -0.0022774851
     13  H         0.9112774031   -1.1523843224    1.3720586871

Z-matrix Print:
$molecule
0 1
Se
H  1 1.475827
C  1 1.991305 2 94.359788
H  3 1.091569 1 103.426004 2 -166.370018 0
C  3 1.536421 1 114.308786 2 73.637994 0
H  5 1.096010 3 109.370072 1 -58.775955 0
H  5 1.098826 3 107.924533 1 -174.398029 0
C  5 1.531770 3 113.691820 1 64.857854 0
H  8 1.093168 5 111.236283 3 -61.729700 0
H  8 1.094437 5 110.296292 3 178.170836 0
H  8 1.095689 5 111.113328 3 58.825036 0
Se 3 1.990581 1 113.979740 2 -50.253947 0
H  12 1.800000 3 95.623655 1 -50.539731 0
$end

PES scan, value:    1.8000 energy: -4921.7042365030
------- Summary of potential scan: ------ 
    1.8000     -4921.7042365030
----------------------------------------- 
Archival summary:
1\1\hpc0248\JobtypUnspecified\ProcedureUnspecified\6-31G**\e238\knomura\ThuMar1400:40:312019ThuMar1400:40:312019\0\\#,JobtypUnspecified,ProcedureUnspecified,6-31G**,\\0,1\Se\H,1,1.47583\C,1,1.99131,2,94.3598\H,3,1.09157,1,103.426,2,-166.37,0\C,3,1.53642,1,114.309,2,73.638,0\H,5,1.09601,3,109.37,1,-58.776,0\H,5,1.09883,3,107.925,1,-174.398,0\C,5,1.53177,3,113.692,1,64.8579,0\H,8,1.09317,5,111.236,3,-61.7297,0\H,8,1.09444,5,110.296,3,178.171,0\H,8,1.09569,5,111.113,3,58.825,0\Se,3,1.99058,1,113.98,2,-50.2539,0\H,12,1.8,3,95.6237,1,-50.5397,0\\\@

 Total job time:  38.94s(wall), 455.98s(cpu) 
 Thu Mar 14 00:40:31 2019

        *************************************************************
        *                                                           *
        *  Thank you very much for using Q-Chem.  Have a nice day.  *
        *                                                           *
        *************************************************************


