
Running Job 1 of 1 selenium/02/Se-H.xyz.data/inputs/bond_singlet_2.5.in
qchem selenium/02/Se-H.xyz.data/inputs/bond_singlet_2.5.in_535.0 /staging/scratch/2868765/qchem535/ 1
/usr/usc/qchem/5.1.1/exe/qcprog.exe_s selenium/02/Se-H.xyz.data/inputs/bond_singlet_2.5.in_535.0 /staging/scratch/2868765/qchem535/
Check license passed

                  Welcome to Q-Chem
     A Quantum Leap Into The Future Of Chemistry


 Q-Chem 5.1, Q-Chem, Inc., Pleasanton, CA (2018)

 Yihan Shao,  Zhengting Gan,  E. Epifanovsky,  A. T. B. Gilbert,  M. Wormit,  
 J. Kussmann,  A. W. Lange,  A. Behn,  Jia Deng,  Xintian Feng,  D. Ghosh,  
 M. Goldey,  P. R. Horn,  L. D. Jacobson,  I. Kaliman,  T. Kus,  A. Landau,  
 Jie Liu,  E. I. Proynov,  R. M. Richard,  R. P. Steele,  E. J. Sundstrom,  
 H. L. Woodcock III,  P. M. Zimmerman,  D. Zuev,  B. Albrecht,  E. Alguire,  
 S. A. Baeppler,  D. Barton,  Z. Benda,  Y. A. Bernard,  E. J. Berquist,  
 K. B. Bravaya,  H. Burton,  D. Casanova,  Chun-Min Chang,  Yunqing Chen,  
 A. Chien,  K. D. Closser,  M. P. Coons,  S. Coriani,  S. Dasgupta,  
 A. L. Dempwolff,  M. Diedenhofen,  Hainam Do,  R. G. Edgar,  Po-Tung Fang,  
 S. Faraji,  S. Fatehi,  Qingguo Feng,  K. D. Fenk,  J. Fosso-Tande,  
 Qinghui Ge,  A. Ghysels,  G. Gidofalvi,  J. Gomes,  J. Gonthier,  A. Gunina,  
 D. Hait,  M. W. D. Hanson-Heine,  P. H. P. Harbach,  A. W. Hauser,  
 J. E. Herr,  E. G. Hohenstein,  Z. C. Holden,  Kerwin Hui,  B. C. Huynh,  
 T.-C. Jagau,  Hyunjun Ji,  B. Kaduk,  K. Khistyaev,  Jaehoon Kim,  
 P. Klunzinger,  K. Koh,  D. Kosenkov,  L. Koulias,  T. Kowalczyk,  
 C. M. Krauter,  A. Kunitsa,  Ka Un Lao,  A. Laurent,  K. V. Lawler,  
 Joonho Lee,  D. Lefrancois,  S. Lehtola,  D. S. Levine,  Yi-Pei Li,  
 You-Sheng Lin,  Fenglai Liu,  E. Livshits,  A. Luenser,  P. Manohar,  
 E. Mansoor,  S. F. Manzer,  Shan-Ping Mao,  Yuezhi Mao,  N. Mardirossian,  
 A. V. Marenich,  T. Markovich,  L. A. Martinez-Martinez,  S. A. Maurer,  
 N. J. Mayhall,  S. C. McKenzie,  J.-M. Mewes,  A. F. Morrison,  
 J. W. Mullinax,  K. Nanda,  T. S. Nguyen-Beck,  R. Olivares-Amaya,  
 J. A. Parkhill,  T. M. Perrine,  F. Plasser,  P. Pokhilko,  S. Prager,  
 A. Prociuk,  E. Ramos,  D. R. Rehn,  F. Rob,  M. Schneider,  N. Sergueev,  
 S. M. Sharada,  S. Sharma,  D. W. Small,  T. Stauch,  T. Stein,  
 Yu-Chuan Su,  A. J. W. Thom,  A. Tkatchenko,  T. Tsuchimochi,  N. M. Tubman,  
 L. Vogt,  M. L. Vidal,  O. Vydrov,  M. A. Watson,  J. Wenzel,  
 M. de Wergifosse,  T. A. Wesolowski,  A. White,  J. Witte,  A. Yamada,  
 Jun Yang,  K. Yao,  S. Yeganeh,  S. R. Yost,  Zhi-Qiang You,  A. Zech,  
 Igor Ying Zhang,  Xing Zhang,  Yan Zhao,  Ying Zhu,  B. R. Brooks,  
 G. K. L. Chan,  C. J. Cramer,  M. S. Gordon,  W. J. Hehre,  A. Klamt,  
 M. W. Schmidt,  C. D. Sherrill,  D. G. Truhlar,  A. Aspuru-Guzik,  R. Baer,  
 A. T. Bell,  N. A. Besley,  Jeng-Da Chai,  A. E. DePrince, III,  
 R. A. DiStasio Jr.,  A. Dreuw,  B. D. Dunietz,  T. R. Furlani,  
 Chao-Ping Hsu,  Yousung Jung,  Jing Kong,  D. S. Lambrecht,  WanZhen Liang,  
 C. Ochsenfeld,  V. A. Rassolov,  L. V. Slipchenko,  J. E. Subotnik,  
 T. Van Voorhis,  J. M. Herbert,  A. I. Krylov,  P. M. W. Gill,  M. Head-Gordon

 Contributors to earlier versions of Q-Chem not listed above: 
 R. D. Adamson,  B. Austin,  J. Baker,  G. J. O. Beran,  K. Brandhorst,  
 S. T. Brown,  E. F. C. Byrd,  A. K. Chakraborty,  C.-L. Cheng,  
 Siu Hung Chien,  D. M. Chipman,  D. L. Crittenden,  H. Dachsel,  
 R. J. Doerksen,  A. D. Dutoi,  L. Fusti-Molnar,  W. A. Goddard III,  
 A. Golubeva-Zadorozhnaya,  S. R. Gwaltney,  G. Hawkins,  A. Heyden,  
 S. Hirata,  G. Kedziora,  F. J. Keil,  C. Kelley,  Jihan Kim,  R. A. King,  
 R. Z. Khaliullin,  P. P. Korambath,  W. Kurlancheek,  A. M. Lee,  M. S. Lee,  
 S. V. Levchenko,  Ching Yeh Lin,  D. Liotard,  R. C. Lochan,  I. Lotan,  
 P. E. Maslen,  N. Nair,  D. P. O'Neill,  D. Neuhauser,  E. Neuscamman,  
 C. M. Oana,  R. Olson,  B. Peters,  R. Peverati,  P. A. Pieniazek,  
 Y. M. Rhee,  J. Ritchie,  M. A. Rohrdanz,  E. Rosta,  N. J. Russ,  
 H. F. Schaefer III,  N. E. Schultz,  N. Shenvi,  A. C. Simmonett,  A. Sodt,  
 D. Stuck,  K. S. Thanthiriwatte,  V. Vanovschi,  Tao Wang,  A. Warshel,  
 C. F. Williams,  Q. Wu,  X. Xu,  W. Zhang

 Please cite Q-Chem as follows:
 Y. Shao et al., Mol. Phys. 113, 184-215 (2015)
 DOI: 10.1080/00268976.2014.952696

 Q-Chem 5.1.1 for Intel X86 EM64T Linux

 Parts of Q-Chem use Armadillo 8.300.2 (Tropical Shenanigans).
 http://arma.sourceforge.net/

 Q-Chem begins on Thu Mar 14 00:44:24 2019  

Host: 
0

     Scratch files written to /staging/scratch/2868765/qchem535//
 Aug318 |scratch|qcdevops|jenkins|workspace|build_RNUM 6013   
Processing $rem in /usr/usc/qchem/5.1.1/config/preferences.
 MEM_TOTAL  2000 
Input Ideriv = 2
Curr. Ideriv = -1
Max.  Ideriv = 2

Checking the input file for inconsistencies... 	...done.

--------------------------------------------------------------
User input:
--------------------------------------------------------------

$comment
potential surface scanner
$end

$rem
JOBTYPE  PES_SCAN
UNRESTRICTED TRUE
SYM_IGNORE  TRUE
GEOM_OPT_MAX_CYCLES 400
SCF_MAX_CYCLES 400
METHOD   B3LYP
BASIS   6-31G**
PDB_PRINT 2
SCF_CONVERGENCE 6
THRESH 14
SCF_PRINT 1
$end
$molecule
0 1
C 0.058803 0.583964 -0.343186
H 0.113268 0.712995 -1.425486
C 0.394706 1.909116 0.369986
H -0.433173 2.611772 0.202127
H 0.448512 1.736444 1.450331
C 1.692268 2.554050 -0.130274
H 1.871378 3.497424 0.394704
H 2.549547 1.897744 0.041239
H 1.636264 2.773302 -1.202064
Se -1.819278 0.161080 0.115077
H -1.886466 -1.962349 -1.001406
Se 1.353663 -0.882680 0.019510
H 0.852709 -1.143957 1.382946
$end
$scan
stre 10 11 2.500000 2.501000 0.100000
$end
--------------------------------------------------------------
 ----------------------------------------------------------------
             Standard Nuclear Orientation (Angstroms)
    I     Atom           X                Y                Z
 ----------------------------------------------------------------
    1      C       0.0588030000     0.5839640000    -0.3431860000
    2      H       0.1132680000     0.7129950000    -1.4254860000
    3      C       0.3947060000     1.9091160000     0.3699860000
    4      H      -0.4331730000     2.6117720000     0.2021270000
    5      H       0.4485120000     1.7364440000     1.4503310000
    6      C       1.6922680000     2.5540500000    -0.1302740000
    7      H       1.8713780000     3.4974240000     0.3947040000
    8      H       2.5495470000     1.8977440000     0.0412390000
    9      H       1.6362640000     2.7733020000    -1.2020640000
   10      Se     -1.8192780000     0.1610800000     0.1150770000
   11      H      -1.8864660000    -1.9623490000    -1.0014060000
   12      Se      1.3536630000    -0.8826800000     0.0195100000
   13      H       0.8527090000    -1.1439570000     1.3829460000
 ----------------------------------------------------------------
 Nuclear Repulsion Energy =   591.8853157153 hartrees
 There are       47 alpha and       47 beta electrons
 Requested basis set is 6-31G(d,p)
 There are 52 shells and 155 basis functions

 Total QAlloc Memory Limit   2000 MB
 Mega-Array Size       188 MB
 MEM_STATIC part       192 MB
A total of 1 constraints
  
            1
    1   1.0100000
    2  10.0100000
    3  11.0100000
    4   2.5000000
    5   2.5010000
    6   0.1000000
    7   0.0000000
    8   0.0000000
    9   0.0000000
   10   0.0000000

                       Distance Matrix (Angstroms)
             C (  1)   H (  2)   C (  3)   H (  4)   H (  5)   C (  6)
   H (  2)  1.091324
   C (  3)  1.541906  2.175691
   H (  4)  2.156713  2.559898  1.098766
   H (  5)  2.167207  3.070857  1.095379  1.761131
   C (  6)  2.568030  2.749600  1.532928  2.152051  2.171110
   H (  7)  3.509723  3.762590  2.168846  2.476372  2.497989  1.094366
   H (  8)  2.842113  3.080644  2.179804  3.071211  2.534937  1.093198
   H (  9)  2.831829  2.571828  2.181656  2.506075  3.085616  1.095419
   Se( 10)  1.978895  2.532327  2.832372  2.816870  3.067172  4.256461
   H ( 11)  3.271244  3.366934  4.698160  4.948044  5.014400  5.827870
   Se( 12)  1.989788  2.484506  2.972635  3.929036  3.118711  3.456617
   H ( 13)  2.568176  3.447076  3.249171  4.141657  2.909403  4.082885
             H (  7)   H (  8)   H (  9)   Se( 10)   H ( 11)   Se( 12)
   H (  8)  1.773084
   H (  9)  1.768983  1.773835
   Se( 10)  4.983004  4.701924  4.527619
   H ( 11)  6.773451  5.972071  5.905614  2.400000
   Se( 12)  4.426524  3.026775  3.865011  3.341575  3.564602
   H ( 13)  4.853527  3.732477  4.758272  3.232666  3.722631  1.475865

 
 A cutoff of  1.0D-14 yielded   1236 shell pairs
 There are     11078 function pairs
 
 -------------------------------------------------------
 OpenMP Integral Computing Module                       
 Release: version 1.0, May 2013, Q-Chem Inc. Pittsburgh 
 -------------------------------------------------------
 Integral Job Info:
 Integral job number is                      11
 Integral operator is                         1
 short-range coefficients                     0
 long-range coefficients              100000000
 Omega coefficients                           0
 if combine SR and LR in K                    0
 Integral screening is                        0
 Integral computing path is                   2
 max size of driver memory is            800000
 size of driver memory is                593474
 size of scratch memory is             15267112
 max col of scratch BK array               1296
 max len of scratch array in speh3          155
 max len of scratch index in speh4           18
 max int batch size is                      520
 min int batch size is                       52
 fixed nKL is                                52
 max L of basis functions is                  2
 order of int derivative is                   0
 number of shells is                         52
 number of basis is                         155
 number of cartesian basis is               155
 number of contracted shell pairs          1236
 number of primitive shell pairs           5005
 maxK2 (contraction) of shell pair           36
 max number of K2 of shell pair               1
 max number of CS2 of shell pair             83
 max number of PS2 of shell pair            468
 mem total for path MDJ                  535932
 -------------------------------------------------------
 Smallest overlap matrix eigenvalue = 6.74E-04

 Scale SEOQF with 1.000000e-01/1.000000e-01/1.000000e+00

 Standard Electronic Orientation quadrupole field applied
 Nucleus-field energy     =     0.0000000052 hartrees
 Guess from superposition of atomic densities
 Warning:  Energy on first SCF cycle will be non-variational
 SAD guess density has 93.936381 electrons

 -----------------------------------------------------------------------
  General SCF calculation program by
  Eric Jon Sundstrom, Paul Horn, Yuezhi Mao, Dmitri Zuev, Alec White,
  David Stuck, Shaama M.S., Shane Yost, Joonho Lee, David Small,
  Daniel Levine, Susi Lehtola, Hugh Burton, Evgeny Epifanovsky
 -----------------------------------------------------------------------
 Exchange:     0.2000 Hartree-Fock + 0.0800 Slater + 0.7200 B88
 Correlation:  0.1900 VWN1RPA + 0.8100 LYP
 Using SG-1 standard quadrature grid
 using 12 threads for integral computing
 -------------------------------------------------------
 OpenMP Integral computing Module                
 Release: version 1.0, May 2013, Q-Chem Inc. Pittsburgh 
 -------------------------------------------------------
 -------------------------------------------------------
 OpenMP BLAS3 based DFT computing Module                
 Release: version 1.0, May 2013, Q-Chem Inc. Pittsburgh 
 -------------------------------------------------------
 A unrestricted SCF calculation will be
 performed using DIIS
 SCF converges when DIIS error is below 1.0e-06
 Alpha HF Exchange    Energy = -18.85732567866335
 Beta HF Exchange     Energy = -18.85732567866335
 DFT Correlation      Energy =  -5.13720253681327
 DFT Exchange         Energy = -149.86606188303696
 One-Electron (alpha) Energy = -4009.53190011119614
 One-Electron (beta)  Energy = -4009.53190011119614
 Total Coulomb        Energy = 2692.12823966615179
 ---------------------------------------
  Cycle       Energy         DIIS error
 ---------------------------------------
    1   -4927.7681606129      1.50e-01  
 Alpha HF Exchange    Energy = -18.96714263439689
 Beta HF Exchange     Energy = -18.96714263439686
 DFT Correlation      Energy =  -5.19574423200436
 DFT Exchange         Energy = -151.02197027395388
 One-Electron (alpha) Energy = -4021.88283427987608
 One-Electron (beta)  Energy = -4021.88283427987290
 Total Coulomb        Energy = 2724.61253990151818
    2   -4921.4198127125      9.47e-03  
 Alpha HF Exchange    Energy = -18.81260976928474
 Beta HF Exchange     Energy = -18.81260976928474
 DFT Correlation      Energy =  -5.13625766175348
 DFT Exchange         Energy = -149.77190350954581
 One-Electron (alpha) Energy = -3999.10894213303845
 One-Electron (beta)  Energy = -3999.10894213303754
 Total Coulomb        Energy = 2677.69317946555748
    3   -4921.1727697899      5.32e-03  
 Alpha HF Exchange    Energy = -18.96983933424026
 Beta HF Exchange     Energy = -18.96983933424027
 DFT Correlation      Energy =  -5.20000305600851
 DFT Exchange         Energy = -151.01508565566735
 One-Electron (alpha) Energy = -4022.99649741884014
 One-Electron (beta)  Energy = -4022.99649741884241
 Total Coulomb        Energy = 2727.05732299512647
    4   -4921.2051235022      4.61e-03  
 Alpha HF Exchange    Energy = -18.89585332964812
 Beta HF Exchange     Energy = -18.89585332964812
 DFT Correlation      Energy =  -5.16889291121068
 DFT Exchange         Energy = -150.45512946607460
 One-Electron (alpha) Energy = -4012.35125911391015
 One-Electron (beta)  Energy = -4012.35125911391106
 Total Coulomb        Energy = 2704.62078091133026
    5   -4921.6121506326      1.23e-03  
 Alpha HF Exchange    Energy = -18.88920467715405
 Beta HF Exchange     Energy = -18.88920467715402
 DFT Correlation      Energy =  -5.16807736930685
 DFT Exchange         Energy = -150.40612448573165
 One-Electron (alpha) Energy = -4012.07587614229487
 One-Electron (beta)  Energy = -4012.07587614229215
 Total Coulomb        Energy = 2703.98946366491327
    6   -4921.6295841085      3.66e-04  
 Alpha HF Exchange    Energy = -18.89142263680229
 Beta HF Exchange     Energy = -18.89142263680227
 DFT Correlation      Energy =  -5.16791478676305
 DFT Exchange         Energy = -150.42328582196231
 One-Electron (alpha) Energy = -4012.03022565495758
 One-Electron (beta)  Energy = -4012.03022565495485
 Total Coulomb        Energy = 2703.91872251407267
    7   -4921.6304589577      1.52e-04  
 Alpha HF Exchange    Energy = -18.89256540700186
 Beta HF Exchange     Energy = -18.89256540700189
 DFT Correlation      Energy =  -5.16871050530695
 DFT Exchange         Energy = -150.43248553002240
 One-Electron (alpha) Energy = -4012.33389343243152
 One-Electron (beta)  Energy = -4012.33389343243380
 Total Coulomb        Energy = 2704.53785244479968
    8   -4921.6309455489      2.88e-05  
 Alpha HF Exchange    Energy = -18.89256913723845
 Beta HF Exchange     Energy = -18.89256913723844
 DFT Correlation      Energy =  -5.16870992530003
 DFT Exchange         Energy = -150.43242490112993
 One-Electron (alpha) Energy = -4012.32601604207093
 One-Electron (beta)  Energy = -4012.32601604207002
 Total Coulomb        Energy = 2704.52203856642655
    9   -4921.6309508981      1.04e-05  
 Alpha HF Exchange    Energy = -18.89253610248565
 Beta HF Exchange     Energy = -18.89253610248569
 DFT Correlation      Energy =  -5.16867393456556
 DFT Exchange         Energy = -150.43218798920293
 One-Electron (alpha) Energy = -4012.31118849787481
 One-Electron (beta)  Energy = -4012.31118849787799
 Total Coulomb        Energy = 2704.49204392610864
   10   -4921.6309514779      6.13e-06  
 Alpha HF Exchange    Energy = -18.89256443399340
 Beta HF Exchange     Energy = -18.89256443399335
 DFT Correlation      Energy =  -5.16869296227987
 DFT Exchange         Energy = -150.43238426545761
 One-Electron (alpha) Energy = -4012.32278092658589
 One-Electron (beta)  Energy = -4012.32278092658180
 Total Coulomb        Energy = 2704.51549987084400
   11   -4921.6309523576      1.45e-06  
 Alpha HF Exchange    Energy = -18.89256168923552
 Beta HF Exchange     Energy = -18.89256168923551
 DFT Correlation      Energy =  -5.16869434703016
 DFT Exchange         Energy = -150.43237154241564
 One-Electron (alpha) Energy = -4012.32171787490643
 One-Electron (beta)  Energy = -4012.32171787490597
 Total Coulomb        Energy = 2704.51335691028135
   12   -4921.6309523870      2.19e-07  Convergence criterion met
 ---------------------------------------
 SCF time:   CPU 59.93s  wall 5.00s 
<S^2> =          0.000000000
 Alpha HF Exchange    Energy = -18.89256168923552
 Beta HF Exchange     Energy = -18.89256168923551
 DFT Correlation      Energy =  -5.16869434703016
 DFT Exchange         Energy = -150.43237154241564
 One-Electron (alpha) Energy = -4012.32171787490643
 One-Electron (beta)  Energy = -4012.32171787490597
 Total Coulomb        Energy = 2704.51335691028135
 Nuclear repulsion Energy = 591.88531572048532
 SCF   energy in the final basis set =    -4921.6309523870
 Total energy in the final basis set =    -4921.6309523870
 
 --------------------------------------------------------------
 
                    Orbital Energies (a.u.)
 --------------------------------------------------------------
 
 Alpha MOs
 -- Occupied --
*******-453.902 -58.115 -58.097 -52.173 -52.172 -52.168 -52.155
-52.153 -52.151 -10.260 -10.211 -10.188  -7.846  -7.830  -5.793
 -5.788  -5.777  -5.776  -5.772  -5.762  -2.126  -2.126  -2.116
 -2.113  -2.111  -2.110  -2.109  -2.101  -2.098  -2.096  -0.821
 -0.738  -0.689  -0.636  -0.582  -0.471  -0.439  -0.426  -0.388
 -0.378  -0.361  -0.346  -0.319  -0.293  -0.242  -0.224
 -- Virtual --
 -0.135  -0.021   0.029   0.043   0.093   0.117   0.137   0.150
  0.163   0.170   0.189   0.221   0.231   0.242   0.275   0.288
  0.298   0.313   0.336   0.353   0.448   0.456   0.473   0.492
  0.520   0.551   0.564   0.590   0.607   0.627   0.631   0.667
  0.714   0.748   0.771   0.825   0.832   0.852   0.862   0.868
  0.889   0.912   0.920   0.938   0.943   1.007   1.051   1.115
  1.334   1.378   1.439   1.529   1.542   1.606   1.656   1.698
  1.773   1.823   1.863   1.953   2.010   2.018   2.036   2.051
  2.060   2.079   2.093   2.108   2.115   2.118   2.152   2.246
  2.299   2.354   2.436   2.478   2.523   2.593   2.621   2.670
  2.711   2.745   2.813   2.876   2.897   3.184   3.270   3.304
  3.407   3.458   3.524   4.178   4.224   4.258   4.275   4.299
  4.323   4.342   4.352   4.392   4.406   4.485   4.518   4.629
  5.442   5.474  89.685  89.809
 
 Beta MOs
 -- Occupied --
*******-453.902 -58.115 -58.097 -52.173 -52.172 -52.168 -52.155
-52.153 -52.151 -10.260 -10.211 -10.188  -7.846  -7.830  -5.793
 -5.788  -5.777  -5.776  -5.772  -5.762  -2.126  -2.126  -2.116
 -2.113  -2.111  -2.110  -2.109  -2.101  -2.098  -2.096  -0.821
 -0.738  -0.689  -0.636  -0.582  -0.471  -0.439  -0.426  -0.388
 -0.378  -0.361  -0.346  -0.319  -0.293  -0.242  -0.224
 -- Virtual --
 -0.135  -0.021   0.029   0.043   0.093   0.117   0.137   0.150
  0.163   0.170   0.189   0.221   0.231   0.242   0.275   0.288
  0.298   0.313   0.336   0.353   0.448   0.456   0.473   0.492
  0.520   0.551   0.564   0.590   0.607   0.627   0.631   0.667
  0.714   0.748   0.771   0.825   0.832   0.852   0.862   0.868
  0.889   0.912   0.920   0.938   0.943   1.007   1.051   1.115
  1.334   1.378   1.439   1.529   1.542   1.606   1.656   1.698
  1.773   1.823   1.863   1.953   2.010   2.018   2.036   2.051
  2.060   2.079   2.093   2.108   2.115   2.118   2.152   2.246
  2.299   2.354   2.436   2.478   2.523   2.593   2.621   2.670
  2.711   2.745   2.813   2.876   2.897   3.184   3.270   3.304
  3.407   3.458   3.524   4.178   4.224   4.258   4.275   4.299
  4.323   4.342   4.352   4.392   4.406   4.485   4.518   4.629
  5.442   5.474  89.685  89.809
 --------------------------------------------------------------
 
          Ground-State Mulliken Net Atomic Charges

     Atom                 Charge (a.u.)    Spin (a.u.)
  --------------------------------------------------------
      1 C                    -0.229145      -0.000000
      2 H                     0.158215       0.000000
      3 C                    -0.195797      -0.000000
      4 H                     0.121278      -0.000000
      5 H                     0.124913       0.000000
      6 C                    -0.327762       0.000000
      7 H                     0.112699       0.000000
      8 H                     0.139205      -0.000000
      9 H                     0.108532       0.000000
     10 Se                   -0.051016       0.000000
     11 H                     0.024832       0.000000
     12 Se                   -0.055903       0.000000
     13 H                     0.069949      -0.000000
  --------------------------------------------------------
  Sum of atomic charges =     0.000000
  Sum of spin   charges =    -0.000000

 -----------------------------------------------------------------
                    Cartesian Multipole Moments
 -----------------------------------------------------------------
    Charge (ESU x 10^10)
                 0.0000
    Dipole Moment (Debye)
         X       0.6335      Y       1.3881      Z       0.1534
       Tot       1.5335
    Quadrupole Moments (Debye-Ang)
        XX     -61.9044     XY       1.4033     YY     -55.2219
        XZ      -0.0900     YZ      -0.2091     ZZ     -56.5745
    Octopole Moments (Debye-Ang^2)
       XXX     -18.1623    XXY     -21.8145    XYY      -4.4912
       YYY     -51.8075    XXZ       0.1277    XYZ      -4.2798
       YYZ       1.1519    XZZ      -1.0398    YZZ     -19.5494
       ZZZ      -5.0852
    Hexadecapole Moments (Debye-Ang^3)
      XXXX    -827.2013   XXXY     -38.6277   XXYY    -238.2650
      XYYY     -36.3666   YYYY    -643.3090   XXXZ      -6.8759
      XXYZ       2.8441   XYYZ       8.2323   YYYZ      -2.0062
      XXZZ    -160.1345   XYZZ     -14.2799   YYZZ    -125.7210
      XZZZ       3.5879   YZZZ      -8.7594   ZZZZ    -115.7805
 -----------------------------------------------------------------
 Calculating analytic gradient of the SCF energy
 Gradient of SCF Energy
            1           2           3           4           5           6
    1  -0.0001104  -0.0000217  -0.0000853   0.0000275  -0.0000088   0.0000606
    2  -0.0002451   0.0000673   0.0000821   0.0000136  -0.0000009   0.0000137
    3  -0.0000584   0.0000117   0.0001757   0.0000055  -0.0000082  -0.0000582
            7           8           9          10          11          12
    1  -0.0000445  -0.0000168  -0.0000309   0.0017028  -0.0015400   0.0000236
    2   0.0000051   0.0000102   0.0000071   0.0496634  -0.0496410   0.0000072
    3  -0.0000005  -0.0000227  -0.0000030   0.0260500  -0.0260539  -0.0000391
           13
    1   0.0000439
    2   0.0000173
    3   0.0000011
 Max gradient component =       4.966E-02
 RMS gradient           =       1.270E-02
 Gradient time:  CPU 20.13 s  wall 1.75 s
 Geometry Optimization Parameters
   NAtoms,    NIC,     NZ,  NCons,   NDum,   NFix, NCnnct, MaxDiis
       13      82       0       1       0       0       0       0


** CONSTRAINED OPTIMIZATION IN DELOCALIZED INTERNAL COORDINATES **
   Searching for a Minimum

   Optimization Cycle:   1

                       Coordinates (Angstroms)
     ATOM                X               Y               Z
      1  C         0.0588030000    0.5839640000   -0.3431860000
      2  H         0.1132680000    0.7129950000   -1.4254860000
      3  C         0.3947060000    1.9091160000    0.3699860000
      4  H        -0.4331730000    2.6117720000    0.2021270000
      5  H         0.4485120000    1.7364440000    1.4503310000
      6  C         1.6922680000    2.5540500000   -0.1302740000
      7  H         1.8713780000    3.4974240000    0.3947040000
      8  H         2.5495470000    1.8977440000    0.0412390000
      9  H         1.6362640000    2.7733020000   -1.2020640000
     10  Se       -1.8192780000    0.1610800000    0.1150770000
     11  H        -1.8864660000   -1.9623490000   -1.0014060000
     12  Se        1.3536630000   -0.8826800000    0.0195100000
     13  H         0.8527090000   -1.1439570000    1.3829460000
   Point Group: c1    Number of degrees of freedom:    33


   Energy is  -4921.630952387

              Constraints and their Current Values
                                        Value     Constraint
   Distance(Angs):       10  11             2.400000     2.500000

 Attempting to Generate Delocalized Internal Coordinates

   Using Lagrange Multiplier Algorithm


 34 Hessian modes will be used to form the next step
  Hessian Eigenvalues:
    -0.985214    0.045000    0.045000    0.045000    0.045000    0.067888
     0.078299    0.081600    0.082760    0.083662    0.085422    0.104308
     0.108819    0.132615    0.154660    0.159008    0.160000    0.160000
     0.160000    0.160000    0.160000    0.179694    0.197374    0.215970
     0.219609    0.283508    0.291547    0.338190    0.341939    0.341983
     0.343129    0.344457    0.346600    1.015008

 Minimum Search - Taking P-RFO Step
 Searching for Lamda that Maximizes Along the Constraint modes Only
 Value Taken    Lamda =   0.02981716
 Searching for Lamda that Minimizes Along All other modes
 Value Taken    Lamda =  -0.00839375
 Step Taken.  Stepsize is  0.184810

                             Maximum     Tolerance    Cnvgd?
         Gradient            0.188973       0.000300      NO
         Displacement        0.184799       0.001200      NO
         Energy change     *********       0.000001      NO


 New Cartesian Coordinates Obtained by Inverse Iteration

 Displacement from previous Coordinates is:  0.166726
 ----------------------------------------------------------------
             Standard Nuclear Orientation (Angstroms)
    I     Atom           X                Y                Z
 ----------------------------------------------------------------
    1      C       0.0563320689     0.5921216167    -0.3378338932
    2      H       0.1077313636     0.7201452542    -1.4204062758
    3      C       0.3991802397     1.9162868581     0.3733893738
    4      H      -0.4270637368     2.6214576933     0.2079046568
    5      H       0.4559288366     1.7438749328     1.4536448198
    6      C       1.6972019200     2.5568832423    -0.1310298257
    7      H       1.8811324144     3.4998585726     0.3930200854
    8      H       2.5529205681     1.8979094108     0.0380705684
    9      H       1.6386484142     2.7759924676    -1.2027169213
   10      Se     -1.8221141544     0.1756814081     0.1268280146
   11      H      -1.9040051083    -2.0338846957    -1.0350982375
   12      Se      1.3470225532    -0.8790756020     0.0213747303
   13      H       0.8492856207    -1.1383461588     1.3863569044
 ----------------------------------------------------------------
 Nuclear Repulsion Energy =   591.4395376395 hartrees
 There are       47 alpha and       47 beta electrons

                       Distance Matrix (Angstroms)
             C (  1)   H (  2)   C (  3)   H (  4)   H (  5)   C (  6)
   H (  2)  1.091327
   C (  3)  1.541686  2.175638
   H (  4)  2.156318  2.559764  1.098786
   H (  5)  2.166935  3.070738  1.095399  1.761163
   C (  6)  2.568173  2.750003  1.532861  2.152104  2.170930
   H (  7)  3.509840  3.763014  2.168932  2.476616  2.497921  1.094377
   H (  8)  2.842418  3.081109  2.179765  3.071266  2.534749  1.093204
   H (  9)  2.832144  2.572470  2.181625  2.506173  3.085506  1.095423
   Se( 10)  1.979367  2.532722  2.832781  2.816835  3.067434  4.257018
   H ( 11)  3.350374  3.432234  4.784596  5.039705  5.102411  5.904336
   Se( 12)  1.989808  2.484368  2.972603  3.928856  3.118544  3.457118
   H ( 13)  2.568293  3.447001  3.249535  4.141732  2.909717  4.083644
             H (  7)   H (  8)   H (  9)   Se( 10)   H ( 11)   Se( 12)
   H (  8)  1.773000
   H (  9)  1.768942  1.773831
   Se( 10)  4.983477  4.702646  4.528376
   H ( 11)  6.854860  6.039444  5.976070  2.497791
   Se( 12)  4.427015  3.027559  3.865614  3.341715  3.608171
   H ( 13)  4.854314  3.733510  4.759038  3.232562  3.774393  1.475852

 
 Applying Cartesian multipole field
    Component          Value
    ---------          -----
     (2,0,0)        1.00000E-11
     (0,2,0)        2.00000E-11
     (0,0,2)       -3.00000E-10
 Nucleus-field energy     =     0.0000000051 hartrees
 Requested basis set is 6-31G(d,p)
 There are 52 shells and 155 basis functions
 A cutoff of  1.0D-14 yielded   1235 shell pairs
 There are     11075 function pairs
 Smallest overlap matrix eigenvalue = 6.74E-04
 Guess from superposition of atomic densities
 Warning:  Energy on first SCF cycle will be non-variational
 SAD guess density has 93.936381 electrons

 -----------------------------------------------------------------------
  General SCF calculation program by
  Eric Jon Sundstrom, Paul Horn, Yuezhi Mao, Dmitri Zuev, Alec White,
  David Stuck, Shaama M.S., Shane Yost, Joonho Lee, David Small,
  Daniel Levine, Susi Lehtola, Hugh Burton, Evgeny Epifanovsky
 -----------------------------------------------------------------------
 Exchange:     0.2000 Hartree-Fock + 0.0800 Slater + 0.7200 B88
 Correlation:  0.1900 VWN1RPA + 0.8100 LYP
 Using SG-1 standard quadrature grid
 using 12 threads for integral computing
 -------------------------------------------------------
 OpenMP Integral computing Module                
 Release: version 1.0, May 2013, Q-Chem Inc. Pittsburgh 
 -------------------------------------------------------
 -------------------------------------------------------
 OpenMP BLAS3 based DFT computing Module                
 Release: version 1.0, May 2013, Q-Chem Inc. Pittsburgh 
 -------------------------------------------------------
 A unrestricted SCF calculation will be
 performed using DIIS
 SCF converges when DIIS error is below 1.0e-06
 Alpha HF Exchange    Energy = -18.85660409943008
 Beta HF Exchange     Energy = -18.85660409943008
 DFT Correlation      Energy =  -5.13663191848022
 DFT Exchange         Energy = -149.86446433469172
 One-Electron (alpha) Energy = -4009.08701672714960
 One-Electron (beta)  Energy = -4009.08701672714960
 Total Coulomb        Energy = 2691.68744032330278
 ---------------------------------------
  Cycle       Energy         DIIS error
 ---------------------------------------
    1   -4927.7613599384      1.50e-01  
 Alpha HF Exchange    Energy = -18.96821312999480
 Beta HF Exchange     Energy = -18.96821312999477
 DFT Correlation      Energy =  -5.19631191147582
 DFT Exchange         Energy = -151.02976095864528
 One-Electron (alpha) Energy = -4021.85158947386071
 One-Electron (beta)  Energy = -4021.85158947385798
 Total Coulomb        Energy = 2725.03544949639718
    2   -4921.3906909368      9.49e-03  
 Alpha HF Exchange    Energy = -18.81080290007642
 Beta HF Exchange     Energy = -18.81080290007642
 DFT Correlation      Energy =  -5.13447297481987
 DFT Exchange         Energy = -149.75466935202266
 One-Electron (alpha) Energy = -3997.85153637796748
 One-Electron (beta)  Energy = -3997.85153637796702
 Total Coulomb        Energy = 2675.67168960781146
    3   -4921.1025936305      5.52e-03  
 Alpha HF Exchange    Energy = -18.97211065727698
 Beta HF Exchange     Energy = -18.97211065727700
 DFT Correlation      Energy =  -5.20097874357893
 DFT Exchange         Energy = -151.03132382079247
 One-Electron (alpha) Energy = -4023.09913883256013
 One-Electron (beta)  Energy = -4023.09913883256149
 Total Coulomb        Energy = 2727.77986822508137
    4   -4921.1553956744      4.72e-03  
 Alpha HF Exchange    Energy = -18.89496011971344
 Beta HF Exchange     Energy = -18.89496011971343
 DFT Correlation      Energy =  -5.16858290597894
 DFT Exchange         Energy = -150.45111862279037
 One-Electron (alpha) Energy = -4012.01299465209877
 One-Electron (beta)  Energy = -4012.01299465209649
 Total Coulomb        Energy = 2704.39428926381152
    5   -4921.6017841640      1.25e-03  
 Alpha HF Exchange    Energy = -18.88708718876489
 Beta HF Exchange     Energy = -18.88708718876488
 DFT Correlation      Energy =  -5.16687237292798
 DFT Exchange         Energy = -150.39339184194517
 One-Electron (alpha) Energy = -4011.36571579266638
 One-Electron (beta)  Energy = -4011.36571579266638
 Total Coulomb        Energy = 2703.00697525573196
    6   -4921.6193572774      4.06e-04  
 Alpha HF Exchange    Energy = -18.89034810965244
 Beta HF Exchange     Energy = -18.89034810965241
 DFT Correlation      Energy =  -5.16719908575783
 DFT Exchange         Energy = -150.41845544948890
 One-Electron (alpha) Energy = -4011.56561113716361
 One-Electron (beta)  Energy = -4011.56561113715998
 Total Coulomb        Energy = 2703.43768530012767
    7   -4921.6203500842      1.79e-04  
 Alpha HF Exchange    Energy = -18.89149811624767
 Beta HF Exchange     Energy = -18.89149811624766
 DFT Correlation      Energy =  -5.16804319854676
 DFT Exchange         Energy = -150.42797256836002
 One-Electron (alpha) Energy = -4011.84082936971436
 One-Electron (beta)  Energy = -4011.84082936971390
 Total Coulomb        Energy = 2704.00021133710652
    8   -4921.6209217571      4.05e-05  
 Alpha HF Exchange    Energy = -18.89166972920728
 Beta HF Exchange     Energy = -18.89166972920725
 DFT Correlation      Energy =  -5.16811201780892
 DFT Exchange         Energy = -150.42910383311562
 One-Electron (alpha) Energy = -4011.88411591906697
 One-Electron (beta)  Energy = -4011.88411591906424
 Total Coulomb        Energy = 2704.08831970541132
    9   -4921.6209297975      1.92e-05  
 Alpha HF Exchange    Energy = -18.89154224175821
 Beta HF Exchange     Energy = -18.89154224175818
 DFT Correlation      Energy =  -5.16801435939919
 DFT Exchange         Energy = -150.42819695281509
 One-Electron (alpha) Energy = -4011.83237414366749
 One-Electron (beta)  Energy = -4011.83237414366477
 Total Coulomb        Energy = 2703.98357239858251
   10   -4921.6209340399      1.20e-05  
 Alpha HF Exchange    Energy = -18.89159942437310
 Beta HF Exchange     Energy = -18.89159942437311
 DFT Correlation      Energy =  -5.16805418698503
 DFT Exchange         Energy = -150.42860585778493
 One-Electron (alpha) Energy = -4011.85562262975554
 One-Electron (beta)  Energy = -4011.85562262975509
 Total Coulomb        Energy = 2704.03062869163932
   11   -4921.6209378168      1.16e-06  
 Alpha HF Exchange    Energy = -18.89160098402443
 Beta HF Exchange     Energy = -18.89160098402442
 DFT Correlation      Energy =  -5.16805767740882
 DFT Exchange         Energy = -150.42862540146155
 One-Electron (alpha) Energy = -4011.85594540736565
 One-Electron (beta)  Energy = -4011.85594540736429
 Total Coulomb        Energy = 2704.03130038182371
   12   -4921.6209378352      2.96e-07  Convergence criterion met
 ---------------------------------------
 SCF time:   CPU 59.84s  wall 5.00s 
<S^2> =          0.000000000
 Alpha HF Exchange    Energy = -18.89160098402443
 Beta HF Exchange     Energy = -18.89160098402442
 DFT Correlation      Energy =  -5.16805767740882
 DFT Exchange         Energy = -150.42862540146155
 One-Electron (alpha) Energy = -4011.85594540736565
 One-Electron (beta)  Energy = -4011.85594540736429
 Total Coulomb        Energy = 2704.03130038182371
 Nuclear repulsion Energy = 591.43953764459752
 SCF   energy in the final basis set =    -4921.6209378352
 Total energy in the final basis set =    -4921.6209378352
 
 --------------------------------------------------------------
 
                    Orbital Energies (a.u.)
 --------------------------------------------------------------
 
 Alpha MOs
 -- Occupied --
*******-453.902 -58.116 -58.097 -52.174 -52.172 -52.169 -52.155
-52.154 -52.151 -10.260 -10.212 -10.188  -7.847  -7.830  -5.794
 -5.789  -5.777  -5.776  -5.772  -5.762  -2.127  -2.126  -2.117
 -2.114  -2.111  -2.110  -2.109  -2.101  -2.098  -2.096  -0.822
 -0.739  -0.689  -0.636  -0.583  -0.471  -0.439  -0.426  -0.388
 -0.379  -0.361  -0.346  -0.319  -0.288  -0.242  -0.224
 -- Virtual --
 -0.144  -0.022   0.029   0.043   0.093   0.117   0.136   0.150
  0.163   0.170   0.189   0.220   0.231   0.242   0.275   0.288
  0.299   0.313   0.336   0.352   0.448   0.455   0.472   0.492
  0.520   0.550   0.560   0.590   0.606   0.627   0.630   0.667
  0.713   0.748   0.770   0.825   0.832   0.852   0.863   0.868
  0.888   0.911   0.919   0.937   0.943   1.007   1.050   1.114
  1.334   1.377   1.439   1.529   1.541   1.606   1.656   1.698
  1.773   1.823   1.863   1.953   2.009   2.017   2.035   2.050
  2.059   2.078   2.092   2.104   2.112   2.115   2.152   2.245
  2.299   2.354   2.436   2.478   2.523   2.592   2.621   2.670
  2.711   2.745   2.813   2.876   2.897   3.184   3.270   3.303
  3.407   3.458   3.523   4.178   4.223   4.252   4.272   4.298
  4.323   4.342   4.351   4.392   4.406   4.485   4.518   4.629
  5.442   5.474  89.686  89.809
 
 Beta MOs
 -- Occupied --
*******-453.902 -58.116 -58.097 -52.174 -52.172 -52.169 -52.155
-52.154 -52.151 -10.260 -10.212 -10.188  -7.847  -7.830  -5.794
 -5.789  -5.777  -5.776  -5.772  -5.762  -2.127  -2.126  -2.117
 -2.114  -2.111  -2.110  -2.109  -2.101  -2.098  -2.096  -0.822
 -0.739  -0.689  -0.636  -0.583  -0.471  -0.439  -0.426  -0.388
 -0.379  -0.361  -0.346  -0.319  -0.288  -0.242  -0.224
 -- Virtual --
 -0.144  -0.022   0.029   0.043   0.093   0.117   0.136   0.150
  0.163   0.170   0.189   0.220   0.231   0.242   0.275   0.288
  0.299   0.313   0.336   0.352   0.448   0.455   0.472   0.492
  0.520   0.550   0.560   0.590   0.606   0.627   0.630   0.667
  0.713   0.748   0.770   0.825   0.832   0.852   0.863   0.868
  0.888   0.911   0.919   0.937   0.943   1.007   1.050   1.114
  1.334   1.377   1.439   1.529   1.541   1.606   1.656   1.698
  1.773   1.823   1.863   1.953   2.009   2.017   2.035   2.050
  2.059   2.078   2.092   2.104   2.112   2.115   2.152   2.245
  2.299   2.354   2.436   2.478   2.523   2.592   2.621   2.670
  2.711   2.745   2.813   2.876   2.897   3.184   3.270   3.303
  3.407   3.458   3.523   4.178   4.223   4.252   4.272   4.298
  4.323   4.342   4.351   4.392   4.406   4.485   4.518   4.629
  5.442   5.474  89.686  89.809
 --------------------------------------------------------------
 
          Ground-State Mulliken Net Atomic Charges

     Atom                 Charge (a.u.)    Spin (a.u.)
  --------------------------------------------------------
      1 C                    -0.230065       0.000000
      2 H                     0.158648      -0.000000
      3 C                    -0.195882      -0.000000
      4 H                     0.121521       0.000000
      5 H                     0.125172      -0.000000
      6 C                    -0.327648       0.000000
      7 H                     0.112951      -0.000000
      8 H                     0.139373       0.000000
      9 H                     0.108731       0.000000
     10 Se                   -0.050493      -0.000000
     11 H                     0.022541       0.000000
     12 Se                   -0.054810      -0.000000
     13 H                     0.069962       0.000000
  --------------------------------------------------------
  Sum of atomic charges =     0.000000
  Sum of spin   charges =    -0.000000

 -----------------------------------------------------------------
                    Cartesian Multipole Moments
 -----------------------------------------------------------------
    Charge (ESU x 10^10)
                 0.0000
    Dipole Moment (Debye)
         X       0.6678      Y       1.4287      Z       0.1682
       Tot       1.5861
    Quadrupole Moments (Debye-Ang)
        XX     -61.9326     XY       1.3541     YY     -55.1860
        XZ      -0.1169     YZ      -0.2023     ZZ     -56.5763
    Octopole Moments (Debye-Ang^2)
       XXX     -17.4614    XXY     -21.9731    XYY      -4.1720
       YYY     -52.8168    XXZ      -0.0302    XYZ      -4.2706
       YYZ       0.8301    XZZ      -0.8810    YZZ     -19.8923
       ZZZ      -5.8109
    Hexadecapole Moments (Debye-Ang^3)
      XXXX    -828.2689   XXXY     -39.4675   XXYY    -239.0128
      XYYY     -36.4391   YYYY    -646.4405   XXXZ      -6.5324
      XXYZ       2.6594   XYYZ       8.5755   YYYZ      -2.4174
      XXZZ    -160.3675   XYZZ     -14.3967   YYZZ    -126.3806
      XZZZ       4.2976   YZZZ      -9.5880   ZZZZ    -116.7003
 -----------------------------------------------------------------
 Calculating analytic gradient of the SCF energy
 Gradient of SCF Energy
            1           2           3           4           5           6
    1   0.0002441   0.0000241   0.0001361  -0.0000576   0.0000042  -0.0000959
    2   0.0002595   0.0000171  -0.0002003  -0.0000297  -0.0000072   0.0000268
    3   0.0000854   0.0000131  -0.0002113  -0.0000217   0.0000205   0.0001134
            7           8           9          10          11          12
    1   0.0000343   0.0000001  -0.0000288   0.0013913  -0.0016682  -0.0000592
    2   0.0000248   0.0000262   0.0000136   0.0461380  -0.0462740  -0.0000318
    3  -0.0000308  -0.0000190  -0.0000113   0.0244481  -0.0243298  -0.0000719
           13
    1   0.0000755
    2   0.0000371
    3   0.0000152
 Max gradient component =       4.627E-02
 RMS gradient           =       1.184E-02
 Gradient time:  CPU 20.11 s  wall 1.75 s
 Geometry Optimization Parameters
   NAtoms,    NIC,     NZ,  NCons,   NDum,   NFix, NCnnct, MaxDiis
       13      82       0       1       0       0       0       0

 Cartesian Hessian Update
 Hessian Updated using BFGS Update
**WARNING** Hereditary positive definiteness endangered


** CONSTRAINED OPTIMIZATION IN DELOCALIZED INTERNAL COORDINATES **
   Searching for a Minimum

   Optimization Cycle:   2

                       Coordinates (Angstroms)
     ATOM                X               Y               Z
      1  C         0.0563320689    0.5921216167   -0.3378338932
      2  H         0.1077313636    0.7201452542   -1.4204062758
      3  C         0.3991802397    1.9162868581    0.3733893738
      4  H        -0.4270637368    2.6214576933    0.2079046568
      5  H         0.4559288366    1.7438749328    1.4536448198
      6  C         1.6972019200    2.5568832423   -0.1310298257
      7  H         1.8811324144    3.4998585726    0.3930200854
      8  H         2.5529205681    1.8979094108    0.0380705684
      9  H         1.6386484142    2.7759924676   -1.2027169213
     10  Se       -1.8221141544    0.1756814081    0.1268280146
     11  H        -1.9040051083   -2.0338846957   -1.0350982375
     12  Se        1.3470225532   -0.8790756020    0.0213747303
     13  H         0.8492856207   -1.1383461588    1.3863569044
   Point Group: c1    Number of degrees of freedom:    33


   Energy is  -4921.620937835

              Constraints and their Current Values
                                        Value     Constraint
   Distance(Angs):       10  11             2.497791     2.500000
 Hessian Updated using BFGS Update
**WARNING** Hereditary positive definiteness endangered

   Using Lagrange Multiplier Algorithm


 29 Hessian modes will be used to form the next step
  Hessian Eigenvalues:
    -1.010276    0.044983    0.044996    0.067888    0.078297    0.081597
     0.082760    0.083661    0.085421    0.104299    0.108808    0.132598
     0.154660    0.158646    0.159956    0.159998    0.179694    0.197315
     0.215960    0.219485    0.283339    0.291538    0.338187    0.341939
     0.341982    0.343129    0.344457    0.346600    0.989837

 Minimum Search - Taking P-RFO Step
 Searching for Lamda that Maximizes Along the Constraint modes Only
 Value Taken    Lamda =   0.00000222
 Searching for Lamda that Minimizes Along All other modes
 Value Taken    Lamda =  -0.00005635
 Step Taken.  Stepsize is  0.005676

                             Maximum     Tolerance    Cnvgd?
         Gradient            0.006235       0.000300      NO
         Displacement        0.006329       0.001200      NO
         Energy change      0.010015       0.000001      NO


 New Cartesian Coordinates Obtained by Inverse Iteration

 Displacement from previous Coordinates is:  0.006782
 ----------------------------------------------------------------
             Standard Nuclear Orientation (Angstroms)
    I     Atom           X                Y                Z
 ----------------------------------------------------------------
    1      C       0.0567062076     0.5921348575    -0.3379831918
    2      H       0.1081784955     0.7201331172    -1.4205648759
    3      C       0.3991459726     1.9166268319     0.3736963286
    4      H      -0.4268841133     2.6220407554     0.2084782317
    5      H       0.4559996622     1.7441151616     1.4539034497
    6      C       1.6971631495     2.5570437237    -0.1311672937
    7      H       1.8808904338     3.4999001094     0.3931372950
    8      H       2.5528594125     1.8979888856     0.0377305662
    9      H       1.6383917173     2.7762892806    -1.2028068176
   10      Se     -1.8208417168     0.1764679930     0.1262535637
   11      H      -1.9055098991    -2.0358450458    -1.0349964245
   12      Se      1.3476967903    -0.8787942926     0.0218213589
   13      H       0.8484048878    -1.1391963775     1.3860018097
 ----------------------------------------------------------------
 Nuclear Repulsion Energy =   591.5099586446 hartrees
 There are       47 alpha and       47 beta electrons

                       Distance Matrix (Angstroms)
             C (  1)   H (  2)   C (  3)   H (  4)   H (  5)   C (  6)
   H (  2)  1.091337
   C (  3)  1.542087  2.176151
   H (  4)  2.157081  2.560728  1.098741
   H (  5)  2.167337  3.071170  1.095372  1.761057
   C (  6)  2.568022  2.749847  1.532928  2.152013  2.171126
   H (  7)  3.509599  3.762862  2.168571  2.475997  2.497663  1.094362
   H (  8)  2.842041  3.080655  2.179840  3.071201  2.534964  1.093204
   H (  9)  2.831992  2.572304  2.181768  2.506169  3.085700  1.095415
   Se( 10)  1.978252  2.531667  2.831559  2.816151  3.066623  4.255557
   H ( 11)  3.352969  3.434970  4.787263  5.042664  5.104846  5.906842
   Se( 12)  1.989912  2.484643  2.972868  3.929354  3.118595  3.456952
   H ( 13)  2.568349  3.447007  3.250331  4.142442  2.910683  4.084652
             H (  7)   H (  8)   H (  9)   Se( 10)   H ( 11)   Se( 12)
   H (  8)  1.773126
   H (  9)  1.769027  1.773865
   Se( 10)  4.981892  4.701142  4.526783
   H ( 11)  6.857176  6.041759  5.978632  2.500000
   Se( 12)  4.426639  3.027077  3.865728  3.341275  3.610953
   H ( 13)  4.855206  3.734635  4.759941  3.231535  3.774819  1.475835

 
 Applying Cartesian multipole field
    Component          Value
    ---------          -----
     (2,0,0)        1.00000E-11
     (0,2,0)        2.00000E-11
     (0,0,2)       -3.00000E-10
 Nucleus-field energy     =     0.0000000051 hartrees
 Requested basis set is 6-31G(d,p)
 There are 52 shells and 155 basis functions
 A cutoff of  1.0D-14 yielded   1235 shell pairs
 There are     11075 function pairs
 Smallest overlap matrix eigenvalue = 6.74E-04
 Guess from superposition of atomic densities
 Warning:  Energy on first SCF cycle will be non-variational
 SAD guess density has 93.936381 electrons

 -----------------------------------------------------------------------
  General SCF calculation program by
  Eric Jon Sundstrom, Paul Horn, Yuezhi Mao, Dmitri Zuev, Alec White,
  David Stuck, Shaama M.S., Shane Yost, Joonho Lee, David Small,
  Daniel Levine, Susi Lehtola, Hugh Burton, Evgeny Epifanovsky
 -----------------------------------------------------------------------
 Exchange:     0.2000 Hartree-Fock + 0.0800 Slater + 0.7200 B88
 Correlation:  0.1900 VWN1RPA + 0.8100 LYP
 Using SG-1 standard quadrature grid
 using 12 threads for integral computing
 -------------------------------------------------------
 OpenMP Integral computing Module                
 Release: version 1.0, May 2013, Q-Chem Inc. Pittsburgh 
 -------------------------------------------------------
 -------------------------------------------------------
 OpenMP BLAS3 based DFT computing Module                
 Release: version 1.0, May 2013, Q-Chem Inc. Pittsburgh 
 -------------------------------------------------------
 A unrestricted SCF calculation will be
 performed using DIIS
 SCF converges when DIIS error is below 1.0e-06
 Alpha HF Exchange    Energy = -18.85663303663634
 Beta HF Exchange     Energy = -18.85663303663634
 DFT Correlation      Energy =  -5.13663683615670
 DFT Exchange         Energy = -149.86452901564513
 One-Electron (alpha) Energy = -4009.15722685628361
 One-Electron (beta)  Energy = -4009.15722685628361
 Total Coulomb        Energy = 2691.75705637354849
 ---------------------------------------
  Cycle       Energy         DIIS error
 ---------------------------------------
    1   -4927.7618706145      1.50e-01  
 Alpha HF Exchange    Energy = -18.96826224075694
 Beta HF Exchange     Energy = -18.96826224075694
 DFT Correlation      Energy =  -5.19634485315640
 DFT Exchange         Energy = -151.03010238762778
 One-Electron (alpha) Energy = -4021.93319591652562
 One-Electron (beta)  Energy = -4021.93319591652471
 Total Coulomb        Energy = 2725.12942524710752
    2   -4921.3899796586      9.49e-03  
 Alpha HF Exchange    Energy = -18.81075467780195
 Beta HF Exchange     Energy = -18.81075467780195
 DFT Correlation      Energy =  -5.13443934950100
 DFT Exchange         Energy = -149.75423537720621
 One-Electron (alpha) Energy = -3997.90046856896925
 One-Electron (beta)  Energy = -3997.90046856896834
 Total Coulomb        Energy = 2675.70026302440283
    3   -4921.1008995462      5.52e-03  
 Alpha HF Exchange    Energy = -18.97218501801092
 Beta HF Exchange     Energy = -18.97218501801090
 DFT Correlation      Energy =  -5.20102739971731
 DFT Exchange         Energy = -151.03186020740134
 One-Electron (alpha) Energy = -4023.18368992239721
 One-Electron (beta)  Energy = -4023.18368992239539
 Total Coulomb        Energy = 2727.88043638231284
    4   -4921.1542424560      4.72e-03  
 Alpha HF Exchange    Energy = -18.89496139759168
 Beta HF Exchange     Energy = -18.89496139759168
 DFT Correlation      Energy =  -5.16858976273183
 DFT Exchange         Energy = -150.45116614648231
 One-Electron (alpha) Energy = -4012.08638995040383
 One-Electron (beta)  Energy = -4012.08638995040383
 Total Coulomb        Energy = 2704.47094633220195
    5   -4921.6015536234      1.25e-03  
 Alpha HF Exchange    Energy = -18.88705199662546
 Beta HF Exchange     Energy = -18.88705199662546
 DFT Correlation      Energy =  -5.16685652396169
 DFT Exchange         Energy = -150.39319247525123
 One-Electron (alpha) Energy = -4011.42666642667655
 One-Electron (beta)  Energy = -4011.42666642667473
 Total Coulomb        Energy = 2703.05840391615857
    6   -4921.6191232800      4.08e-04  
 Alpha HF Exchange    Energy = -18.89034706900657
 Beta HF Exchange     Energy = -18.89034706900659
 DFT Correlation      Energy =  -5.16720475508661
 DFT Exchange         Energy = -150.41850306413150
 One-Electron (alpha) Energy = -4011.63849129020946
 One-Electron (beta)  Energy = -4011.63849129021355
 Total Coulomb        Energy = 2703.51328855033262
    7   -4921.6201373377      1.80e-04  
 Alpha HF Exchange    Energy = -18.89148897983683
 Beta HF Exchange     Energy = -18.89148897983682
 DFT Correlation      Energy =  -5.16804158678685
 DFT Exchange         Energy = -150.42797038742356
 One-Electron (alpha) Energy = -4011.90817273424545
 One-Electron (beta)  Energy = -4011.90817273424500
 Total Coulomb        Energy = 2704.06467303683576
    8   -4921.6207037159      4.13e-05  
 Alpha HF Exchange    Energy = -18.89167189834926
 Beta HF Exchange     Energy = -18.89167189834928
 DFT Correlation      Energy =  -5.16811776508601
 DFT Exchange         Energy = -150.42918313250362
 One-Electron (alpha) Energy = -4011.95567859254243
 One-Electron (beta)  Energy = -4011.95567859254470
 Total Coulomb        Energy = 2704.16133109821112
    9   -4921.6207121315      1.98e-05  
 Alpha HF Exchange    Energy = -18.89153808844130
 Beta HF Exchange     Energy = -18.89153808844130
 DFT Correlation      Energy =  -5.16801537551382
 DFT Exchange         Energy = -150.42822940184161
 One-Electron (alpha) Energy = -4011.90148960920669
 One-Electron (beta)  Energy = -4011.90148960920715
 Total Coulomb        Energy = 2704.05162453313051
   10   -4921.6207169899      1.22e-05  
 Alpha HF Exchange    Energy = -18.89159628426176
 Beta HF Exchange     Energy = -18.89159628426178
 DFT Correlation      Energy =  -5.16805596650530
 DFT Exchange         Energy = -150.42864603770767
 One-Electron (alpha) Energy = -4011.92513889891416
 One-Electron (beta)  Energy = -4011.92513889891598
 Total Coulomb        Energy = 2704.09949282787602
   11   -4921.6207208931      1.15e-06  
 Alpha HF Exchange    Energy = -18.89159803034353
 Beta HF Exchange     Energy = -18.89159803034356
 DFT Correlation      Energy =  -5.16805954818276
 DFT Exchange         Energy = -150.42866692511166
 One-Electron (alpha) Energy = -4011.92552581222071
 One-Electron (beta)  Energy = -4011.92552581222253
 Total Coulomb        Energy = 2704.10029459744419
   12   -4921.6207209114      2.97e-07  Convergence criterion met
 ---------------------------------------
 SCF time:   CPU 61.93s  wall 6.00s 
<S^2> =         -0.000000000
 Alpha HF Exchange    Energy = -18.89159803034353
 Beta HF Exchange     Energy = -18.89159803034356
 DFT Correlation      Energy =  -5.16805954818276
 DFT Exchange         Energy = -150.42866692511166
 One-Electron (alpha) Energy = -4011.92552581222071
 One-Electron (beta)  Energy = -4011.92552581222253
 Total Coulomb        Energy = 2704.10029459744419
 Nuclear repulsion Energy = 591.50995864961681
 SCF   energy in the final basis set =    -4921.6207209114
 Total energy in the final basis set =    -4921.6207209114
 
 --------------------------------------------------------------
 
                    Orbital Energies (a.u.)
 --------------------------------------------------------------
 
 Alpha MOs
 -- Occupied --
*******-453.902 -58.116 -58.097 -52.174 -52.172 -52.169 -52.155
-52.154 -52.151 -10.260 -10.212 -10.188  -7.847  -7.830  -5.794
 -5.789  -5.777  -5.776  -5.772  -5.762  -2.127  -2.126  -2.117
 -2.114  -2.111  -2.110  -2.109  -2.101  -2.098  -2.096  -0.822
 -0.739  -0.689  -0.636  -0.583  -0.471  -0.439  -0.426  -0.388
 -0.379  -0.361  -0.346  -0.319  -0.288  -0.242  -0.224
 -- Virtual --
 -0.144  -0.022   0.029   0.043   0.093   0.117   0.136   0.150
  0.163   0.170   0.189   0.220   0.231   0.242   0.275   0.288
  0.299   0.313   0.336   0.352   0.448   0.455   0.472   0.492
  0.520   0.550   0.560   0.590   0.606   0.627   0.630   0.667
  0.714   0.748   0.770   0.825   0.832   0.852   0.863   0.868
  0.888   0.911   0.919   0.937   0.943   1.007   1.050   1.114
  1.334   1.377   1.439   1.529   1.541   1.606   1.656   1.698
  1.773   1.823   1.863   1.953   2.009   2.016   2.035   2.050
  2.059   2.078   2.092   2.104   2.112   2.115   2.152   2.245
  2.299   2.354   2.436   2.478   2.523   2.592   2.621   2.670
  2.711   2.744   2.813   2.875   2.897   3.184   3.270   3.303
  3.407   3.458   3.523   4.178   4.223   4.252   4.272   4.298
  4.323   4.342   4.351   4.392   4.406   4.485   4.518   4.629
  5.442   5.474  89.686  89.809
 
 Beta MOs
 -- Occupied --
*******-453.902 -58.116 -58.097 -52.174 -52.172 -52.169 -52.155
-52.154 -52.151 -10.260 -10.212 -10.188  -7.847  -7.830  -5.794
 -5.789  -5.777  -5.776  -5.772  -5.762  -2.127  -2.126  -2.117
 -2.114  -2.111  -2.110  -2.109  -2.101  -2.098  -2.096  -0.822
 -0.739  -0.689  -0.636  -0.583  -0.471  -0.439  -0.426  -0.388
 -0.379  -0.361  -0.346  -0.319  -0.288  -0.242  -0.224
 -- Virtual --
 -0.144  -0.022   0.029   0.043   0.093   0.117   0.136   0.150
  0.163   0.170   0.189   0.220   0.231   0.242   0.275   0.288
  0.299   0.313   0.336   0.352   0.448   0.455   0.472   0.492
  0.520   0.550   0.560   0.590   0.606   0.627   0.630   0.667
  0.714   0.748   0.770   0.825   0.832   0.852   0.863   0.868
  0.888   0.911   0.919   0.937   0.943   1.007   1.050   1.114
  1.334   1.377   1.439   1.529   1.541   1.606   1.656   1.698
  1.773   1.823   1.863   1.953   2.009   2.016   2.035   2.050
  2.059   2.078   2.092   2.104   2.112   2.115   2.152   2.245
  2.299   2.354   2.436   2.478   2.523   2.592   2.621   2.670
  2.711   2.744   2.813   2.875   2.897   3.184   3.270   3.303
  3.407   3.458   3.523   4.178   4.223   4.252   4.272   4.298
  4.323   4.342   4.351   4.392   4.406   4.485   4.518   4.629
  5.442   5.474  89.686  89.809
 --------------------------------------------------------------
 
          Ground-State Mulliken Net Atomic Charges

     Atom                 Charge (a.u.)    Spin (a.u.)
  --------------------------------------------------------
      1 C                    -0.230045      -0.000000
      2 H                     0.158685       0.000000
      3 C                    -0.196016       0.000000
      4 H                     0.121577       0.000000
      5 H                     0.125263      -0.000000
      6 C                    -0.327648       0.000000
      7 H                     0.112948      -0.000000
      8 H                     0.139386      -0.000000
      9 H                     0.108762      -0.000000
     10 Se                   -0.050456      -0.000000
     11 H                     0.022354       0.000000
     12 Se                   -0.054801       0.000000
     13 H                     0.069991       0.000000
  --------------------------------------------------------
  Sum of atomic charges =    -0.000000
  Sum of spin   charges =    -0.000000

 -----------------------------------------------------------------
                    Cartesian Multipole Moments
 -----------------------------------------------------------------
    Charge (ESU x 10^10)
                 0.0000
    Dipole Moment (Debye)
         X       0.6682      Y       1.4308      Z       0.1690
       Tot       1.5882
    Quadrupole Moments (Debye-Ang)
        XX     -61.9336     XY       1.3523     YY     -55.1819
        XZ      -0.1213     YZ      -0.2065     ZZ     -56.5794
    Octopole Moments (Debye-Ang^2)
       XXX     -17.5643    XXY     -21.9885    XYY      -4.2099
       YYY     -52.8656    XXZ      -0.0399    XYZ      -4.2692
       YYZ       0.8449    XZZ      -0.9152    YZZ     -19.9055
       ZZZ      -5.7997
    Hexadecapole Moments (Debye-Ang^3)
      XXXX    -827.9704   XXXY     -39.4597   XXYY    -239.0058
      XYYY     -36.4101   YYYY    -646.5369   XXXZ      -6.6422
      XXYZ       2.6501   XYYZ       8.5453   YYYZ      -2.4100
      XXZZ    -160.3308   XYZZ     -14.3754   YYZZ    -126.3992
      XZZZ       4.1907   YZZZ      -9.5923   ZZZZ    -116.7070
 -----------------------------------------------------------------
 Calculating analytic gradient of the SCF energy
 Gradient of SCF Energy
            1           2           3           4           5           6
    1   0.0001249  -0.0000376   0.0000288  -0.0000164  -0.0000155  -0.0000493
    2   0.0001158  -0.0000084  -0.0000864  -0.0000055   0.0000152   0.0000029
    3   0.0000495  -0.0000067  -0.0000484   0.0000106   0.0000221   0.0000341
            7           8           9          10          11          12
    1  -0.0000190   0.0000009  -0.0000166   0.0017038  -0.0017297  -0.0000450
    2   0.0000070   0.0000168   0.0000113   0.0461493  -0.0462075  -0.0000454
    3  -0.0000102  -0.0000269  -0.0000168   0.0242883  -0.0242462  -0.0000572
           13
    1   0.0000707
    2   0.0000351
    3   0.0000078
 Max gradient component =       4.621E-02
 RMS gradient           =       1.182E-02
 Gradient time:  CPU 19.93 s  wall 1.74 s
 Geometry Optimization Parameters
   NAtoms,    NIC,     NZ,  NCons,   NDum,   NFix, NCnnct, MaxDiis
       13      82       0       1       0       0       0       0

 Cartesian Hessian Update
 Hessian Updated using BFGS Update


** CONSTRAINED OPTIMIZATION IN DELOCALIZED INTERNAL COORDINATES **
   Searching for a Minimum

   Optimization Cycle:   3

                       Coordinates (Angstroms)
     ATOM                X               Y               Z
      1  C         0.0567062076    0.5921348575   -0.3379831918
      2  H         0.1081784955    0.7201331172   -1.4205648759
      3  C         0.3991459726    1.9166268319    0.3736963286
      4  H        -0.4268841133    2.6220407554    0.2084782317
      5  H         0.4559996622    1.7441151616    1.4539034497
      6  C         1.6971631495    2.5570437237   -0.1311672937
      7  H         1.8808904338    3.4999001094    0.3931372950
      8  H         2.5528594125    1.8979888856    0.0377305662
      9  H         1.6383917173    2.7762892806   -1.2028068176
     10  Se       -1.8208417168    0.1764679930    0.1262535637
     11  H        -1.9055098991   -2.0358450458   -1.0349964245
     12  Se        1.3476967903   -0.8787942926    0.0218213589
     13  H         0.8484048878   -1.1391963775    1.3860018097
   Point Group: c1    Number of degrees of freedom:    33


   Energy is  -4921.620720911

              Constraints and their Current Values
                                        Value     Constraint
   Distance(Angs):       10  11             2.500000     2.500000
 Hessian Updated using BFGS Update

 29 Hessian modes will be used to form the next step
  Hessian Eigenvalues:
     0.025230    0.044994    0.045009    0.067600    0.077835    0.081959
     0.082621    0.083661    0.086045    0.102195    0.105429    0.131108
     0.137986    0.154699    0.159858    0.159998    0.179674    0.190903
     0.193175    0.216377    0.255156    0.282010    0.294095    0.338261
     0.341927    0.342100    0.343670    0.344625    0.347437

 Minimum Search - Taking Simple RFO Step
 Searching for Lamda that Minimizes Along All modes
 Value Taken    Lamda =  -0.00000107
 Step Taken.  Stepsize is  0.006053

                             Maximum     Tolerance    Cnvgd?
         Gradient           0.000080      0.000300     YES
         Displacement       0.002410      0.001200      NO
         Energy change      0.000217      0.000001      NO


 New Cartesian Coordinates Obtained by Inverse Iteration

 Displacement from previous Coordinates is:  0.010724
 ----------------------------------------------------------------
             Standard Nuclear Orientation (Angstroms)
    I     Atom           X                Y                Z
 ----------------------------------------------------------------
    1      C       0.0574250805     0.5918615921    -0.3384246641
    2      H       0.1097260769     0.7201848856    -1.4209080112
    3      C       0.3991679110     1.9167737327     0.3737170666
    4      H      -0.4269239310     2.6220971282     0.2086749365
    5      H       0.4561548884     1.7438312405     1.4537957046
    6      C       1.6971005490     2.5576306730    -0.1311981812
    7      H       1.8805698437     3.5003789282     0.3934170876
    8      H       2.5528966071     1.8986859887     0.0375257434
    9      H       1.6380298500     2.7771601868    -1.2027295433
   10      Se     -1.8196398480     0.1766697078     0.1251600003
   11      H      -1.9082972003    -2.0369880047    -1.0332262149
   12      Se      1.3492934361    -0.8781310554     0.0226307213
   13      H       0.8466977367    -1.1412500037     1.3850693543
 ----------------------------------------------------------------
 Nuclear Repulsion Energy =   591.5332299819 hartrees
 There are       47 alpha and       47 beta electrons

                       Distance Matrix (Angstroms)
             C (  1)   H (  2)   C (  3)   H (  4)   H (  5)   C (  6)
   H (  2)  1.091317
   C (  3)  1.542506  2.176300
   H (  4)  2.157723  2.561407  1.098703
   H (  5)  2.167504  3.071121  1.095320  1.761109
   C (  6)  2.568215  2.749421  1.533058  2.152011  2.171272
   H (  7)  3.509832  3.762598  2.168581  2.475891  2.497763  1.094375
   H (  8)  2.841920  3.079769  2.179885  3.071147  2.534981  1.093189
   H (  9)  2.832113  2.571860  2.181795  2.506021  3.085729  1.095382
   Se( 10)  1.977541  2.531440  2.830698  2.815448  3.066025  4.254663
   H ( 11)  3.355244  3.438709  4.789167  5.044191  5.105929  5.909574
   Se( 12)  1.990016  2.484944  2.972792  3.929524  3.117790  3.456746
   H ( 13)  2.568474  3.446966  3.251865  4.143525  2.912205  4.087049
             H (  7)   H (  8)   H (  9)   Se( 10)   H ( 11)   Se( 12)
   H (  8)  1.773162
   H (  9)  1.769055  1.773959
   Se( 10)  4.981020  4.700223  4.525629
   H ( 11)  6.859538  6.044691  5.981738  2.500000
   Se( 12)  4.426182  3.026482  3.866010  3.341445  3.615201
   H ( 13)  4.857673  3.737405  4.762021  3.230115  3.773658  1.475830

 
 Applying Cartesian multipole field
    Component          Value
    ---------          -----
     (2,0,0)        1.00000E-11
     (0,2,0)        2.00000E-11
     (0,0,2)       -3.00000E-10
 Nucleus-field energy     =     0.0000000051 hartrees
 Requested basis set is 6-31G(d,p)
 There are 52 shells and 155 basis functions
 A cutoff of  1.0D-14 yielded   1235 shell pairs
 There are     11075 function pairs
 Smallest overlap matrix eigenvalue = 6.74E-04
 Guess from superposition of atomic densities
 Warning:  Energy on first SCF cycle will be non-variational
 SAD guess density has 93.936381 electrons

 -----------------------------------------------------------------------
  General SCF calculation program by
  Eric Jon Sundstrom, Paul Horn, Yuezhi Mao, Dmitri Zuev, Alec White,
  David Stuck, Shaama M.S., Shane Yost, Joonho Lee, David Small,
  Daniel Levine, Susi Lehtola, Hugh Burton, Evgeny Epifanovsky
 -----------------------------------------------------------------------
 Exchange:     0.2000 Hartree-Fock + 0.0800 Slater + 0.7200 B88
 Correlation:  0.1900 VWN1RPA + 0.8100 LYP
 Using SG-1 standard quadrature grid
 using 12 threads for integral computing
 -------------------------------------------------------
 OpenMP Integral computing Module                
 Release: version 1.0, May 2013, Q-Chem Inc. Pittsburgh 
 -------------------------------------------------------
 -------------------------------------------------------
 OpenMP BLAS3 based DFT computing Module                
 Release: version 1.0, May 2013, Q-Chem Inc. Pittsburgh 
 -------------------------------------------------------
 A unrestricted SCF calculation will be
 performed using DIIS
 SCF converges when DIIS error is below 1.0e-06
 Alpha HF Exchange    Energy = -18.85663650451424
 Beta HF Exchange     Energy = -18.85663650451424
 DFT Correlation      Energy =  -5.13664043807119
 DFT Exchange         Energy = -149.86454561051283
 One-Electron (alpha) Energy = -4009.18043841855115
 One-Electron (beta)  Energy = -4009.18043841855115
 Total Coulomb        Energy = 2691.78015064485407
 ---------------------------------------
  Cycle       Energy         DIIS error
 ---------------------------------------
    1   -4927.7619552629      1.50e-01  
 Alpha HF Exchange    Energy = -18.96826592844996
 Beta HF Exchange     Energy = -18.96826592844994
 DFT Correlation      Energy =  -5.19634849322473
 DFT Exchange         Energy = -151.03011884311735
 One-Electron (alpha) Energy = -4021.95788178236626
 One-Electron (beta)  Energy = -4021.95788178236580
 Total Coulomb        Energy = 2725.15559232655414
    2   -4921.3899404445      9.49e-03  
 Alpha HF Exchange    Energy = -18.81073593924926
 Beta HF Exchange     Energy = -18.81073593924925
 DFT Correlation      Energy =  -5.13443060503277
 DFT Exchange         Energy = -149.75411831611970
 One-Electron (alpha) Energy = -3997.91889525323131
 One-Electron (beta)  Energy = -3997.91889525323131
 Total Coulomb        Energy = 2675.71381948294038
    3   -4921.1007618362      5.53e-03  
 Alpha HF Exchange    Energy = -18.97220341144063
 Beta HF Exchange     Energy = -18.97220341144061
 DFT Correlation      Energy =  -5.20104544794464
 DFT Exchange         Energy = -151.03199990179456
 One-Electron (alpha) Energy = -4023.21182332013268
 One-Electron (beta)  Energy = -4023.21182332012813
 Total Coulomb        Energy = 2727.91373210917300
    4   -4921.1541367168      4.72e-03  
 Alpha HF Exchange    Energy = -18.89495839000745
 Beta HF Exchange     Energy = -18.89495839000744
 DFT Correlation      Energy =  -5.16858604924769
 DFT Exchange         Energy = -150.45113056060856
 One-Electron (alpha) Energy = -4012.10851226666091
 One-Electron (beta)  Energy = -4012.10851226665955
 Total Coulomb        Energy = 2704.49187215601933
    5   -4921.6015557802      1.25e-03  
 Alpha HF Exchange    Energy = -18.88704967074374
 Beta HF Exchange     Energy = -18.88704967074370
 DFT Correlation      Energy =  -5.16685444090419
 DFT Exchange         Energy = -150.39317930673607
 One-Electron (alpha) Energy = -4011.44717331428592
 One-Electron (beta)  Energy = -4011.44717331428183
 Total Coulomb        Energy = 2703.07613464130964
    6   -4921.6191150894      4.08e-04  
 Alpha HF Exchange    Energy = -18.89035142304416
 Beta HF Exchange     Energy = -18.89035142304414
 DFT Correlation      Energy =  -5.16720877977250
 DFT Exchange         Energy = -150.41852804068435
 One-Electron (alpha) Energy = -4011.66313562573441
 One-Electron (beta)  Energy = -4011.66313562573168
 Total Coulomb        Energy = 2703.53933964510225
    7   -4921.6201412860      1.80e-04  
 Alpha HF Exchange    Energy = -18.89148784043831
 Beta HF Exchange     Energy = -18.89148784043834
 DFT Correlation      Energy =  -5.16804025210795
 DFT Exchange         Energy = -150.42795866814384
 One-Electron (alpha) Energy = -4011.92943831421553
 One-Electron (beta)  Energy = -4011.92943831421962
 Total Coulomb        Energy = 2704.08391752805392
    8   -4921.6207037146      4.17e-05  
 Alpha HF Exchange    Energy = -18.89167670531741
 Beta HF Exchange     Energy = -18.89167670531743
 DFT Correlation      Energy =  -5.16812076248307
 DFT Exchange         Energy = -150.42921437364811
 One-Electron (alpha) Energy = -4011.97929649224943
 One-Electron (beta)  Energy = -4011.97929649225034
 Total Coulomb        Energy = 2704.18533920319669
    9   -4921.6207123411      2.01e-05  
 Alpha HF Exchange    Energy = -18.89153973178469
 Beta HF Exchange     Energy = -18.89153973178468
 DFT Correlation      Energy =  -5.16801602464310
 DFT Exchange         Energy = -150.42823695199408
 One-Electron (alpha) Energy = -4011.92389018342692
 One-Electron (beta)  Energy = -4011.92389018342692
 Total Coulomb        Energy = 2704.07316525621945
   10   -4921.6207175639      1.23e-05  
 Alpha HF Exchange    Energy = -18.89159822545610
 Beta HF Exchange     Energy = -18.89159822545608
 DFT Correlation      Energy =  -5.16805677752112
 DFT Exchange         Energy = -150.42865583656868
 One-Electron (alpha) Energy = -4011.94764593329592
 One-Electron (beta)  Energy = -4011.94764593329273
 Total Coulomb        Energy = 2704.12124944481548
   11   -4921.6207214998      1.15e-06  
 Alpha HF Exchange    Energy = -18.89160007412202
 Beta HF Exchange     Energy = -18.89160007412201
 DFT Correlation      Energy =  -5.16806042305231
 DFT Exchange         Energy = -150.42867740828538
 One-Electron (alpha) Energy = -4011.94807242379829
 One-Electron (beta)  Energy = -4011.94807242379648
 Total Coulomb        Energy = 2704.12213132235729
   12   -4921.6207215179      2.96e-07  Convergence criterion met
 ---------------------------------------
 SCF time:   CPU 59.25s  wall 5.00s 
<S^2> =         -0.000000000
 Alpha HF Exchange    Energy = -18.89160007412202
 Beta HF Exchange     Energy = -18.89160007412201
 DFT Correlation      Energy =  -5.16806042305231
 DFT Exchange         Energy = -150.42867740828538
 One-Electron (alpha) Energy = -4011.94807242379829
 One-Electron (beta)  Energy = -4011.94807242379648
 Total Coulomb        Energy = 2704.12213132235729
 Nuclear repulsion Energy = 591.53322998694443
 SCF   energy in the final basis set =    -4921.6207215179
 Total energy in the final basis set =    -4921.6207215179
 
 --------------------------------------------------------------
 
                    Orbital Energies (a.u.)
 --------------------------------------------------------------
 
 Alpha MOs
 -- Occupied --
*******-453.902 -58.116 -58.097 -52.174 -52.172 -52.169 -52.155
-52.154 -52.151 -10.260 -10.212 -10.188  -7.847  -7.830  -5.794
 -5.789  -5.777  -5.776  -5.772  -5.762  -2.127  -2.127  -2.117
 -2.114  -2.111  -2.110  -2.109  -2.101  -2.098  -2.096  -0.822
 -0.739  -0.689  -0.636  -0.583  -0.471  -0.439  -0.426  -0.388
 -0.379  -0.361  -0.346  -0.319  -0.288  -0.242  -0.224
 -- Virtual --
 -0.144  -0.022   0.029   0.043   0.093   0.117   0.136   0.150
  0.163   0.170   0.189   0.220   0.231   0.242   0.275   0.288
  0.299   0.313   0.336   0.352   0.448   0.455   0.472   0.492
  0.520   0.550   0.560   0.590   0.606   0.627   0.630   0.667
  0.714   0.748   0.770   0.825   0.832   0.852   0.863   0.868
  0.888   0.911   0.919   0.937   0.943   1.007   1.050   1.114
  1.334   1.377   1.439   1.529   1.541   1.606   1.656   1.698
  1.773   1.822   1.863   1.953   2.009   2.016   2.035   2.050
  2.059   2.078   2.092   2.104   2.112   2.115   2.153   2.245
  2.299   2.354   2.436   2.478   2.523   2.592   2.621   2.669
  2.711   2.744   2.813   2.875   2.897   3.184   3.270   3.303
  3.407   3.458   3.523   4.178   4.223   4.252   4.272   4.298
  4.323   4.342   4.352   4.392   4.406   4.485   4.518   4.629
  5.442   5.474  89.686  89.809
 
 Beta MOs
 -- Occupied --
*******-453.902 -58.116 -58.097 -52.174 -52.172 -52.169 -52.155
-52.154 -52.151 -10.260 -10.212 -10.188  -7.847  -7.830  -5.794
 -5.789  -5.777  -5.776  -5.772  -5.762  -2.127  -2.127  -2.117
 -2.114  -2.111  -2.110  -2.109  -2.101  -2.098  -2.096  -0.822
 -0.739  -0.689  -0.636  -0.583  -0.471  -0.439  -0.426  -0.388
 -0.379  -0.361  -0.346  -0.319  -0.288  -0.242  -0.224
 -- Virtual --
 -0.144  -0.022   0.029   0.043   0.093   0.117   0.136   0.150
  0.163   0.170   0.189   0.220   0.231   0.242   0.275   0.288
  0.299   0.313   0.336   0.352   0.448   0.455   0.472   0.492
  0.520   0.550   0.560   0.590   0.606   0.627   0.630   0.667
  0.714   0.748   0.770   0.825   0.832   0.852   0.863   0.868
  0.888   0.911   0.919   0.937   0.943   1.007   1.050   1.114
  1.334   1.377   1.439   1.529   1.541   1.606   1.656   1.698
  1.773   1.822   1.863   1.953   2.009   2.016   2.035   2.050
  2.059   2.078   2.092   2.104   2.112   2.115   2.153   2.245
  2.299   2.354   2.436   2.478   2.523   2.592   2.621   2.669
  2.711   2.744   2.813   2.875   2.897   3.184   3.270   3.303
  3.407   3.458   3.523   4.178   4.223   4.252   4.272   4.298
  4.323   4.342   4.352   4.392   4.406   4.485   4.518   4.629
  5.442   5.474  89.686  89.809
 --------------------------------------------------------------
 
          Ground-State Mulliken Net Atomic Charges

     Atom                 Charge (a.u.)    Spin (a.u.)
  --------------------------------------------------------
      1 C                    -0.230052       0.000000
      2 H                     0.158695      -0.000000
      3 C                    -0.196106       0.000000
      4 H                     0.121585      -0.000000
      5 H                     0.125357      -0.000000
      6 C                    -0.327685      -0.000000
      7 H                     0.112969       0.000000
      8 H                     0.139388       0.000000
      9 H                     0.108783      -0.000000
     10 Se                   -0.050342      -0.000000
     11 H                     0.022233       0.000000
     12 Se                   -0.054875      -0.000000
     13 H                     0.070052       0.000000
  --------------------------------------------------------
  Sum of atomic charges =    -0.000000
  Sum of spin   charges =    -0.000000

 -----------------------------------------------------------------
                    Cartesian Multipole Moments
 -----------------------------------------------------------------
    Charge (ESU x 10^10)
                -0.0000
    Dipole Moment (Debye)
         X       0.6662      Y       1.4312      Z       0.1693
       Tot       1.5877
    Quadrupole Moments (Debye-Ang)
        XX     -61.9279     XY       1.3561     YY     -55.1758
        XZ      -0.1287     YZ      -0.2156     ZZ     -56.5889
    Octopole Moments (Debye-Ang^2)
       XXX     -17.7220    XXY     -22.0023    XYY      -4.2722
       YYY     -52.9104    XXZ      -0.0544    XYZ      -4.2706
       YYZ       0.8672    XZZ      -0.9688    YZZ     -19.9150
       ZZZ      -5.7756
    Hexadecapole Moments (Debye-Ang^3)
      XXXX    -827.9247   XXXY     -39.4981   XXYY    -239.0111
      XYYY     -36.4011   YYYY    -646.5668   XXXZ      -6.8249
      XXYZ       2.6628   XYYZ       8.5074   YYYZ      -2.3712
      XXZZ    -160.3502   XYZZ     -14.3716   YYZZ    -126.4122
      XZZZ       4.0071   YZZZ      -9.5517   ZZZZ    -116.6824
 -----------------------------------------------------------------
 Calculating analytic gradient of the SCF energy
 Gradient of SCF Energy
            1           2           3           4           5           6
    1  -0.0000289  -0.0000403  -0.0000437   0.0000145  -0.0000176   0.0000291
    2  -0.0000721   0.0000136   0.0000179   0.0000040   0.0000028   0.0000158
    3  -0.0000094   0.0000089   0.0000582   0.0000205   0.0000001  -0.0000263
            7           8           9          10          11          12
    1  -0.0000298  -0.0000096  -0.0000265   0.0019207  -0.0018340   0.0000156
    2   0.0000123   0.0000168   0.0000078   0.0462130  -0.0462316  -0.0000219
    3  -0.0000006  -0.0000219  -0.0000003   0.0241804  -0.0241742  -0.0000365
           13
    1   0.0000505
    2   0.0000215
    3   0.0000012
 Max gradient component =       4.623E-02
 RMS gradient           =       1.182E-02
 Gradient time:  CPU 20.04 s  wall 1.74 s
 Geometry Optimization Parameters
   NAtoms,    NIC,     NZ,  NCons,   NDum,   NFix, NCnnct, MaxDiis
       13      82       0       1       0       0       0       0

 Cartesian Hessian Update
 Hessian Updated using BFGS Update


** CONSTRAINED OPTIMIZATION IN DELOCALIZED INTERNAL COORDINATES **
   Searching for a Minimum

   Optimization Cycle:   4

                       Coordinates (Angstroms)
     ATOM                X               Y               Z
      1  C         0.0574250805    0.5918615921   -0.3384246641
      2  H         0.1097260769    0.7201848856   -1.4209080112
      3  C         0.3991679110    1.9167737327    0.3737170666
      4  H        -0.4269239310    2.6220971282    0.2086749365
      5  H         0.4561548884    1.7438312405    1.4537957046
      6  C         1.6971005490    2.5576306730   -0.1311981812
      7  H         1.8805698437    3.5003789282    0.3934170876
      8  H         2.5528966071    1.8986859887    0.0375257434
      9  H         1.6380298500    2.7771601868   -1.2027295433
     10  Se       -1.8196398480    0.1766697078    0.1251600003
     11  H        -1.9082972003   -2.0369880047   -1.0332262149
     12  Se        1.3492934361   -0.8781310554    0.0226307213
     13  H         0.8466977367   -1.1412500037    1.3850693543
   Point Group: c1    Number of degrees of freedom:    33


   Energy is  -4921.620721518

              Constraints and their Current Values
                                        Value     Constraint
   Distance(Angs):       10  11             2.500000     2.500000
 Hessian Updated using BFGS Update

 31 Hessian modes will be used to form the next step
  Hessian Eigenvalues:
     0.017596    0.044993    0.045000    0.045065    0.067702    0.077850
     0.081972    0.082614    0.083673    0.085777    0.104915    0.108382
     0.133296    0.144460    0.154790    0.159881    0.159999    0.160560
     0.179707    0.191908    0.197016    0.216388    0.254889    0.293289
     0.302116    0.338976    0.341955    0.342181    0.343670    0.344616
     0.347426

 Minimum Search - Taking Simple RFO Step
 Searching for Lamda that Minimizes Along All modes
 Value Taken    Lamda =   0.00000000
 Step Taken.  Stepsize is  0.002478

                             Maximum     Tolerance    Cnvgd?
         Gradient           0.000051      0.000300     YES
         Displacement       0.001074      0.001200     YES
         Energy change     -0.000001      0.000001     YES


                       Distance Matrix (Angstroms)
             C (  1)   H (  2)   C (  3)   H (  4)   H (  5)   C (  6)
   H (  2)  1.091317
   C (  3)  1.542506  2.176300
   H (  4)  2.157723  2.561407  1.098703
   H (  5)  2.167504  3.071121  1.095320  1.761109
   C (  6)  2.568215  2.749421  1.533058  2.152011  2.171272
   H (  7)  3.509832  3.762598  2.168581  2.475891  2.497763  1.094375
   H (  8)  2.841920  3.079769  2.179885  3.071147  2.534981  1.093189
   H (  9)  2.832113  2.571860  2.181795  2.506021  3.085729  1.095382
   Se( 10)  1.977541  2.531440  2.830698  2.815448  3.066025  4.254663
   H ( 11)  3.355244  3.438709  4.789167  5.044191  5.105929  5.909574
   Se( 12)  1.990016  2.484944  2.972792  3.929524  3.117790  3.456746
   H ( 13)  2.568474  3.446966  3.251865  4.143525  2.912205  4.087049
             H (  7)   H (  8)   H (  9)   Se( 10)   H ( 11)   Se( 12)
   H (  8)  1.773162
   H (  9)  1.769055  1.773959
   Se( 10)  4.981020  4.700223  4.525629
   H ( 11)  6.859538  6.044691  5.981738  2.500000
   Se( 12)  4.426182  3.026482  3.866010  3.341445  3.615201
   H ( 13)  4.857673  3.737405  4.762021  3.230115  3.773658  1.475830

 
 Final energy is   -4921.62072151787     


 ******************************
 **  OPTIMIZATION CONVERGED  **
 ******************************

                       Coordinates (Angstroms)
     ATOM                X               Y               Z
      1  C         0.0574250805    0.5918615921   -0.3384246641
      2  H         0.1097260769    0.7201848856   -1.4209080112
      3  C         0.3991679110    1.9167737327    0.3737170666
      4  H        -0.4269239310    2.6220971282    0.2086749365
      5  H         0.4561548884    1.7438312405    1.4537957046
      6  C         1.6971005490    2.5576306730   -0.1311981812
      7  H         1.8805698437    3.5003789282    0.3934170876
      8  H         2.5528966071    1.8986859887    0.0375257434
      9  H         1.6380298500    2.7771601868   -1.2027295433
     10  Se       -1.8196398480    0.1766697078    0.1251600003
     11  H        -1.9082972003   -2.0369880047   -1.0332262149
     12  Se        1.3492934361   -0.8781310554    0.0226307213
     13  H         0.8466977367   -1.1412500037    1.3850693543

Z-matrix Print:
$molecule
0 1
Se
H  1 1.475830
C  1 1.990016 2 94.480095
H  3 1.091317 1 103.633598 2 -164.711916 0
C  3 1.542506 1 114.009765 2 75.409785 0
H  5 1.095320 3 109.339297 1 -57.425297 0
H  5 1.098703 3 108.389278 1 -173.465378 0
C  5 1.533058 3 113.239346 1 65.983795 0
H  8 1.093189 5 111.098476 3 -61.040396 0
H  8 1.094375 5 110.130539 3 178.964703 0
H  8 1.095382 5 111.118756 3 59.611629 0
Se 3 1.977541 1 114.744302 2 -47.662600 0
H  12 2.500000 3 96.369824 1 -48.892115 0
$end

PES scan, value:    2.5000 energy: -4921.6207215179
------- Summary of potential scan: ------ 
    2.5000     -4921.6207215179
----------------------------------------- 
Archival summary:
1\1\hpc0248\JobtypUnspecified\ProcedureUnspecified\6-31G**\e238\knomura\ThuMar1400:44:542019ThuMar1400:44:542019\0\\#,JobtypUnspecified,ProcedureUnspecified,6-31G**,\\0,1\Se\H,1,1.47583\C,1,1.99002,2,94.4801\H,3,1.09132,1,103.634,2,-164.712,0\C,3,1.54251,1,114.01,2,75.4098,0\H,5,1.09532,3,109.339,1,-57.4253,0\H,5,1.0987,3,108.389,1,-173.465,0\C,5,1.53306,3,113.239,1,65.9838,0\H,8,1.09319,5,111.098,3,-61.0404,0\H,8,1.09437,5,110.131,3,178.965,0\H,8,1.09538,5,111.119,3,59.6116,0\Se,3,1.97754,1,114.744,2,-47.6626,0\H,12,2.5,3,96.3698,1,-48.8921,0\\\@

 Total job time:  30.20s(wall), 345.12s(cpu) 
 Thu Mar 14 00:44:54 2019

        *************************************************************
        *                                                           *
        *  Thank you very much for using Q-Chem.  Have a nice day.  *
        *                                                           *
        *************************************************************


