
Running Job 1 of 1 selenium/02/Se-H.xyz.data/inputs/bond_singlet_4.1.in
qchem selenium/02/Se-H.xyz.data/inputs/bond_singlet_4.1.in_1702.0 /staging/scratch/2868765/qchem1702/ 1
/usr/usc/qchem/5.1.1/exe/qcprog.exe_s selenium/02/Se-H.xyz.data/inputs/bond_singlet_4.1.in_1702.0 /staging/scratch/2868765/qchem1702/
Check license passed

                  Welcome to Q-Chem
     A Quantum Leap Into The Future Of Chemistry


 Q-Chem 5.1, Q-Chem, Inc., Pleasanton, CA (2018)

 Yihan Shao,  Zhengting Gan,  E. Epifanovsky,  A. T. B. Gilbert,  M. Wormit,  
 J. Kussmann,  A. W. Lange,  A. Behn,  Jia Deng,  Xintian Feng,  D. Ghosh,  
 M. Goldey,  P. R. Horn,  L. D. Jacobson,  I. Kaliman,  T. Kus,  A. Landau,  
 Jie Liu,  E. I. Proynov,  R. M. Richard,  R. P. Steele,  E. J. Sundstrom,  
 H. L. Woodcock III,  P. M. Zimmerman,  D. Zuev,  B. Albrecht,  E. Alguire,  
 S. A. Baeppler,  D. Barton,  Z. Benda,  Y. A. Bernard,  E. J. Berquist,  
 K. B. Bravaya,  H. Burton,  D. Casanova,  Chun-Min Chang,  Yunqing Chen,  
 A. Chien,  K. D. Closser,  M. P. Coons,  S. Coriani,  S. Dasgupta,  
 A. L. Dempwolff,  M. Diedenhofen,  Hainam Do,  R. G. Edgar,  Po-Tung Fang,  
 S. Faraji,  S. Fatehi,  Qingguo Feng,  K. D. Fenk,  J. Fosso-Tande,  
 Qinghui Ge,  A. Ghysels,  G. Gidofalvi,  J. Gomes,  J. Gonthier,  A. Gunina,  
 D. Hait,  M. W. D. Hanson-Heine,  P. H. P. Harbach,  A. W. Hauser,  
 J. E. Herr,  E. G. Hohenstein,  Z. C. Holden,  Kerwin Hui,  B. C. Huynh,  
 T.-C. Jagau,  Hyunjun Ji,  B. Kaduk,  K. Khistyaev,  Jaehoon Kim,  
 P. Klunzinger,  K. Koh,  D. Kosenkov,  L. Koulias,  T. Kowalczyk,  
 C. M. Krauter,  A. Kunitsa,  Ka Un Lao,  A. Laurent,  K. V. Lawler,  
 Joonho Lee,  D. Lefrancois,  S. Lehtola,  D. S. Levine,  Yi-Pei Li,  
 You-Sheng Lin,  Fenglai Liu,  E. Livshits,  A. Luenser,  P. Manohar,  
 E. Mansoor,  S. F. Manzer,  Shan-Ping Mao,  Yuezhi Mao,  N. Mardirossian,  
 A. V. Marenich,  T. Markovich,  L. A. Martinez-Martinez,  S. A. Maurer,  
 N. J. Mayhall,  S. C. McKenzie,  J.-M. Mewes,  A. F. Morrison,  
 J. W. Mullinax,  K. Nanda,  T. S. Nguyen-Beck,  R. Olivares-Amaya,  
 J. A. Parkhill,  T. M. Perrine,  F. Plasser,  P. Pokhilko,  S. Prager,  
 A. Prociuk,  E. Ramos,  D. R. Rehn,  F. Rob,  M. Schneider,  N. Sergueev,  
 S. M. Sharada,  S. Sharma,  D. W. Small,  T. Stauch,  T. Stein,  
 Yu-Chuan Su,  A. J. W. Thom,  A. Tkatchenko,  T. Tsuchimochi,  N. M. Tubman,  
 L. Vogt,  M. L. Vidal,  O. Vydrov,  M. A. Watson,  J. Wenzel,  
 M. de Wergifosse,  T. A. Wesolowski,  A. White,  J. Witte,  A. Yamada,  
 Jun Yang,  K. Yao,  S. Yeganeh,  S. R. Yost,  Zhi-Qiang You,  A. Zech,  
 Igor Ying Zhang,  Xing Zhang,  Yan Zhao,  Ying Zhu,  B. R. Brooks,  
 G. K. L. Chan,  C. J. Cramer,  M. S. Gordon,  W. J. Hehre,  A. Klamt,  
 M. W. Schmidt,  C. D. Sherrill,  D. G. Truhlar,  A. Aspuru-Guzik,  R. Baer,  
 A. T. Bell,  N. A. Besley,  Jeng-Da Chai,  A. E. DePrince, III,  
 R. A. DiStasio Jr.,  A. Dreuw,  B. D. Dunietz,  T. R. Furlani,  
 Chao-Ping Hsu,  Yousung Jung,  Jing Kong,  D. S. Lambrecht,  WanZhen Liang,  
 C. Ochsenfeld,  V. A. Rassolov,  L. V. Slipchenko,  J. E. Subotnik,  
 T. Van Voorhis,  J. M. Herbert,  A. I. Krylov,  P. M. W. Gill,  M. Head-Gordon

 Contributors to earlier versions of Q-Chem not listed above: 
 R. D. Adamson,  B. Austin,  J. Baker,  G. J. O. Beran,  K. Brandhorst,  
 S. T. Brown,  E. F. C. Byrd,  A. K. Chakraborty,  C.-L. Cheng,  
 Siu Hung Chien,  D. M. Chipman,  D. L. Crittenden,  H. Dachsel,  
 R. J. Doerksen,  A. D. Dutoi,  L. Fusti-Molnar,  W. A. Goddard III,  
 A. Golubeva-Zadorozhnaya,  S. R. Gwaltney,  G. Hawkins,  A. Heyden,  
 S. Hirata,  G. Kedziora,  F. J. Keil,  C. Kelley,  Jihan Kim,  R. A. King,  
 R. Z. Khaliullin,  P. P. Korambath,  W. Kurlancheek,  A. M. Lee,  M. S. Lee,  
 S. V. Levchenko,  Ching Yeh Lin,  D. Liotard,  R. C. Lochan,  I. Lotan,  
 P. E. Maslen,  N. Nair,  D. P. O'Neill,  D. Neuhauser,  E. Neuscamman,  
 C. M. Oana,  R. Olson,  B. Peters,  R. Peverati,  P. A. Pieniazek,  
 Y. M. Rhee,  J. Ritchie,  M. A. Rohrdanz,  E. Rosta,  N. J. Russ,  
 H. F. Schaefer III,  N. E. Schultz,  N. Shenvi,  A. C. Simmonett,  A. Sodt,  
 D. Stuck,  K. S. Thanthiriwatte,  V. Vanovschi,  Tao Wang,  A. Warshel,  
 C. F. Williams,  Q. Wu,  X. Xu,  W. Zhang

 Please cite Q-Chem as follows:
 Y. Shao et al., Mol. Phys. 113, 184-215 (2015)
 DOI: 10.1080/00268976.2014.952696

 Q-Chem 5.1.1 for Intel X86 EM64T Linux

 Parts of Q-Chem use Armadillo 8.300.2 (Tropical Shenanigans).
 http://arma.sourceforge.net/

 Q-Chem begins on Thu Mar 14 01:17:40 2019  

Host: 
0

     Scratch files written to /staging/scratch/2868765/qchem1702//
 Aug318 |scratch|qcdevops|jenkins|workspace|build_RNUM 6013   
Processing $rem in /usr/usc/qchem/5.1.1/config/preferences.
 MEM_TOTAL  2000 
Input Ideriv = 2
Curr. Ideriv = -1
Max.  Ideriv = 2

Checking the input file for inconsistencies... 	...done.

--------------------------------------------------------------
User input:
--------------------------------------------------------------

$comment
potential surface scanner
$end

$rem
JOBTYPE  PES_SCAN
UNRESTRICTED TRUE
SYM_IGNORE  TRUE
GEOM_OPT_MAX_CYCLES 400
SCF_MAX_CYCLES 400
METHOD   B3LYP
BASIS   6-31G**
PDB_PRINT 2
SCF_CONVERGENCE 6
THRESH 14
SCF_PRINT 1
$end
$molecule
0 1
C 0.310279 1.095391 -1.062559
H -1.171803 -0.190862 -2.610667
C 0.395068 2.060674 0.103806
H 0.072180 3.039869 -0.281320
H -0.360714 1.782170 0.850921
C 1.764244 2.198198 0.769792
H 1.707234 2.931440 1.580222
H 2.094033 1.244128 1.189748
H 2.520128 2.526219 0.053590
Se -1.505340 0.586318 -1.407650
H 0.002324 -1.752656 1.465701
Se 1.696461 0.521144 -2.032750
H -0.691886 -1.593126 1.254668
$end
$scan
stre 10 11 4.100000 4.101000 0.100000
$end
--------------------------------------------------------------
 ----------------------------------------------------------------
             Standard Nuclear Orientation (Angstroms)
    I     Atom           X                Y                Z
 ----------------------------------------------------------------
    1      C       0.3102790000     1.0953910000    -1.0625590000
    2      H      -1.1718030000    -0.1908620000    -2.6106670000
    3      C       0.3950680000     2.0606740000     0.1038060000
    4      H       0.0721800000     3.0398690000    -0.2813200000
    5      H      -0.3607140000     1.7821700000     0.8509210000
    6      C       1.7642440000     2.1981980000     0.7697920000
    7      H       1.7072340000     2.9314400000     1.5802220000
    8      H       2.0940330000     1.2441280000     1.1897480000
    9      H       2.5201280000     2.5262190000     0.0535900000
   10      Se     -1.5053400000     0.5863180000    -1.4076500000
   11      H       0.0023240000    -1.7526560000     1.4657010000
   12      Se      1.6964610000     0.5211440000    -2.0327500000
   13      H      -0.6918860000    -1.5931260000     1.2546680000
 ----------------------------------------------------------------
 Nuclear Repulsion Energy =   595.1005748230 hartrees
 There are       47 alpha and       47 beta electrons
 Requested basis set is 6-31G(d,p)
 There are 52 shells and 155 basis functions

 Total QAlloc Memory Limit   2000 MB
 Mega-Array Size       188 MB
 MEM_STATIC part       192 MB
A total of 1 constraints
  
            1
    1   1.0100000
    2  10.0100000
    3  11.0100000
    4   4.1000000
    5   4.1010000
    6   0.1000000
    7   0.0000000
    8   0.0000000
    9   0.0000000
   10   0.0000000

                       Distance Matrix (Angstroms)
             C (  1)   H (  2)   C (  3)   H (  4)   H (  5)   C (  6)
   H (  2)  2.499530
   C (  3)  1.516367  3.859127
   H (  4)  2.109033  4.172646  1.100637
   H (  5)  2.140865  4.066118  1.098614  1.746761
   C (  6)  2.586060  5.074986  1.528755  2.162482  2.166820
   H (  7)  3.508112  5.966672  2.158661  2.480020  2.475704  1.094391
   H (  8)  2.876941  5.212297  2.175431  3.078411  2.535759  1.093331
   H (  9)  2.859456  5.301995  2.176036  2.523579  3.080357  1.091743
   Se( 10)  1.916955  1.470546  2.840735  3.126836  2.800245  4.246127
   H ( 11)  3.820773  4.520459  4.068230  5.101496  3.606209  4.381541
   Se( 12)  1.786765  3.011292  2.937456  3.471278  3.760015  3.266703
   H ( 13)  3.688089  4.139744  3.981985  4.940415  3.415452  4.543327
             H (  7)   H (  8)   H (  9)   Se( 10)   H ( 11)   Se( 12)
   H (  8)  1.774572
   H (  9)  1.776403  1.765267
   Se( 10)  4.974697  4.487168  4.701365
   H ( 11)  4.986039  3.664984  5.161605  4.000000
   Se( 12)  4.343180  3.326449  3.008582  3.262902  4.503268
   H ( 13)  5.131614  3.976879  5.359909  3.535480  0.742908  4.580552

 
 A cutoff of  1.0D-14 yielded   1204 shell pairs
 There are     10859 function pairs
 
 -------------------------------------------------------
 OpenMP Integral Computing Module                       
 Release: version 1.0, May 2013, Q-Chem Inc. Pittsburgh 
 -------------------------------------------------------
 Integral Job Info:
 Integral job number is                      11
 Integral operator is                         1
 short-range coefficients                     0
 long-range coefficients              100000000
 Omega coefficients                           0
 if combine SR and LR in K                    0
 Integral screening is                        0
 Integral computing path is                   2
 max size of driver memory is            800000
 size of driver memory is                593474
 size of scratch memory is             15267112
 max col of scratch BK array               1296
 max len of scratch array in speh3          155
 max len of scratch index in speh4           18
 max int batch size is                      520
 min int batch size is                       52
 fixed nKL is                                52
 max L of basis functions is                  2
 order of int derivative is                   0
 number of shells is                         52
 number of basis is                         155
 number of cartesian basis is               155
 number of contracted shell pairs          1204
 number of primitive shell pairs           4790
 maxK2 (contraction) of shell pair           36
 max number of K2 of shell pair               1
 max number of CS2 of shell pair             81
 max number of PS2 of shell pair            462
 mem total for path MDJ                  535932
 -------------------------------------------------------
 Smallest overlap matrix eigenvalue = 6.75E-04

 Scale SEOQF with 1.000000e-01/1.000000e-01/1.000000e-01

 Standard Electronic Orientation quadrupole field applied
 Nucleus-field energy     =    -0.0000000091 hartrees
 Guess from superposition of atomic densities
 Warning:  Energy on first SCF cycle will be non-variational
 SAD guess density has 93.936381 electrons

 -----------------------------------------------------------------------
  General SCF calculation program by
  Eric Jon Sundstrom, Paul Horn, Yuezhi Mao, Dmitri Zuev, Alec White,
  David Stuck, Shaama M.S., Shane Yost, Joonho Lee, David Small,
  Daniel Levine, Susi Lehtola, Hugh Burton, Evgeny Epifanovsky
 -----------------------------------------------------------------------
 Exchange:     0.2000 Hartree-Fock + 0.0800 Slater + 0.7200 B88
 Correlation:  0.1900 VWN1RPA + 0.8100 LYP
 Using SG-1 standard quadrature grid
 using 12 threads for integral computing
 -------------------------------------------------------
 OpenMP Integral computing Module                
 Release: version 1.0, May 2013, Q-Chem Inc. Pittsburgh 
 -------------------------------------------------------
 -------------------------------------------------------
 OpenMP BLAS3 based DFT computing Module                
 Release: version 1.0, May 2013, Q-Chem Inc. Pittsburgh 
 -------------------------------------------------------
 A unrestricted SCF calculation will be
 performed using DIIS
 SCF converges when DIIS error is below 1.0e-06
 Alpha HF Exchange    Energy = -18.85999825239764
 Beta HF Exchange     Energy = -18.85999825239764
 DFT Correlation      Energy =  -5.13301869719992
 DFT Exchange         Energy = -149.88113980717483
 One-Electron (alpha) Energy = -4012.64161245004425
 One-Electron (beta)  Energy = -4012.64161245004425
 Total Coulomb        Energy = 2695.07882216801545
 ---------------------------------------
  Cycle       Energy         DIIS error
 ---------------------------------------
    1   -4927.8379829274      1.51e-01  
 Alpha HF Exchange    Energy = -18.96555635294624
 Beta HF Exchange     Energy = -18.96555635294625
 DFT Correlation      Energy =  -5.18572115290459
 DFT Exchange         Energy = -151.01092780394686
 One-Electron (alpha) Energy = -4022.46156571792653
 One-Electron (beta)  Energy = -4022.46156571792835
 Total Coulomb        Energy = 2722.39433113068753
    2   -4921.5559871540      9.32e-03  
 Alpha HF Exchange    Energy = -18.84136569427742
 Beta HF Exchange     Energy = -18.84136569427744
 DFT Correlation      Energy =  -5.15099604693695
 DFT Exchange         Energy = -150.02355708712594
 One-Electron (alpha) Energy = -4009.22384957501845
 One-Electron (beta)  Energy = -4009.22384957502118
 Total Coulomb        Energy = 2694.67970950460949
    3   -4921.5246993542      4.02e-03  
 Alpha HF Exchange    Energy = -18.93868203122554
 Beta HF Exchange     Energy = -18.93868203122554
 DFT Correlation      Energy =  -5.17375399548184
 DFT Exchange         Energy = -150.76730527978094
 One-Electron (alpha) Energy = -4018.87076830801016
 One-Electron (beta)  Energy = -4018.87076830801061
 Total Coulomb        Energy = 2714.94040328445726
    4   -4921.5189818554      3.80e-03  
 Alpha HF Exchange    Energy = -18.91319296163358
 Beta HF Exchange     Energy = -18.91319296163354
 DFT Correlation      Energy =  -5.17184692313606
 DFT Exchange         Energy = -150.59449635243530
 One-Electron (alpha) Energy = -4017.00150924030686
 One-Electron (beta)  Energy = -4017.00150924030231
 Total Coulomb        Energy = 2710.83857100182695
    5   -4921.6566018637      1.58e-03  
 Alpha HF Exchange    Energy = -18.90181474574526
 Beta HF Exchange     Energy = -18.90181474574526
 DFT Correlation      Energy =  -5.16676506126348
 DFT Exchange         Energy = -150.49425213784377
 One-Electron (alpha) Energy = -4015.80906333443954
 One-Electron (beta)  Energy = -4015.80906333444136
 Total Coulomb        Energy = 2708.29325289826420
    6   -4921.6889456473      2.31e-04  
 Alpha HF Exchange    Energy = -18.90056305641643
 Beta HF Exchange     Energy = -18.90056305641640
 DFT Correlation      Energy =  -5.16680532314038
 DFT Exchange         Energy = -150.48648178735840
 One-Electron (alpha) Energy = -4015.57022667279580
 One-Electron (beta)  Energy = -4015.57022667279352
 Total Coulomb        Energy = 2707.80483416221205
    7   -4921.6894575928      1.20e-04  
 Alpha HF Exchange    Energy = -18.90093611181907
 Beta HF Exchange     Energy = -18.90093611181903
 DFT Correlation      Energy =  -5.16668748536686
 DFT Exchange         Energy = -150.48858955697338
 One-Electron (alpha) Energy = -4015.60947125937173
 One-Electron (beta)  Energy = -4015.60947125936900
 Total Coulomb        Energy = 2707.88592003493295
    8   -4921.6895969359      2.38e-05  
 Alpha HF Exchange    Energy = -18.90106460787360
 Beta HF Exchange     Energy = -18.90106460787359
 DFT Correlation      Energy =  -5.16673543481385
 DFT Exchange         Energy = -150.48959559143265
 One-Electron (alpha) Energy = -4015.64083951538032
 One-Electron (beta)  Energy = -4015.64083951537987
 Total Coulomb        Energy = 2707.94995745307824
    9   -4921.6896070058      8.35e-06  
 Alpha HF Exchange    Energy = -18.90105824700982
 Beta HF Exchange     Energy = -18.90105824700982
 DFT Correlation      Energy =  -5.16674799378868
 DFT Exchange         Energy = -150.48954496211803
 One-Electron (alpha) Energy = -4015.63807577565422
 One-Electron (beta)  Energy = -4015.63807577565558
 Total Coulomb        Energy = 2707.94437830867219
   10   -4921.6896078787      1.38e-06  
 Alpha HF Exchange    Energy = -18.90106213451821
 Beta HF Exchange     Energy = -18.90106213451821
 DFT Correlation      Energy =  -5.16674785935835
 DFT Exchange         Energy = -150.48957301537172
 One-Electron (alpha) Energy = -4015.63833485027317
 One-Electron (beta)  Energy = -4015.63833485027226
 Total Coulomb        Energy = 2707.94493212798761
   11   -4921.6896079024      3.35e-07  Convergence criterion met
 ---------------------------------------
 SCF time:   CPU 53.25s  wall 4.00s 
<S^2> =          0.000000000
 Alpha HF Exchange    Energy = -18.90106213451821
 Beta HF Exchange     Energy = -18.90106213451821
 DFT Correlation      Energy =  -5.16674785935835
 DFT Exchange         Energy = -150.48957301537172
 One-Electron (alpha) Energy = -4015.63833485027317
 One-Electron (beta)  Energy = -4015.63833485027226
 Total Coulomb        Energy = 2707.94493212798761
 Nuclear repulsion Energy = 595.10057481388662
 SCF   energy in the final basis set =    -4921.6896079024
 Total energy in the final basis set =    -4921.6896079024
 
 --------------------------------------------------------------
 
                    Orbital Energies (a.u.)
 --------------------------------------------------------------
 
 Alpha MOs
 -- Occupied --
*******-453.879 -58.123 -58.074 -52.180 -52.179 -52.177 -52.132
-52.131 -52.128 -10.289 -10.219 -10.186  -7.856  -7.808  -5.801
 -5.797  -5.790  -5.753  -5.749  -5.740  -2.135  -2.134  -2.128
 -2.124  -2.124  -2.087  -2.086  -2.079  -2.076  -2.074  -0.831
 -0.753  -0.697  -0.652  -0.527  -0.470  -0.449  -0.430  -0.418
 -0.381  -0.370  -0.365  -0.339  -0.305  -0.241  -0.214
 -- Virtual --
 -0.085  -0.023   0.041   0.071   0.093   0.095   0.140   0.150
  0.162   0.178   0.180   0.192   0.221   0.236   0.269   0.276
  0.292   0.320   0.338   0.354   0.445   0.486   0.504   0.515
  0.527   0.559   0.574   0.581   0.606   0.618   0.626   0.649
  0.678   0.694   0.772   0.814   0.830   0.850   0.859   0.880
  0.905   0.919   0.951   0.975   0.980   1.044   1.058   1.075
  1.203   1.329   1.448   1.527   1.588   1.602   1.654   1.677
  1.691   1.759   1.784   1.837   1.876   1.903   2.032   2.042
  2.058   2.067   2.099   2.105   2.156   2.200   2.239   2.295
  2.379   2.386   2.432   2.566   2.601   2.617   2.621   2.662
  2.675   2.738   2.814   2.870   2.898   3.192   3.277   3.370
  3.449   3.517   4.059   4.157   4.243   4.258   4.260   4.269
  4.331   4.350   4.354   4.385   4.437   4.482   4.497   4.605
  5.430   5.472  89.709  89.726
 
 Beta MOs
 -- Occupied --
*******-453.879 -58.123 -58.074 -52.180 -52.179 -52.177 -52.132
-52.131 -52.128 -10.289 -10.219 -10.186  -7.856  -7.808  -5.801
 -5.797  -5.790  -5.753  -5.749  -5.740  -2.135  -2.134  -2.128
 -2.124  -2.124  -2.087  -2.086  -2.079  -2.076  -2.074  -0.831
 -0.753  -0.697  -0.652  -0.527  -0.470  -0.449  -0.430  -0.418
 -0.381  -0.370  -0.365  -0.339  -0.305  -0.241  -0.214
 -- Virtual --
 -0.085  -0.023   0.041   0.071   0.093   0.095   0.140   0.150
  0.162   0.178   0.180   0.192   0.221   0.236   0.269   0.276
  0.292   0.320   0.338   0.354   0.445   0.486   0.504   0.515
  0.527   0.559   0.574   0.581   0.606   0.618   0.626   0.649
  0.678   0.694   0.772   0.814   0.830   0.850   0.859   0.880
  0.905   0.919   0.951   0.975   0.980   1.044   1.058   1.075
  1.203   1.329   1.448   1.527   1.588   1.602   1.654   1.677
  1.691   1.759   1.784   1.837   1.876   1.903   2.032   2.042
  2.058   2.067   2.099   2.105   2.156   2.200   2.239   2.295
  2.379   2.386   2.432   2.566   2.601   2.617   2.621   2.662
  2.675   2.738   2.814   2.870   2.898   3.192   3.277   3.370
  3.449   3.517   4.059   4.157   4.243   4.258   4.260   4.269
  4.331   4.350   4.354   4.385   4.437   4.482   4.497   4.605
  5.430   5.472  89.709  89.726
 --------------------------------------------------------------
 
          Ground-State Mulliken Net Atomic Charges

     Atom                 Charge (a.u.)    Spin (a.u.)
  --------------------------------------------------------
      1 C                    -0.032208       0.000000
      2 H                     0.091913      -0.000000
      3 C                    -0.225485       0.000000
      4 H                     0.150978       0.000000
      5 H                     0.130016      -0.000000
      6 C                    -0.315299       0.000000
      7 H                     0.104002       0.000000
      8 H                     0.126073       0.000000
      9 H                     0.141703      -0.000000
     10 Se                    0.020483       0.000000
     11 H                    -0.004734       0.000000
     12 Se                   -0.192241      -0.000000
     13 H                     0.004800      -0.000000
  --------------------------------------------------------
  Sum of atomic charges =     0.000000
  Sum of spin   charges =    -0.000000

 -----------------------------------------------------------------
                    Cartesian Multipole Moments
 -----------------------------------------------------------------
    Charge (ESU x 10^10)
                -0.0000
    Dipole Moment (Debye)
         X      -1.3655      Y       0.8605      Z       1.1747
       Tot       1.9963
    Quadrupole Moments (Debye-Ang)
        XX     -59.8578     XY       0.2227     YY     -55.4601
        XZ       4.0026     YZ       2.6707     ZZ     -58.9963
    Octopole Moments (Debye-Ang^2)
       XXX     -63.9580    XXY     -58.0047    XYY     -17.1741
       YYY    -148.2326    XXZ      61.6993    XYZ      -1.1753
       YYZ      64.3373    XZZ     -27.3864    YZZ     -57.3624
       ZZZ     182.6714
    Hexadecapole Moments (Debye-Ang^3)
      XXXX    -805.9680   XXXY    -114.4935   XXYY    -239.8145
      XYYY    -107.2035   YYYY    -585.1794   XXXZ      46.8038
      XXYZ      41.4050   XYYZ      14.7199   YYYZ      94.1621
      XXZZ    -268.4403   XYZZ     -33.5938   YYZZ    -251.6233
      XZZZ      62.7239   YZZZ     101.8353   ZZZZ    -866.8004
 -----------------------------------------------------------------
 Calculating analytic gradient of the SCF energy
 Gradient of SCF Energy
            1           2           3           4           5           6
    1  -0.0001907  -0.0000668   0.0002478  -0.0000652  -0.0000669   0.0000267
    2   0.0001124   0.0000087  -0.0001625   0.0000094   0.0001209   0.0000157
    3  -0.0000455   0.0000843  -0.0000132   0.0000726   0.0000011  -0.0000591
            7           8           9          10          11          12
    1   0.0000723  -0.0000232   0.0000180   0.0002307  -0.0000690  -0.0000477
    2   0.0000102  -0.0000138  -0.0000898  -0.0001932   0.0002686  -0.0001142
    3  -0.0000982   0.0000401  -0.0001138   0.0003300  -0.0003894   0.0001107
           13
    1  -0.0000661
    2   0.0000277
    3   0.0000804
 Max gradient component =       3.894E-04
 RMS gradient           =       1.330E-04
 Gradient time:  CPU 18.56 s  wall 1.57 s
 Geometry Optimization Parameters
   NAtoms,    NIC,     NZ,  NCons,   NDum,   NFix, NCnnct, MaxDiis
       13     136       0       1       0       0       0       0


** CONSTRAINED OPTIMIZATION IN DELOCALIZED INTERNAL COORDINATES **
   Searching for a Minimum

   Optimization Cycle:   1

                       Coordinates (Angstroms)
     ATOM                X               Y               Z
      1  C         0.3102790000    1.0953910000   -1.0625590000
      2  H        -1.1718030000   -0.1908620000   -2.6106670000
      3  C         0.3950680000    2.0606740000    0.1038060000
      4  H         0.0721800000    3.0398690000   -0.2813200000
      5  H        -0.3607140000    1.7821700000    0.8509210000
      6  C         1.7642440000    2.1981980000    0.7697920000
      7  H         1.7072340000    2.9314400000    1.5802220000
      8  H         2.0940330000    1.2441280000    1.1897480000
      9  H         2.5201280000    2.5262190000    0.0535900000
     10  Se       -1.5053400000    0.5863180000   -1.4076500000
     11  H         0.0023240000   -1.7526560000    1.4657010000
     12  Se        1.6964610000    0.5211440000   -2.0327500000
     13  H        -0.6918860000   -1.5931260000    1.2546680000
   Point Group: c1    Number of degrees of freedom:    33


   Energy is  -4921.689607902

              Constraints and their Current Values
                                        Value     Constraint
   Distance(Angs):       10  11             4.000000     4.100000

 Attempting to Generate Delocalized Internal Coordinates

   Using Lagrange Multiplier Algorithm


 34 Hessian modes will be used to form the next step
  Hessian Eigenvalues:
    -0.997363    0.010338    0.027477    0.041833    0.045121    0.048670
     0.056519    0.060945    0.066289    0.068035    0.071322    0.076912
     0.080127    0.083562    0.088342    0.091853    0.101646    0.115930
     0.124285    0.125979    0.129749    0.151789    0.176284    0.182264
     0.265121    0.271876    0.274377    0.281481    0.284819    0.326024
     0.336118    0.343101    0.346119    1.002644

 Minimum Search - Taking P-RFO Step
 Searching for Lamda that Maximizes Along the Constraint modes Only
 Value Taken    Lamda =   0.01755692


 ********************************************
 ** ERROR IN DETERMINING Lamda IN CONFormD **
 ********************************************


 ** Scaling Hessian by  3.396628 **


 34 Hessian modes will be used to form the next step
  Hessian Eigenvalues:
    -0.991072    0.035114    0.093331    0.142090    0.153258    0.165314
     0.191973    0.207008    0.225161    0.231088    0.242253    0.261241
     0.272161    0.283830    0.300064    0.311991    0.345254    0.393771
     0.422149    0.427903    0.440708    0.515572    0.598772    0.619081
     0.900519    0.923461    0.931958    0.956086    0.967424    1.009009
     1.107382    1.141667    1.165388    1.175639

 Minimum Search - Taking P-RFO Step
 Searching for Lamda that Maximizes Along the Constraint modes Only
 Value Taken    Lamda =   0.01777462
 Searching for Lamda that Minimizes Along All other modes
 Value Taken    Lamda =  -0.01732353
 Step Taken.  Stepsize is  0.185717

                             Maximum     Tolerance    Cnvgd?
         Gradient            0.188974       0.000300      NO
         Displacement        0.185713       0.001200      NO
         Energy change     *********       0.000001      NO


 New Cartesian Coordinates Obtained by Inverse Iteration

 Displacement from previous Coordinates is:  0.187210
 ----------------------------------------------------------------
             Standard Nuclear Orientation (Angstroms)
    I     Atom           X                Y                Z
 ----------------------------------------------------------------
    1      C       0.3065943812     1.0908842096    -1.0707318144
    2      H      -1.1945487728    -0.1657962673    -2.6455739710
    3      C       0.3971998878     2.0531941030     0.0993027974
    4      H       0.0780493017     3.0311067751    -0.2921416135
    5      H      -0.3583165269     1.7741021313     0.8486603135
    6      C       1.7629565832     2.1961462931     0.7781103943
    7      H       1.6958024448     2.9324352022     1.5850129535
    8      H       2.1004395382     1.2490915981     1.2086976112
    9      H       2.5216137995     2.5249946149     0.0652399657
   10      Se     -1.5236212516     0.6122774982    -1.4418733870
   11      H       0.0422102531    -1.7662872017     1.5054064530
   12      Se      1.6900622132     0.5071734136    -2.0391926200
   13      H      -0.6862338513    -1.5904153698     1.2725849174
 ----------------------------------------------------------------
 Nuclear Repulsion Energy =   593.2176896807 hartrees
 There are       47 alpha and       47 beta electrons

                       Distance Matrix (Angstroms)
             C (  1)   H (  2)   C (  3)   H (  4)   H (  5)   C (  6)
   H (  2)  2.512529
   C (  3)  1.517640  3.871941
   H (  4)  2.103069  4.168733  1.100636
   H (  5)  2.143119  4.083156  1.100106  1.752685
   C (  6)  2.600156  5.103648  1.531831  2.163680  2.164001
   H (  7)  3.517697  5.987573  2.160270  2.480034  2.470497  1.094405
   H (  8)  2.904946  5.264434  2.185947  3.085151  2.539832  1.093715
   H (  9)  2.872876  5.329046  2.176440  2.520888  3.077594  1.091735
   Se( 10)  1.927823  1.470572  2.853247  3.120572  2.820340  4.270663
   H ( 11)  3.856140  4.617552  4.085533  5.123227  3.622995  4.380731
   Se( 12)  1.786790  3.023502  2.938509  3.467133  3.760407  3.285596
   H ( 13)  3.696784  4.199987  3.978229  4.938721  3.406937  4.536638
             H (  7)   H (  8)   H (  9)   Se( 10)   H ( 11)   Se( 12)
   H (  8)  1.771720
   H (  9)  1.776987  1.764316
   Se( 10)  4.990978  4.534851  4.721632
   H ( 11)  4.981837  3.662902  5.161068  4.098275
   Se( 12)  4.360825  3.356731  3.031784  3.270413  4.521971
   H ( 13)  5.121317  3.978999  5.355798  3.594629  0.784709  4.584161

 
 Applying Cartesian multipole field
    Component          Value
    ---------          -----
     (2,0,0)        1.00000E-11
     (0,2,0)        2.00000E-11
     (0,0,2)       -3.00000E-11
 Nucleus-field energy     =    -0.0000000096 hartrees
 Requested basis set is 6-31G(d,p)
 There are 52 shells and 155 basis functions
 A cutoff of  1.0D-14 yielded   1202 shell pairs
 There are     10835 function pairs
 Smallest overlap matrix eigenvalue = 6.75E-04
 Guess from superposition of atomic densities
 Warning:  Energy on first SCF cycle will be non-variational
 SAD guess density has 93.936381 electrons

 -----------------------------------------------------------------------
  General SCF calculation program by
  Eric Jon Sundstrom, Paul Horn, Yuezhi Mao, Dmitri Zuev, Alec White,
  David Stuck, Shaama M.S., Shane Yost, Joonho Lee, David Small,
  Daniel Levine, Susi Lehtola, Hugh Burton, Evgeny Epifanovsky
 -----------------------------------------------------------------------
 Exchange:     0.2000 Hartree-Fock + 0.0800 Slater + 0.7200 B88
 Correlation:  0.1900 VWN1RPA + 0.8100 LYP
 Using SG-1 standard quadrature grid
 using 12 threads for integral computing
 -------------------------------------------------------
 OpenMP Integral computing Module                
 Release: version 1.0, May 2013, Q-Chem Inc. Pittsburgh 
 -------------------------------------------------------
 -------------------------------------------------------
 OpenMP BLAS3 based DFT computing Module                
 Release: version 1.0, May 2013, Q-Chem Inc. Pittsburgh 
 -------------------------------------------------------
 A unrestricted SCF calculation will be
 performed using DIIS
 SCF converges when DIIS error is below 1.0e-06
 Alpha HF Exchange    Energy = -18.85714631371549
 Beta HF Exchange     Energy = -18.85714631371549
 DFT Correlation      Energy =  -5.13212345686578
 DFT Exchange         Energy = -149.87489272728868
 One-Electron (alpha) Energy = -4010.78364215924012
 One-Electron (beta)  Energy = -4010.78364215924012
 Total Coulomb        Energy = 2693.25195411873938
 ---------------------------------------
  Cycle       Energy         DIIS error
 ---------------------------------------
    1   -4927.8189493402      1.51e-01  
 Alpha HF Exchange    Energy = -18.96311488755122
 Beta HF Exchange     Energy = -18.96311488755122
 DFT Correlation      Energy =  -5.18455471785041
 DFT Exchange         Energy = -150.99313879578045
 One-Electron (alpha) Energy = -4020.58621670816774
 One-Electron (beta)  Energy = -4020.58621670816638
 Total Coulomb        Energy = 2720.50306313025476
    2   -4921.5556039037      9.32e-03  
 Alpha HF Exchange    Energy = -18.83952165220568
 Beta HF Exchange     Energy = -18.83952165220564
 DFT Correlation      Energy =  -5.15009551144716
 DFT Exchange         Energy = -150.01111089922972
 One-Electron (alpha) Energy = -4007.37078615301652
 One-Electron (beta)  Energy = -4007.37078615301289
 Total Coulomb        Energy = 2692.84217169688691
    3   -4921.5219606532      4.05e-03  
 Alpha HF Exchange    Energy = -18.93646529687296
 Beta HF Exchange     Energy = -18.93646529687295
 DFT Correlation      Energy =  -5.17242181252066
 DFT Exchange         Energy = -150.74996731106091
 One-Electron (alpha) Energy = -4016.97192483281697
 One-Electron (beta)  Energy = -4016.97192483281606
 Total Coulomb        Energy = 2713.01040197487055
    4   -4921.5110777370      3.86e-03  
 Alpha HF Exchange    Energy = -18.91138824146650
 Beta HF Exchange     Energy = -18.91138824146648
 DFT Correlation      Energy =  -5.17092142357447
 DFT Exchange         Energy = -150.58229936972222
 One-Electron (alpha) Energy = -4015.16048917193621
 One-Electron (beta)  Energy = -4015.16048917193348
 Total Coulomb        Energy = 2709.02516364530538
    5   -4921.6541223037      1.61e-03  
 Alpha HF Exchange    Energy = -18.89966708142292
 Beta HF Exchange     Energy = -18.89966708142291
 DFT Correlation      Energy =  -5.16570192616043
 DFT Exchange         Energy = -150.47904978389673
 One-Electron (alpha) Energy = -4013.94155237308314
 One-Electron (beta)  Energy = -4013.94155237308087
 Total Coulomb        Energy = 2706.42162933677400
    6   -4921.6878716112      2.23e-04  
 Alpha HF Exchange    Energy = -18.89840596212923
 Beta HF Exchange     Energy = -18.89840596212923
 DFT Correlation      Energy =  -5.16571877209070
 DFT Exchange         Energy = -150.47113172645004
 One-Electron (alpha) Energy = -4013.69451378455778
 One-Electron (beta)  Energy = -4013.69451378455733
 Total Coulomb        Energy = 2705.91666225822019
    7   -4921.6883380626      1.21e-04  
 Alpha HF Exchange    Energy = -18.89881489152521
 Beta HF Exchange     Energy = -18.89881489152518
 DFT Correlation      Energy =  -5.16561212164382
 DFT Exchange         Energy = -150.47353547099092
 One-Electron (alpha) Energy = -4013.74157023276302
 One-Electron (beta)  Energy = -4013.74157023275984
 Total Coulomb        Energy = 2706.01375195142055
    8   -4921.6884762187      2.39e-05  
 Alpha HF Exchange    Energy = -18.89893393685608
 Beta HF Exchange     Energy = -18.89893393685609
 DFT Correlation      Energy =  -5.16565958193617
 DFT Exchange         Energy = -150.47446708032288
 One-Electron (alpha) Energy = -4013.77156491637379
 One-Electron (beta)  Energy = -4013.77156491637516
 Total Coulomb        Energy = 2706.07494828668814
    9   -4921.6884864109      8.36e-06  
 Alpha HF Exchange    Energy = -18.89892734842741
 Beta HF Exchange     Energy = -18.89892734842738
 DFT Correlation      Energy =  -5.16567163036103
 DFT Exchange         Energy = -150.47441469891555
 One-Electron (alpha) Energy = -4013.76872542084857
 One-Electron (beta)  Energy = -4013.76872542084629
 Total Coulomb        Energy = 2706.06921489268461
   10   -4921.6884873041      1.41e-06  
 Alpha HF Exchange    Energy = -18.89893139355659
 Beta HF Exchange     Energy = -18.89893139355659
 DFT Correlation      Energy =  -5.16567150161732
 DFT Exchange         Energy = -150.47444415168880
 One-Electron (alpha) Energy = -4013.76905320657670
 One-Electron (beta)  Energy = -4013.76905320657670
 Total Coulomb        Energy = 2706.06990785419157
   11   -4921.6884873283      3.39e-07  Convergence criterion met
 ---------------------------------------
 SCF time:   CPU 52.21s  wall 4.00s 
<S^2> =          0.000000000
 Alpha HF Exchange    Energy = -18.89893139355659
 Beta HF Exchange     Energy = -18.89893139355659
 DFT Correlation      Energy =  -5.16567150161732
 DFT Exchange         Energy = -150.47444415168880
 One-Electron (alpha) Energy = -4013.76905320657670
 One-Electron (beta)  Energy = -4013.76905320657670
 Total Coulomb        Energy = 2706.06990785419157
 Nuclear repulsion Energy = 593.21768967108130
 SCF   energy in the final basis set =    -4921.6884873283
 Total energy in the final basis set =    -4921.6884873283
 
 --------------------------------------------------------------
 
                    Orbital Energies (a.u.)
 --------------------------------------------------------------
 
 Alpha MOs
 -- Occupied --
*******-453.880 -58.122 -58.075 -52.180 -52.178 -52.177 -52.132
-52.132 -52.129 -10.290 -10.219 -10.187  -7.856  -7.808  -5.801
 -5.796  -5.789  -5.753  -5.750  -5.741  -2.134  -2.133  -2.127
 -2.123  -2.123  -2.087  -2.086  -2.079  -2.076  -2.075  -0.830
 -0.752  -0.697  -0.652  -0.527  -0.470  -0.449  -0.422  -0.417
 -0.382  -0.370  -0.365  -0.338  -0.305  -0.241  -0.214
 -- Virtual --
 -0.085  -0.024   0.039   0.071   0.084   0.094   0.139   0.150
  0.162   0.178   0.180   0.192   0.220   0.235   0.269   0.276
  0.291   0.319   0.337   0.353   0.445   0.488   0.504   0.515
  0.527   0.559   0.574   0.581   0.605   0.616   0.634   0.650
  0.677   0.693   0.769   0.814   0.829   0.850   0.858   0.878
  0.904   0.918   0.950   0.974   0.978   1.029   1.055   1.060
  1.201   1.328   1.447   1.525   1.587   1.601   1.652   1.682
  1.693   1.759   1.780   1.833   1.879   1.898   2.032   2.042
  2.058   2.067   2.099   2.104   2.153   2.195   2.237   2.295
  2.306   2.378   2.431   2.565   2.571   2.575   2.601   2.661
  2.672   2.737   2.812   2.868   2.897   3.190   3.276   3.369
  3.449   3.515   3.974   4.057   4.243   4.256   4.259   4.268
  4.331   4.349   4.353   4.383   4.435   4.483   4.497   4.604
  5.430   5.471  89.710  89.723
 
 Beta MOs
 -- Occupied --
*******-453.880 -58.122 -58.075 -52.180 -52.178 -52.177 -52.132
-52.132 -52.129 -10.290 -10.219 -10.187  -7.856  -7.808  -5.801
 -5.796  -5.789  -5.753  -5.750  -5.741  -2.134  -2.133  -2.127
 -2.123  -2.123  -2.087  -2.086  -2.079  -2.076  -2.075  -0.830
 -0.752  -0.697  -0.652  -0.527  -0.470  -0.449  -0.422  -0.417
 -0.382  -0.370  -0.365  -0.338  -0.305  -0.241  -0.214
 -- Virtual --
 -0.085  -0.024   0.039   0.071   0.084   0.094   0.139   0.150
  0.162   0.178   0.180   0.192   0.220   0.235   0.269   0.276
  0.291   0.319   0.337   0.353   0.445   0.488   0.504   0.515
  0.527   0.559   0.574   0.581   0.605   0.616   0.634   0.650
  0.677   0.693   0.769   0.814   0.829   0.850   0.858   0.878
  0.904   0.918   0.950   0.974   0.978   1.029   1.055   1.060
  1.201   1.328   1.447   1.525   1.587   1.601   1.652   1.682
  1.693   1.759   1.780   1.833   1.879   1.898   2.032   2.042
  2.058   2.067   2.099   2.104   2.153   2.195   2.237   2.295
  2.306   2.378   2.431   2.565   2.571   2.575   2.601   2.661
  2.672   2.737   2.812   2.868   2.897   3.190   3.276   3.369
  3.449   3.515   3.974   4.057   4.243   4.256   4.259   4.268
  4.331   4.349   4.353   4.383   4.435   4.483   4.497   4.604
  5.430   5.471  89.710  89.723
 --------------------------------------------------------------
 
          Ground-State Mulliken Net Atomic Charges

     Atom                 Charge (a.u.)    Spin (a.u.)
  --------------------------------------------------------
      1 C                    -0.033573       0.000000
      2 H                     0.091709       0.000000
      3 C                    -0.224824       0.000000
      4 H                     0.151257      -0.000000
      5 H                     0.130431      -0.000000
      6 C                    -0.315344      -0.000000
      7 H                     0.104749       0.000000
      8 H                     0.126235       0.000000
      9 H                     0.140860       0.000000
     10 Se                    0.018114      -0.000000
     11 H                    -0.004720       0.000000
     12 Se                   -0.189766      -0.000000
     13 H                     0.004872      -0.000000
  --------------------------------------------------------
  Sum of atomic charges =    -0.000000
  Sum of spin   charges =    -0.000000

 -----------------------------------------------------------------
                    Cartesian Multipole Moments
 -----------------------------------------------------------------
    Charge (ESU x 10^10)
                -0.0000
    Dipole Moment (Debye)
         X      -1.3189      Y       0.8843      Z       1.1679
       Tot       1.9712
    Quadrupole Moments (Debye-Ang)
        XX     -59.8549     XY       0.2589     YY     -55.5363
        XZ       4.0223     YZ       2.6336     ZZ     -58.9147
    Octopole Moments (Debye-Ang^2)
       XXX     -62.4778    XXY     -57.9660    XYY     -16.4040
       YYY    -148.5654    XXZ      62.2216    XYZ      -1.2534
       YYZ      65.1016    XZZ     -26.9237    YZZ     -57.3853
       ZZZ     184.2785
    Hexadecapole Moments (Debye-Ang^3)
      XXXX    -809.4555   XXXY    -109.9035   XXYY    -240.5536
      XYYY    -102.2972   YYYY    -586.8087   XXXZ      42.1261
      XXYZ      42.0694   XYYZ      12.6334   YYYZ      96.6770
      XXZZ    -270.7939   XYZZ     -31.8667   YYZZ    -254.7691
      XZZZ      58.6076   YZZZ     104.4066   ZZZZ    -882.3144
 -----------------------------------------------------------------
 Calculating analytic gradient of the SCF energy
 Gradient of SCF Energy
            1           2           3           4           5           6
    1   0.0005987  -0.0005434   0.0007852   0.0002010   0.0000004   0.0001596
    2   0.0005300  -0.0002133   0.0009671  -0.0001515  -0.0004502   0.0004751
    3   0.0005849  -0.0000964  -0.0014912  -0.0007603   0.0012182   0.0017002
            7           8           9          10          11          12
    1   0.0002735   0.0008718  -0.0002591  -0.0023287   0.0243395   0.0003207
    2  -0.0002228   0.0002914  -0.0002607  -0.0009574  -0.0056601  -0.0002358
    3   0.0002124   0.0006641  -0.0002304  -0.0010510   0.0074468  -0.0005370
           13
    1  -0.0244191
    2   0.0058883
    3  -0.0076602
 Max gradient component =       2.442E-02
 RMS gradient           =       5.969E-03
 Gradient time:  CPU 18.62 s  wall 1.57 s
 Geometry Optimization Parameters
   NAtoms,    NIC,     NZ,  NCons,   NDum,   NFix, NCnnct, MaxDiis
       13     136       0       1       0       0       0       0

 Cartesian Hessian Update
 Hessian Updated using BFGS Update


** CONSTRAINED OPTIMIZATION IN DELOCALIZED INTERNAL COORDINATES **
   Searching for a Minimum

   Optimization Cycle:   2

                       Coordinates (Angstroms)
     ATOM                X               Y               Z
      1  C         0.3065943812    1.0908842096   -1.0707318144
      2  H        -1.1945487728   -0.1657962673   -2.6455739710
      3  C         0.3971998878    2.0531941030    0.0993027974
      4  H         0.0780493017    3.0311067751   -0.2921416135
      5  H        -0.3583165269    1.7741021313    0.8486603135
      6  C         1.7629565832    2.1961462931    0.7781103943
      7  H         1.6958024448    2.9324352022    1.5850129535
      8  H         2.1004395382    1.2490915981    1.2086976112
      9  H         2.5216137995    2.5249946149    0.0652399657
     10  Se       -1.5236212516    0.6122774982   -1.4418733870
     11  H         0.0422102531   -1.7662872017    1.5054064530
     12  Se        1.6900622132    0.5071734136   -2.0391926200
     13  H        -0.6862338513   -1.5904153698    1.2725849174
   Point Group: c1    Number of degrees of freedom:    33


   Energy is  -4921.688487328

              Constraints and their Current Values
                                        Value     Constraint
   Distance(Angs):       10  11             4.098275     4.100000
 Hessian Updated using BFGS Update

   Using Lagrange Multiplier Algorithm


 34 Hessian modes will be used to form the next step
  Hessian Eigenvalues:
    -0.970314    0.035140    0.093345    0.142369    0.153247    0.165315
     0.191961    0.207001    0.225205    0.231157    0.242252    0.261270
     0.272409    0.283839    0.300068    0.312658    0.349396    0.393816
     0.422162    0.427989    0.440797    0.516038    0.602039    0.619088
     0.907328    0.923483    0.940307    0.963972    0.990389    1.105349
     1.141656    1.165368    1.175207    1.181864

 Minimum Search - Taking P-RFO Step
 Searching for Lamda that Maximizes Along the Constraint modes Only
 Value Taken    Lamda =   0.00006355
 Searching for Lamda that Minimizes Along All other modes
 Value Taken    Lamda =  -0.00045168
 Step Taken.  Stepsize is  0.023369

                             Maximum     Tolerance    Cnvgd?
         Gradient            0.017960       0.000300      NO
         Displacement        0.017710       0.001200      NO
         Energy change      0.001121       0.000001      NO


 New Cartesian Coordinates Obtained by Inverse Iteration

 Displacement from previous Coordinates is:  0.020872
 ----------------------------------------------------------------
             Standard Nuclear Orientation (Angstroms)
    I     Atom           X                Y                Z
 ----------------------------------------------------------------
    1      C       0.3067784063     1.0915167278    -1.0703382732
    2      H      -1.1908577406    -0.1628521205    -2.6462524302
    3      C       0.3961520789     2.0530676335     0.0997541173
    4      H       0.0765621628     3.0312095179    -0.2906747394
    5      H      -0.3589109000     1.7739955069     0.8491595492
    6      C       1.7623949135     2.1953809648     0.7761239121
    7      H       1.6962014404     2.9316575876     1.5831053168
    8      H       2.0989951187     1.2478283288     1.2062071820
    9      H       2.5207496778     2.5241771600     0.0628222247
   10      Se     -1.5219292586     0.6142291253    -1.4425636075
   11      H       0.0383744810    -1.7672981766     1.5076534386
   12      Se      1.6906977077     0.5088643175    -2.0382485483
   13      H      -0.6830000879    -1.5928695731     1.2767538579
 ----------------------------------------------------------------
 Nuclear Repulsion Energy =   593.4971322360 hartrees
 There are       47 alpha and       47 beta electrons

                       Distance Matrix (Angstroms)
             C (  1)   H (  2)   C (  3)   H (  4)   H (  5)   C (  6)
   H (  2)  2.509952
   C (  3)  1.517130  3.869038
   H (  4)  2.103160  4.166189  1.100606
   H (  5)  2.143220  4.081840  1.099823  1.751983
   C (  6)  2.597452  5.098590  1.531127  2.163030  2.163987
   H (  7)  3.515306  5.983190  2.159254  2.478748  2.470292  1.094397
   H (  8)  2.901574  5.258764  2.184565  3.084046  2.538826  1.093676
   H (  9)  2.870233  5.323086  2.176516  2.521130  3.077912  1.091791
   Se( 10)  1.926273  1.470486  2.850971  3.118304  2.819515  4.267247
   H ( 11)  3.858873  4.619545  4.087222  5.124560  3.623839  4.382945
   Se( 12)  1.786496  3.020635  2.937936  3.467228  3.760130  3.281794
   H ( 13)  3.700599  4.206287  3.980296  4.941242  3.409348  4.536676
             H (  7)   H (  8)   H (  9)   Se( 10)   H ( 11)   Se( 12)
   H (  8)  1.771885
   H (  9)  1.776846  1.764730
   Se( 10)  4.988137  4.530842  4.717769
   H ( 11)  4.983399  3.664426  5.163960  4.100000
   Se( 12)  4.357082  3.352502  3.027370  3.269085  4.525982
   H ( 13)  5.121113  3.976687  5.356092  3.601357  0.777252  4.587043

 
 Applying Cartesian multipole field
    Component          Value
    ---------          -----
     (2,0,0)        1.00000E-11
     (0,2,0)        2.00000E-11
     (0,0,2)       -3.00000E-11
 Nucleus-field energy     =    -0.0000000096 hartrees
 Requested basis set is 6-31G(d,p)
 There are 52 shells and 155 basis functions
 A cutoff of  1.0D-14 yielded   1201 shell pairs
 There are     10834 function pairs
 Smallest overlap matrix eigenvalue = 6.75E-04
 Guess from superposition of atomic densities
 Warning:  Energy on first SCF cycle will be non-variational
 SAD guess density has 93.936381 electrons

 -----------------------------------------------------------------------
  General SCF calculation program by
  Eric Jon Sundstrom, Paul Horn, Yuezhi Mao, Dmitri Zuev, Alec White,
  David Stuck, Shaama M.S., Shane Yost, Joonho Lee, David Small,
  Daniel Levine, Susi Lehtola, Hugh Burton, Evgeny Epifanovsky
 -----------------------------------------------------------------------
 Exchange:     0.2000 Hartree-Fock + 0.0800 Slater + 0.7200 B88
 Correlation:  0.1900 VWN1RPA + 0.8100 LYP
 Using SG-1 standard quadrature grid
 using 12 threads for integral computing
 -------------------------------------------------------
 OpenMP Integral computing Module                
 Release: version 1.0, May 2013, Q-Chem Inc. Pittsburgh 
 -------------------------------------------------------
 -------------------------------------------------------
 OpenMP BLAS3 based DFT computing Module                
 Release: version 1.0, May 2013, Q-Chem Inc. Pittsburgh 
 -------------------------------------------------------
 A unrestricted SCF calculation will be
 performed using DIIS
 SCF converges when DIIS error is below 1.0e-06
 Alpha HF Exchange    Energy = -18.85769225262917
 Beta HF Exchange     Energy = -18.85769225262917
 DFT Correlation      Energy =  -5.13226743534848
 DFT Exchange         Energy = -149.87609136529051
 One-Electron (alpha) Energy = -4011.05867164602387
 One-Electron (beta)  Energy = -4011.05867164602387
 Total Coulomb        Energy = 2693.52114894147326
 ---------------------------------------
  Cycle       Energy         DIIS error
 ---------------------------------------
    1   -4927.8228054300      1.51e-01  
 Alpha HF Exchange    Energy = -18.96356926497614
 Beta HF Exchange     Energy = -18.96356926497612
 DFT Correlation      Energy =  -5.18475855939300
 DFT Exchange         Energy = -150.99645271239763
 One-Electron (alpha) Energy = -4020.86574326055916
 One-Electron (beta)  Energy = -4020.86574326055734
 Total Coulomb        Energy = 2720.78684409424204
    2   -4921.5558600021      9.32e-03  
 Alpha HF Exchange    Energy = -18.83984763843263
 Beta HF Exchange     Energy = -18.83984763843266
 DFT Correlation      Energy =  -5.15023622791435
 DFT Exchange         Energy = -150.01328198889365
 One-Electron (alpha) Energy = -4007.64425630365986
 One-Electron (beta)  Energy = -4007.64425630366304
 Total Coulomb        Energy = 2693.11169762103782
    3   -4921.5228962535      4.04e-03  
 Alpha HF Exchange    Energy = -18.93688354253267
 Beta HF Exchange     Energy = -18.93688354253269
 DFT Correlation      Energy =  -5.17265794055007
 DFT Exchange         Energy = -150.75326657738862
 One-Electron (alpha) Energy = -4017.25697972920852
 One-Electron (beta)  Energy = -4017.25697972920898
 Total Coulomb        Energy = 2713.30333733350790
    4   -4921.5131815014      3.85e-03  
 Alpha HF Exchange    Energy = -18.91170916542704
 Beta HF Exchange     Energy = -18.91170916542706
 DFT Correlation      Energy =  -5.17107179536025
 DFT Exchange         Energy = -150.58444656157405
 One-Electron (alpha) Energy = -4015.43129404388492
 One-Electron (beta)  Energy = -4015.43129404388856
 Total Coulomb        Energy = 2709.28964833954342
    5   -4921.6547442095      1.60e-03  
 Alpha HF Exchange    Energy = -18.90006676026702
 Beta HF Exchange     Energy = -18.90006676026703
 DFT Correlation      Energy =  -5.16588241318335
 DFT Exchange         Energy = -150.48187923849656
 One-Electron (alpha) Energy = -4014.21909677868325
 One-Electron (beta)  Energy = -4014.21909677868325
 Total Coulomb        Energy = 2706.70072086446726
    6   -4921.6882356386      2.24e-04  
 Alpha HF Exchange    Energy = -18.89880546108654
 Beta HF Exchange     Energy = -18.89880546108650
 DFT Correlation      Energy =  -5.16590198557907
 DFT Exchange         Energy = -150.47396688432028
 One-Electron (alpha) Energy = -4013.97345599803430
 One-Electron (beta)  Energy = -4013.97345599803157
 Total Coulomb        Energy = 2706.19855163207558
    7   -4921.6887079296      1.20e-04  
 Alpha HF Exchange    Energy = -18.89920571190932
 Beta HF Exchange     Energy = -18.89920571190936
 DFT Correlation      Energy =  -5.16579299222005
 DFT Exchange         Energy = -150.47630174724435
 One-Electron (alpha) Energy = -4014.01881732638185
 One-Electron (beta)  Energy = -4014.01881732638594
 Total Coulomb        Energy = 2706.29216293194531
    8   -4921.6888456576      2.39e-05  
 Alpha HF Exchange    Energy = -18.89932650050535
 Beta HF Exchange     Energy = -18.89932650050539
 DFT Correlation      Energy =  -5.16584052521899
 DFT Exchange         Energy = -150.47724718300864
 One-Electron (alpha) Energy = -4014.04903953210351
 One-Electron (beta)  Energy = -4014.04903953210760
 Total Coulomb        Energy = 2706.35383175919696
    9   -4921.6888557878      8.35e-06  
 Alpha HF Exchange    Energy = -18.89931998126815
 Beta HF Exchange     Energy = -18.89931998126816
 DFT Correlation      Energy =  -5.16585264845511
 DFT Exchange         Energy = -150.47719530474879
 One-Electron (alpha) Energy = -4014.04622212584673
 One-Electron (beta)  Energy = -4014.04622212584763
 Total Coulomb        Energy = 2706.34814326602009
   10   -4921.6888566749      1.40e-06  
 Alpha HF Exchange    Energy = -18.89932400001095
 Beta HF Exchange     Energy = -18.89932400001095
 DFT Correlation      Energy =  -5.16585252643184
 DFT Exchange         Energy = -150.47722452625243
 One-Electron (alpha) Energy = -4014.04653682487242
 One-Electron (beta)  Energy = -4014.04653682487242
 Total Coulomb        Energy = 2706.34880977710100
   11   -4921.6888566989      3.37e-07  Convergence criterion met
 ---------------------------------------
 SCF time:   CPU 51.91s  wall 4.00s 
<S^2> =         -0.000000000
 Alpha HF Exchange    Energy = -18.89932400001095
 Beta HF Exchange     Energy = -18.89932400001095
 DFT Correlation      Energy =  -5.16585252643184
 DFT Exchange         Energy = -150.47722452625243
 One-Electron (alpha) Energy = -4014.04653682487242
 One-Electron (beta)  Energy = -4014.04653682487242
 Total Coulomb        Energy = 2706.34880977710100
 Nuclear repulsion Energy = 593.49713222647995
 SCF   energy in the final basis set =    -4921.6888566989
 Total energy in the final basis set =    -4921.6888566989
 
 --------------------------------------------------------------
 
                    Orbital Energies (a.u.)
 --------------------------------------------------------------
 
 Alpha MOs
 -- Occupied --
*******-453.880 -58.122 -58.075 -52.180 -52.178 -52.177 -52.132
-52.132 -52.129 -10.290 -10.219 -10.187  -7.856  -7.808  -5.801
 -5.796  -5.789  -5.753  -5.750  -5.741  -2.134  -2.133  -2.127
 -2.123  -2.123  -2.087  -2.086  -2.079  -2.076  -2.075  -0.830
 -0.752  -0.697  -0.652  -0.527  -0.470  -0.449  -0.423  -0.418
 -0.382  -0.370  -0.365  -0.338  -0.305  -0.241  -0.214
 -- Virtual --
 -0.085  -0.024   0.039   0.071   0.086   0.094   0.140   0.150
  0.162   0.178   0.180   0.192   0.220   0.235   0.269   0.276
  0.292   0.319   0.338   0.353   0.445   0.488   0.504   0.515
  0.527   0.559   0.574   0.581   0.605   0.616   0.632   0.650
  0.677   0.693   0.769   0.814   0.829   0.850   0.858   0.878
  0.904   0.918   0.950   0.974   0.978   1.032   1.055   1.061
  1.201   1.328   1.448   1.526   1.587   1.601   1.653   1.681
  1.691   1.759   1.780   1.834   1.879   1.899   2.032   2.042
  2.058   2.067   2.099   2.104   2.154   2.196   2.238   2.295
  2.320   2.378   2.431   2.565   2.579   2.583   2.601   2.661
  2.673   2.737   2.812   2.869   2.897   3.190   3.276   3.369
  3.449   3.515   4.003   4.057   4.243   4.257   4.259   4.268
  4.331   4.349   4.353   4.383   4.436   4.483   4.497   4.604
  5.430   5.471  89.709  89.723
 
 Beta MOs
 -- Occupied --
*******-453.880 -58.122 -58.075 -52.180 -52.178 -52.177 -52.132
-52.132 -52.129 -10.290 -10.219 -10.187  -7.856  -7.808  -5.801
 -5.796  -5.789  -5.753  -5.750  -5.741  -2.134  -2.133  -2.127
 -2.123  -2.123  -2.087  -2.086  -2.079  -2.076  -2.075  -0.830
 -0.752  -0.697  -0.652  -0.527  -0.470  -0.449  -0.423  -0.418
 -0.382  -0.370  -0.365  -0.338  -0.305  -0.241  -0.214
 -- Virtual --
 -0.085  -0.024   0.039   0.071   0.086   0.094   0.140   0.150
  0.162   0.178   0.180   0.192   0.220   0.235   0.269   0.276
  0.292   0.319   0.338   0.353   0.445   0.488   0.504   0.515
  0.527   0.559   0.574   0.581   0.605   0.616   0.632   0.650
  0.677   0.693   0.769   0.814   0.829   0.850   0.858   0.878
  0.904   0.918   0.950   0.974   0.978   1.032   1.055   1.061
  1.201   1.328   1.448   1.526   1.587   1.601   1.653   1.681
  1.691   1.759   1.780   1.834   1.879   1.899   2.032   2.042
  2.058   2.067   2.099   2.104   2.154   2.196   2.238   2.295
  2.320   2.378   2.431   2.565   2.579   2.583   2.601   2.661
  2.673   2.737   2.812   2.869   2.897   3.190   3.276   3.369
  3.449   3.515   4.003   4.057   4.243   4.257   4.259   4.268
  4.331   4.349   4.353   4.383   4.436   4.483   4.497   4.604
  5.430   5.471  89.709  89.723
 --------------------------------------------------------------
 
          Ground-State Mulliken Net Atomic Charges

     Atom                 Charge (a.u.)    Spin (a.u.)
  --------------------------------------------------------
      1 C                    -0.033297       0.000000
      2 H                     0.091748       0.000000
      3 C                    -0.224981      -0.000000
      4 H                     0.151245       0.000000
      5 H                     0.130495       0.000000
      6 C                    -0.315330       0.000000
      7 H                     0.104570       0.000000
      8 H                     0.126214      -0.000000
      9 H                     0.140936       0.000000
     10 Se                    0.018319       0.000000
     11 H                    -0.004641       0.000000
     12 Se                   -0.190075      -0.000000
     13 H                     0.004796      -0.000000
  --------------------------------------------------------
  Sum of atomic charges =    -0.000000
  Sum of spin   charges =     0.000000

 -----------------------------------------------------------------
                    Cartesian Multipole Moments
 -----------------------------------------------------------------
    Charge (ESU x 10^10)
                -0.0000
    Dipole Moment (Debye)
         X      -1.3242      Y       0.8837      Z       1.1669
       Tot       1.9739
    Quadrupole Moments (Debye-Ang)
        XX     -59.8569     XY       0.2462     YY     -55.5300
        XZ       4.0165     YZ       2.6258     ZZ     -58.9067
    Octopole Moments (Debye-Ang^2)
       XXX     -62.6049    XXY     -58.0190    XYY     -16.4662
       YYY    -148.8008    XXZ      62.2184    XYZ      -1.2474
       YYZ      65.1075    XZZ     -26.9834    YZZ     -57.4578
       ZZZ     184.2892
    Hexadecapole Moments (Debye-Ang^3)
      XXXX    -808.9401   XXXY    -109.9209   XXYY    -240.5181
      XYYY    -102.2878   YYYY    -587.0329   XXXZ      42.2777
      XXYZ      42.1456   XYYZ      12.6530   YYYZ      97.0985
      XXZZ    -270.6935   XYZZ     -31.9042   YYZZ    -254.7869
      XZZZ      58.7923   YZZZ     104.7780   ZZZZ    -881.9158
 -----------------------------------------------------------------
 Calculating analytic gradient of the SCF energy
 Gradient of SCF Energy
            1           2           3           4           5           6
    1   0.0006820  -0.0004451   0.0005633   0.0002021   0.0000567   0.0000589
    2   0.0003768  -0.0001506   0.0007471  -0.0001581  -0.0003225   0.0003057
    3   0.0005792  -0.0000213  -0.0012639  -0.0006784   0.0010766   0.0012797
            7           8           9          10          11          12
    1   0.0001933   0.0007477  -0.0001810  -0.0019523   0.0204520   0.0001506
    2  -0.0002062   0.0002577  -0.0001985  -0.0007587  -0.0047322  -0.0001169
    3   0.0001399   0.0006283  -0.0002262  -0.0009096   0.0062181  -0.0003958
           13
    1  -0.0205282
    2   0.0049565
    3  -0.0064266
 Max gradient component =       2.053E-02
 RMS gradient           =       5.014E-03
 Gradient time:  CPU 19.01 s  wall 1.61 s
 Geometry Optimization Parameters
   NAtoms,    NIC,     NZ,  NCons,   NDum,   NFix, NCnnct, MaxDiis
       13     136       0       1       0       0       0       0

 Cartesian Hessian Update
 Hessian Updated using BFGS Update


** CONSTRAINED OPTIMIZATION IN DELOCALIZED INTERNAL COORDINATES **
   Searching for a Minimum

   Optimization Cycle:   3

                       Coordinates (Angstroms)
     ATOM                X               Y               Z
      1  C         0.3067784063    1.0915167278   -1.0703382732
      2  H        -1.1908577406   -0.1628521205   -2.6462524302
      3  C         0.3961520789    2.0530676335    0.0997541173
      4  H         0.0765621628    3.0312095179   -0.2906747394
      5  H        -0.3589109000    1.7739955069    0.8491595492
      6  C         1.7623949135    2.1953809648    0.7761239121
      7  H         1.6962014404    2.9316575876    1.5831053168
      8  H         2.0989951187    1.2478283288    1.2062071820
      9  H         2.5207496778    2.5241771600    0.0628222247
     10  Se       -1.5219292586    0.6142291253   -1.4425636075
     11  H         0.0383744810   -1.7672981766    1.5076534386
     12  Se        1.6906977077    0.5088643175   -2.0382485483
     13  H        -0.6830000879   -1.5928695731    1.2767538579
   Point Group: c1    Number of degrees of freedom:    33


   Energy is  -4921.688856699

              Constraints and their Current Values
                                        Value     Constraint
   Distance(Angs):       10  11             4.100000     4.100000
 Hessian Updated using BFGS Update

 32 Hessian modes will be used to form the next step
  Hessian Eigenvalues:
     0.034305    0.092615    0.122394    0.152988    0.165108    0.184554
     0.192058    0.207435    0.226168    0.234178    0.243368    0.262410
     0.276034    0.283907    0.300110    0.316818    0.393253    0.409059
     0.422311    0.431058    0.442836    0.518532    0.617572    0.619160
     0.911031    0.923872    0.941991    0.964718    1.106658    1.141678
     1.165409    1.175680

 Minimum Search - Taking Simple RFO Step
 Searching for Lamda that Minimizes Along All modes
 Value Taken    Lamda =  -0.00172242
 Step Taken.  Stepsize is  0.108648

                             Maximum     Tolerance    Cnvgd?
         Gradient           0.015092      0.000300      NO
         Displacement       0.083183      0.001200      NO
         Energy change     -0.000369      0.000001      NO


 New Cartesian Coordinates Obtained by Inverse Iteration

 Displacement from previous Coordinates is:  0.097515
 ----------------------------------------------------------------
             Standard Nuclear Orientation (Angstroms)
    I     Atom           X                Y                Z
 ----------------------------------------------------------------
    1      C       0.3077663593     1.0950877647    -1.0685899066
    2      H      -1.1728069270    -0.1522065545    -2.6470721071
    3      C       0.3913267004     2.0534786047     0.1020601313
    4      H       0.0691439672     3.0329995420    -0.2825355283
    5      H      -0.3619042364     1.7741149059     0.8512116343
    6      C       1.7601592205     2.1925306807     0.7667676929
    7      H       1.6999215249     2.9281158953     1.5749133576
    8      H       2.0917473052     1.2417552177     1.1929742333
    9      H       2.5168415177     2.5210564843     0.0513626988
   10      Se     -1.5128140333     0.6205314073    -1.4432276836
   11      H       0.0170224324    -1.7710109777     1.5148335189
   12      Se      1.6942979262     0.5172354998    -2.0340380689
   13      H      -0.6684937570    -1.6047814701     1.2948420274
 ----------------------------------------------------------------
 Nuclear Repulsion Energy =   594.8259525589 hartrees
 There are       47 alpha and       47 beta electrons

                       Distance Matrix (Angstroms)
             C (  1)   H (  2)   C (  3)   H (  4)   H (  5)   C (  6)
   H (  2)  2.497888
   C (  3)  1.515228  3.856072
   H (  4)  2.104834  4.156803  1.100535
   H (  5)  2.143636  4.075079  1.098467  1.748135
   C (  6)  2.585027  5.074878  1.528029  2.160314  2.164568
   H (  7)  3.505167  5.963733  2.155622  2.473975  2.471151  1.094447
   H (  8)  2.884228  5.229379  2.177250  3.078410  2.533893  1.093424
   H (  9)  2.857918  5.295412  2.176927  2.522855  3.079750  1.091926
   Se( 10)  1.918351  1.470364  2.840247  3.109630  2.814214  4.250602
   H ( 11)  3.869513  4.621437  4.094234  5.129500  3.626554  4.394063
   Se( 12)  1.785630  3.007367  2.936102  3.469576  3.759306  3.264271
   H ( 13)  3.718627  4.231193  3.991092  4.953912  3.421658  4.538369
             H (  7)   H (  8)   H (  9)   Se( 10)   H ( 11)   Se( 12)
   H (  8)  1.772912
   H (  9)  1.776024  1.766520
   Se( 10)  4.975519  4.508696  4.699353
   H ( 11)  4.991748  3.672171  5.178097  4.100000
   Se( 12)  4.340150  3.331141  3.006788  3.262713  4.543546
   H ( 13)  5.122010  3.966368  5.358651  3.627936  0.738892  4.600781

 
 Applying Cartesian multipole field
    Component          Value
    ---------          -----
     (2,0,0)        1.00000E-11
     (0,2,0)        2.00000E-11
     (0,0,2)       -3.00000E-11
 Nucleus-field energy     =    -0.0000000095 hartrees
 Requested basis set is 6-31G(d,p)
 There are 52 shells and 155 basis functions
 A cutoff of  1.0D-14 yielded   1201 shell pairs
 There are     10834 function pairs
 Smallest overlap matrix eigenvalue = 6.75E-04
 Guess from superposition of atomic densities
 Warning:  Energy on first SCF cycle will be non-variational
 SAD guess density has 93.936381 electrons

 -----------------------------------------------------------------------
  General SCF calculation program by
  Eric Jon Sundstrom, Paul Horn, Yuezhi Mao, Dmitri Zuev, Alec White,
  David Stuck, Shaama M.S., Shane Yost, Joonho Lee, David Small,
  Daniel Levine, Susi Lehtola, Hugh Burton, Evgeny Epifanovsky
 -----------------------------------------------------------------------
 Exchange:     0.2000 Hartree-Fock + 0.0800 Slater + 0.7200 B88
 Correlation:  0.1900 VWN1RPA + 0.8100 LYP
 Using SG-1 standard quadrature grid
 using 12 threads for integral computing
 -------------------------------------------------------
 OpenMP Integral computing Module                
 Release: version 1.0, May 2013, Q-Chem Inc. Pittsburgh 
 -------------------------------------------------------
 -------------------------------------------------------
 OpenMP BLAS3 based DFT computing Module                
 Release: version 1.0, May 2013, Q-Chem Inc. Pittsburgh 
 -------------------------------------------------------
 A unrestricted SCF calculation will be
 performed using DIIS
 SCF converges when DIIS error is below 1.0e-06
 Alpha HF Exchange    Energy = -18.86028432210166
 Beta HF Exchange     Energy = -18.86028432210166
 DFT Correlation      Energy =  -5.13295275444091
 DFT Exchange         Energy = -149.88183273037259
 One-Electron (alpha) Energy = -4012.36427693683800
 One-Electron (beta)  Energy = -4012.36427693683800
 Total Coulomb        Energy = 2694.79886198858776
 ---------------------------------------
  Cycle       Energy         DIIS error
 ---------------------------------------
    1   -4927.8390934647      1.51e-01  
 Alpha HF Exchange    Energy = -18.96584205812170
 Beta HF Exchange     Energy = -18.96584205812169
 DFT Correlation      Energy =  -5.18574485233751
 DFT Exchange         Energy = -151.01305591226009
 One-Electron (alpha) Energy = -4022.19167199319190
 One-Electron (beta)  Energy = -4022.19167199319190
 Total Coulomb        Energy = 2722.13187714275909
    2   -4921.5559991751      9.32e-03  
 Alpha HF Exchange    Energy = -18.84150438483876
 Beta HF Exchange     Energy = -18.84150438483878
 DFT Correlation      Energy =  -5.15093427779436
 DFT Exchange         Energy = -150.02446971848758
 One-Electron (alpha) Energy = -4008.94279522156012
 One-Electron (beta)  Energy = -4008.94279522156194
 Total Coulomb        Energy = 2694.39233665953043
    3   -4921.5257140002      4.02e-03  
 Alpha HF Exchange    Energy = -18.93894421008596
 Beta HF Exchange     Energy = -18.93894421008597
 DFT Correlation      Energy =  -5.17377770279676
 DFT Exchange         Energy = -150.76941039265216
 One-Electron (alpha) Energy = -4018.60601778114324
 One-Electron (beta)  Energy = -4018.60601778114415
 Total Coulomb        Energy = 2714.68620902156499
    4   -4921.5209505070      3.78e-03  
 Alpha HF Exchange    Energy = -18.91335169542792
 Beta HF Exchange     Energy = -18.91335169542793
 DFT Correlation      Energy =  -5.17181074736573
 DFT Exchange         Energy = -150.59557769920175
 One-Electron (alpha) Energy = -4016.71939196053381
 One-Electron (beta)  Energy = -4016.71939196053609
 Total Coulomb        Energy = 2710.55019536144391
    5   -4921.6567278477      1.57e-03  
 Alpha HF Exchange    Energy = -18.90204755143883
 Beta HF Exchange     Energy = -18.90204755143887
 DFT Correlation      Energy =  -5.16675413072279
 DFT Exchange         Energy = -150.49595910058764
 One-Electron (alpha) Energy = -4015.53545217837518
 One-Electron (beta)  Energy = -4015.53545217837882
 Total Coulomb        Energy = 2708.02276920721579
    6   -4921.6889909343      2.29e-04  
 Alpha HF Exchange    Energy = -18.90079134301368
 Beta HF Exchange     Energy = -18.90079134301369
 DFT Correlation      Energy =  -5.16678950152524
 DFT Exchange         Energy = -150.48813159641327
 One-Electron (alpha) Energy = -4015.29688570334201
 One-Electron (beta)  Energy = -4015.29688570334383
 Total Coulomb        Energy = 2707.53482680489924
    7   -4921.6894958364      1.19e-04  
 Alpha HF Exchange    Energy = -18.90115403357711
 Beta HF Exchange     Energy = -18.90115403357711
 DFT Correlation      Energy =  -5.16667002018106
 DFT Exchange         Energy = -150.49016510722151
 One-Electron (alpha) Energy = -4015.33472236926809
 One-Electron (beta)  Energy = -4015.33472236926900
 Total Coulomb        Energy = 2707.61300273791494
    8   -4921.6896326458      2.36e-05  
 Alpha HF Exchange    Energy = -18.90128290349083
 Beta HF Exchange     Energy = -18.90128290349079
 DFT Correlation      Energy =  -5.16671794709758
 DFT Exchange         Energy = -150.49117436970141
 One-Electron (alpha) Energy = -4015.36603394630674
 One-Electron (beta)  Energy = -4015.36603394630265
 Total Coulomb        Energy = 2707.67693092827449
    9   -4921.6896425387      8.31e-06  
 Alpha HF Exchange    Energy = -18.90127668401362
 Beta HF Exchange     Energy = -18.90127668401363
 DFT Correlation      Energy =  -5.16673045283318
 DFT Exchange         Energy = -150.49112475107208
 One-Electron (alpha) Energy = -4015.36330794253445
 One-Electron (beta)  Energy = -4015.36330794253490
 Total Coulomb        Energy = 2707.67142850555274
   10   -4921.6896434021      1.35e-06  
 Alpha HF Exchange    Energy = -18.90128056495679
 Beta HF Exchange     Energy = -18.90128056495679
 DFT Correlation      Energy =  -5.16673034080753
 DFT Exchange         Energy = -150.49115277367827
 One-Electron (alpha) Energy = -4015.36356025372470
 One-Electron (beta)  Energy = -4015.36356025372288
 Total Coulomb        Energy = 2707.67196877747256
   11   -4921.6896434250      3.29e-07  Convergence criterion met
 ---------------------------------------
 SCF time:   CPU 52.04s  wall 5.00s 
<S^2> =         -0.000000000
 Alpha HF Exchange    Energy = -18.90128056495679
 Beta HF Exchange     Energy = -18.90128056495679
 DFT Correlation      Energy =  -5.16673034080753
 DFT Exchange         Energy = -150.49115277367827
 One-Electron (alpha) Energy = -4015.36356025372470
 One-Electron (beta)  Energy = -4015.36356025372288
 Total Coulomb        Energy = 2707.67196877747256
 Nuclear repulsion Energy = 594.82595254938997
 SCF   energy in the final basis set =    -4921.6896434250
 Total energy in the final basis set =    -4921.6896434250
 
 --------------------------------------------------------------
 
                    Orbital Energies (a.u.)
 --------------------------------------------------------------
 
 Alpha MOs
 -- Occupied --
*******-453.879 -58.122 -58.075 -52.180 -52.178 -52.177 -52.132
-52.131 -52.129 -10.289 -10.219 -10.186  -7.856  -7.808  -5.801
 -5.796  -5.790  -5.753  -5.749  -5.740  -2.134  -2.134  -2.128
 -2.124  -2.123  -2.087  -2.086  -2.079  -2.076  -2.074  -0.831
 -0.753  -0.697  -0.652  -0.527  -0.470  -0.449  -0.431  -0.418
 -0.381  -0.370  -0.364  -0.339  -0.305  -0.241  -0.214
 -- Virtual --
 -0.085  -0.024   0.041   0.071   0.093   0.096   0.140   0.150
  0.162   0.178   0.181   0.192   0.221   0.236   0.269   0.276
  0.292   0.319   0.338   0.354   0.445   0.487   0.504   0.515
  0.527   0.559   0.574   0.582   0.606   0.615   0.622   0.649
  0.678   0.694   0.772   0.815   0.831   0.849   0.859   0.880
  0.905   0.920   0.951   0.975   0.980   1.044   1.058   1.076
  1.202   1.329   1.448   1.528   1.589   1.602   1.653   1.676
  1.686   1.761   1.781   1.836   1.879   1.902   2.032   2.043
  2.058   2.067   2.099   2.105   2.155   2.201   2.239   2.295
  2.380   2.393   2.433   2.566   2.601   2.622   2.625   2.663
  2.675   2.739   2.814   2.870   2.898   3.192   3.278   3.370
  3.450   3.516   4.058   4.176   4.243   4.258   4.260   4.269
  4.331   4.350   4.354   4.385   4.437   4.482   4.497   4.606
  5.430   5.472  89.708  89.726
 
 Beta MOs
 -- Occupied --
*******-453.879 -58.122 -58.075 -52.180 -52.178 -52.177 -52.132
-52.131 -52.129 -10.289 -10.219 -10.186  -7.856  -7.808  -5.801
 -5.796  -5.790  -5.753  -5.749  -5.740  -2.134  -2.134  -2.128
 -2.124  -2.123  -2.087  -2.086  -2.079  -2.076  -2.074  -0.831
 -0.753  -0.697  -0.652  -0.527  -0.470  -0.449  -0.431  -0.418
 -0.381  -0.370  -0.364  -0.339  -0.305  -0.241  -0.214
 -- Virtual --
 -0.085  -0.024   0.041   0.071   0.093   0.096   0.140   0.150
  0.162   0.178   0.181   0.192   0.221   0.236   0.269   0.276
  0.292   0.319   0.338   0.354   0.445   0.487   0.504   0.515
  0.527   0.559   0.574   0.582   0.606   0.615   0.622   0.649
  0.678   0.694   0.772   0.815   0.831   0.849   0.859   0.880
  0.905   0.920   0.951   0.975   0.980   1.044   1.058   1.076
  1.202   1.329   1.448   1.528   1.589   1.602   1.653   1.676
  1.686   1.761   1.781   1.836   1.879   1.902   2.032   2.043
  2.058   2.067   2.099   2.105   2.155   2.201   2.239   2.295
  2.380   2.393   2.433   2.566   2.601   2.622   2.625   2.663
  2.675   2.739   2.814   2.870   2.898   3.192   3.278   3.370
  3.450   3.516   4.058   4.176   4.243   4.258   4.260   4.269
  4.331   4.350   4.354   4.385   4.437   4.482   4.497   4.606
  5.430   5.472  89.708  89.726
 --------------------------------------------------------------
 
          Ground-State Mulliken Net Atomic Charges

     Atom                 Charge (a.u.)    Spin (a.u.)
  --------------------------------------------------------
      1 C                    -0.032098       0.000000
      2 H                     0.091942       0.000000
      3 C                    -0.225739      -0.000000
      4 H                     0.151113       0.000000
      5 H                     0.130756       0.000000
      6 C                    -0.315296       0.000000
      7 H                     0.103729      -0.000000
      8 H                     0.126129       0.000000
      9 H                     0.141382       0.000000
     10 Se                    0.019602      -0.000000
     11 H                    -0.004290       0.000000
     12 Se                   -0.191667      -0.000000
     13 H                     0.004439      -0.000000
  --------------------------------------------------------
  Sum of atomic charges =    -0.000000
  Sum of spin   charges =    -0.000000

 -----------------------------------------------------------------
                    Cartesian Multipole Moments
 -----------------------------------------------------------------
    Charge (ESU x 10^10)
                 0.0000
    Dipole Moment (Debye)
         X      -1.3535      Y       0.8789      Z       1.1637
       Tot       1.9896
    Quadrupole Moments (Debye-Ang)
        XX     -59.8628     XY       0.1883     YY     -55.4929
        XZ       3.9948     YZ       2.5986     ZZ     -58.8774
    Octopole Moments (Debye-Ang^2)
       XXX     -63.3202    XXY     -58.2578    XYY     -16.8115
       YYY    -149.8193    XXZ      62.1888    XYZ      -1.2038
       YYZ      65.1049    XZZ     -27.3061    YZZ     -57.7850
       ZZZ     184.2833
    Hexadecapole Moments (Debye-Ang^3)
      XXXX    -806.4632   XXXY    -110.3993   XXYY    -240.3043
      XYYY    -102.6641   YYYY    -587.9357   XXXZ      43.3970
      XXYZ      42.4526   XYYZ      12.9530   YYYZ      98.7558
      XXZZ    -270.1414   XYZZ     -32.2194   YYZZ    -254.6862
      XZZZ      60.0292   YZZZ     106.2093   ZZZZ    -879.2933
 -----------------------------------------------------------------
 Calculating analytic gradient of the SCF energy
 Gradient of SCF Energy
            1           2           3           4           5           6
    1   0.0007044   0.0000364  -0.0004408   0.0001610   0.0002600  -0.0002939
    2  -0.0003523   0.0000982  -0.0003610  -0.0001234   0.0003089  -0.0003951
    3   0.0004166   0.0002438  -0.0000698  -0.0002011   0.0003289  -0.0007219
            7           8           9          10          11          12
    1  -0.0000936   0.0000664   0.0001426  -0.0000120  -0.0027634  -0.0004651
    2  -0.0000689   0.0000919   0.0000734   0.0002074   0.0008709   0.0003099
    3  -0.0001443   0.0003829  -0.0001414  -0.0000776  -0.0011984   0.0001767
           13
    1   0.0026982
    2  -0.0006598
    3   0.0010055
 Max gradient component =       2.763E-03
 RMS gradient           =       7.425E-04
 Gradient time:  CPU 19.00 s  wall 1.61 s
 Geometry Optimization Parameters
   NAtoms,    NIC,     NZ,  NCons,   NDum,   NFix, NCnnct, MaxDiis
       13     136       0       1       0       0       0       0

 Cartesian Hessian Update
 Hessian Updated using BFGS Update


** CONSTRAINED OPTIMIZATION IN DELOCALIZED INTERNAL COORDINATES **
   Searching for a Minimum

   Optimization Cycle:   4

                       Coordinates (Angstroms)
     ATOM                X               Y               Z
      1  C         0.3077663593    1.0950877647   -1.0685899066
      2  H        -1.1728069270   -0.1522065545   -2.6470721071
      3  C         0.3913267004    2.0534786047    0.1020601313
      4  H         0.0691439672    3.0329995420   -0.2825355283
      5  H        -0.3619042364    1.7741149059    0.8512116343
      6  C         1.7601592205    2.1925306807    0.7667676929
      7  H         1.6999215249    2.9281158953    1.5749133576
      8  H         2.0917473052    1.2417552177    1.1929742333
      9  H         2.5168415177    2.5210564843    0.0513626988
     10  Se       -1.5128140333    0.6205314073   -1.4432276836
     11  H         0.0170224324   -1.7710109777    1.5148335189
     12  Se        1.6942979262    0.5172354998   -2.0340380689
     13  H        -0.6684937570   -1.6047814701    1.2948420274
   Point Group: c1    Number of degrees of freedom:    33


   Energy is  -4921.689643425

              Constraints and their Current Values
                                        Value     Constraint
   Distance(Angs):       10  11             4.100000     4.100000
 Hessian Updated using BFGS Update

 32 Hessian modes will be used to form the next step
  Hessian Eigenvalues:
     0.034444    0.092693    0.125784    0.152949    0.165078    0.191654
     0.198449    0.207282    0.226299    0.237151    0.243870    0.262597
     0.276537    0.283896    0.300173    0.316676    0.393475    0.413502
     0.422270    0.432072    0.443075    0.518045    0.618973    0.619368
     0.911550    0.924089    0.941976    0.964790    1.106663    1.141684
     1.165419    1.175704

 Minimum Search - Taking Simple RFO Step
 Searching for Lamda that Minimizes Along All modes
 Value Taken    Lamda =  -0.00002955
 Step Taken.  Stepsize is  0.012079

                             Maximum     Tolerance    Cnvgd?
         Gradient           0.002060      0.000300      NO
         Displacement       0.009268      0.001200      NO
         Energy change     -0.000787      0.000001      NO


 New Cartesian Coordinates Obtained by Inverse Iteration

[...]
   H (  8)  2.874248  5.205628  2.175533  3.078275  2.536037  1.093319
   H (  9)  2.862695  5.308027  2.176724  2.521324  3.080197  1.091633
   Se( 10)  1.916840  1.470565  2.840008  3.132630  2.795264  4.243677
   H ( 11)  3.938579  4.645458  4.141734  5.174696  3.651294  4.431818
   Se( 12)  1.786786  3.013218  2.938429  3.469161  3.761230  3.268607
   H ( 13)  3.780189  4.249060  4.032274  4.993004  3.441655  4.570057
             H (  7)   H (  8)   H (  9)   Se( 10)   H ( 11)   Se( 12)
   H (  8)  1.773936
   H (  9)  1.775967  1.766239
   Se( 10)  4.972148  4.479365  4.703993
   H ( 11)  5.003349  3.704293  5.232943  4.100000
   Se( 12)  4.345599  3.327002  3.014007  3.263347  4.646487
   H ( 13)  5.131125  3.992186  5.405320  3.622734  0.742992  4.690864

 
 Applying Cartesian multipole field
    Component          Value
    ---------          -----
     (2,0,0)        1.00000E-11
     (0,2,0)        2.00000E-11
     (0,0,2)       -3.00000E-11
 Nucleus-field energy     =    -0.0000000098 hartrees
 Requested basis set is 6-31G(d,p)
 There are 52 shells and 155 basis functions
 A cutoff of  1.0D-14 yielded   1201 shell pairs
 There are     10856 function pairs
 Smallest overlap matrix eigenvalue = 6.75E-04
 Guess from superposition of atomic densities
 Warning:  Energy on first SCF cycle will be non-variational
 SAD guess density has 93.936381 electrons

 -----------------------------------------------------------------------
  General SCF calculation program by
  Eric Jon Sundstrom, Paul Horn, Yuezhi Mao, Dmitri Zuev, Alec White,
  David Stuck, Shaama M.S., Shane Yost, Joonho Lee, David Small,
  Daniel Levine, Susi Lehtola, Hugh Burton, Evgeny Epifanovsky
 -----------------------------------------------------------------------
 Exchange:     0.2000 Hartree-Fock + 0.0800 Slater + 0.7200 B88
 Correlation:  0.1900 VWN1RPA + 0.8100 LYP
 Using SG-1 standard quadrature grid
 using 12 threads for integral computing
 -------------------------------------------------------
 OpenMP Integral computing Module                
 Release: version 1.0, May 2013, Q-Chem Inc. Pittsburgh 
 -------------------------------------------------------
 -------------------------------------------------------
 OpenMP BLAS3 based DFT computing Module                
 Release: version 1.0, May 2013, Q-Chem Inc. Pittsburgh 
 -------------------------------------------------------
 A unrestricted SCF calculation will be
 performed using DIIS
 SCF converges when DIIS error is below 1.0e-06
 Alpha HF Exchange    Energy = -18.85985763079520
 Beta HF Exchange     Energy = -18.85985763079520
 DFT Correlation      Energy =  -5.13280128137712
 DFT Exchange         Energy = -149.88101131075720
 One-Electron (alpha) Energy = -4012.04753039153866
 One-Electron (beta)  Energy = -4012.04753039153866
 Total Coulomb        Energy = 2694.48668998872199
 ---------------------------------------
  Cycle       Energy         DIIS error
 ---------------------------------------
    1   -4927.8359081627      1.51e-01  
 Alpha HF Exchange    Energy = -18.96552002988151
 Beta HF Exchange     Energy = -18.96552002988154
 DFT Correlation      Energy =  -5.18556542201616
 DFT Exchange         Energy = -151.01074311241490
 One-Electron (alpha) Energy = -4021.86432026546618
 One-Electron (beta)  Energy = -4021.86432026546890
 Total Coulomb        Energy = 2721.79392516793632
    2   -4921.5560734718      9.32e-03  
 Alpha HF Exchange    Energy = -18.84133644494512
 Beta HF Exchange     Energy = -18.84133644494512
 DFT Correlation      Energy =  -5.15081834908532
 DFT Exchange         Energy = -150.02345928165690
 One-Electron (alpha) Energy = -4008.63211953154041
 One-Electron (beta)  Energy = -4008.63211953153996
 Total Coulomb        Energy = 2694.09052314859719
    3   -4921.5246759497      4.02e-03  
 Alpha HF Exchange    Energy = -18.93861274262185
 Beta HF Exchange     Energy = -18.93861274262185
 DFT Correlation      Energy =  -5.17356607916147
 DFT Exchange         Energy = -150.76682841753231
 One-Electron (alpha) Energy = -4018.26948309381896
 One-Electron (beta)  Energy = -4018.26948309382033
 Total Coulomb        Energy = 2714.33183460585087
    4   -4921.5187610783      3.80e-03  
 Alpha HF Exchange    Energy = -18.91317093003255
 Beta HF Exchange     Energy = -18.91317093003255
 DFT Correlation      Energy =  -5.17167851763281
 DFT Exchange         Energy = -150.59444508383788
 One-Electron (alpha) Energy = -4016.40730496753986
 One-Electron (beta)  Energy = -4016.40730496754031
 Total Coulomb        Energy = 2710.24441940942916
    5   -4921.6566655018      1.58e-03  
 Alpha HF Exchange    Energy = -18.90177098063719
 Beta HF Exchange     Energy = -18.90177098063721
 DFT Correlation      Energy =  -5.16658833665100
 DFT Exchange         Energy = -150.49402275800642
 One-Electron (alpha) Energy = -4015.21306009663704
 One-Electron (beta)  Energy = -4015.21306009663931
 Total Coulomb        Energy = 2707.69524793907021
    6   -4921.6890348248      2.31e-04  
 Alpha HF Exchange    Energy = -18.90051835208348
 Beta HF Exchange     Energy = -18.90051835208348
 DFT Correlation      Energy =  -5.16662822096528
 DFT Exchange         Energy = -150.48624698345037
 One-Electron (alpha) Energy = -4014.97405502376705
 One-Electron (beta)  Energy = -4014.97405502376796
 Total Coulomb        Energy = 2707.20648418192332
    7   -4921.6895472888      1.20e-04  
 Alpha HF Exchange    Energy = -18.90089329871885
 Beta HF Exchange     Energy = -18.90089329871882
 DFT Correlation      Energy =  -5.16651062305388
 DFT Exchange         Energy = -150.48836880360079
 One-Electron (alpha) Energy = -4015.01361313676398
 One-Electron (beta)  Energy = -4015.01361313676125
 Total Coulomb        Energy = 2707.28821499795004
    8   -4921.6896868143      2.39e-05  
 Alpha HF Exchange    Energy = -18.90102158145956
 Beta HF Exchange     Energy = -18.90102158145952
 DFT Correlation      Energy =  -5.16655859507867
 DFT Exchange         Energy = -150.48937312146376
 One-Electron (alpha) Energy = -4015.04491303137320
 One-Electron (beta)  Energy = -4015.04491303136820
 Total Coulomb        Energy = 2707.35211352812939
    9   -4921.6896969287      8.37e-06  
 Alpha HF Exchange    Energy = -18.90101528110040
 Beta HF Exchange     Energy = -18.90101528110041
 DFT Correlation      Energy =  -5.16657119404171
 DFT Exchange         Energy = -150.48932297847580
 One-Electron (alpha) Energy = -4015.04216029179770
 One-Electron (beta)  Energy = -4015.04216029179861
 Total Coulomb        Energy = 2707.34655702781993
   10   -4921.6896978051      1.38e-06  
 Alpha HF Exchange    Energy = -18.90101920293734
 Beta HF Exchange     Energy = -18.90101920293733
 DFT Correlation      Energy =  -5.16657106858932
 DFT Exchange         Energy = -150.48935129975223
 One-Electron (alpha) Energy = -4015.04242575103672
 One-Electron (beta)  Energy = -4015.04242575103672
 Total Coulomb        Energy = 2707.34712396190798
   11   -4921.6896978290      3.35e-07  Convergence criterion met
 ---------------------------------------
 SCF time:   CPU 51.48s  wall 5.00s 
<S^2> =         -0.000000000
 Alpha HF Exchange    Energy = -18.90101920293734
 Beta HF Exchange     Energy = -18.90101920293733
 DFT Correlation      Energy =  -5.16657106858932
 DFT Exchange         Energy = -150.48935129975223
 One-Electron (alpha) Energy = -4015.04242575103672
 One-Electron (beta)  Energy = -4015.04242575103672
 Total Coulomb        Energy = 2707.34712396190798
 Nuclear repulsion Energy = 594.50599048537958
 SCF   energy in the final basis set =    -4921.6896978290
 Total energy in the final basis set =    -4921.6896978290
 
 --------------------------------------------------------------
 
                    Orbital Energies (a.u.)
 --------------------------------------------------------------
 
 Alpha MOs
 -- Occupied --
*******-453.879 -58.123 -58.074 -52.180 -52.179 -52.177 -52.132
-52.131 -52.128 -10.289 -10.219 -10.186  -7.856  -7.808  -5.802
 -5.797  -5.790  -5.753  -5.749  -5.740  -2.135  -2.134  -2.128
 -2.124  -2.124  -2.087  -2.086  -2.079  -2.076  -2.074  -0.831
 -0.753  -0.697  -0.652  -0.527  -0.470  -0.449  -0.431  -0.418
 -0.381  -0.370  -0.364  -0.339  -0.306  -0.241  -0.214
 -- Virtual --
 -0.085  -0.023   0.041   0.071   0.092   0.096   0.140   0.150
  0.162   0.178   0.180   0.193   0.221   0.235   0.269   0.276
  0.292   0.319   0.338   0.354   0.445   0.487   0.504   0.515
  0.528   0.558   0.574   0.581   0.606   0.617   0.621   0.649
  0.678   0.693   0.771   0.813   0.830   0.850   0.859   0.880
  0.904   0.919   0.951   0.975   0.980   1.043   1.058   1.073
  1.202   1.329   1.449   1.527   1.588   1.602   1.654   1.676
  1.686   1.758   1.784   1.837   1.875   1.903   2.032   2.043
  2.058   2.066   2.099   2.104   2.156   2.200   2.239   2.295
  2.379   2.385   2.431   2.565   2.601   2.617   2.620   2.663
  2.674   2.738   2.814   2.870   2.897   3.192   3.277   3.370
  3.450   3.516   4.058   4.155   4.243   4.257   4.260   4.269
  4.331   4.350   4.354   4.385   4.436   4.482   4.496   4.605
  5.429   5.472  89.707  89.725
 
 Beta MOs
 -- Occupied --
*******-453.879 -58.123 -58.074 -52.180 -52.179 -52.177 -52.132
-52.131 -52.128 -10.289 -10.219 -10.186  -7.856  -7.808  -5.802
 -5.797  -5.790  -5.753  -5.749  -5.740  -2.135  -2.134  -2.128
 -2.124  -2.124  -2.087  -2.086  -2.079  -2.076  -2.074  -0.831
 -0.753  -0.697  -0.652  -0.527  -0.470  -0.449  -0.431  -0.418
 -0.381  -0.370  -0.364  -0.339  -0.306  -0.241  -0.214
 -- Virtual --
 -0.085  -0.023   0.041   0.071   0.092   0.096   0.140   0.150
  0.162   0.178   0.180   0.193   0.221   0.235   0.269   0.276
  0.292   0.319   0.338   0.354   0.445   0.487   0.504   0.515
  0.528   0.558   0.574   0.581   0.606   0.617   0.621   0.649
  0.678   0.693   0.771   0.813   0.830   0.850   0.859   0.880
  0.904   0.919   0.951   0.975   0.980   1.043   1.058   1.073
  1.202   1.329   1.449   1.527   1.588   1.602   1.654   1.676
  1.686   1.758   1.784   1.837   1.875   1.903   2.032   2.043
  2.058   2.066   2.099   2.104   2.156   2.200   2.239   2.295
  2.379   2.385   2.431   2.565   2.601   2.617   2.620   2.663
  2.674   2.738   2.814   2.870   2.897   3.192   3.277   3.370
  3.450   3.516   4.058   4.155   4.243   4.257   4.260   4.269
  4.331   4.350   4.354   4.385   4.436   4.482   4.496   4.605
  5.429   5.472  89.707  89.725
 --------------------------------------------------------------
 
          Ground-State Mulliken Net Atomic Charges

     Atom                 Charge (a.u.)    Spin (a.u.)
  --------------------------------------------------------
      1 C                    -0.032313       0.000000
      2 H                     0.091777      -0.000000
      3 C                    -0.225426      -0.000000
      4 H                     0.151038      -0.000000
      5 H                     0.129858      -0.000000
      6 C                    -0.315242       0.000000
      7 H                     0.103997      -0.000000
      8 H                     0.126081      -0.000000
      9 H                     0.141684      -0.000000
     10 Se                    0.020544       0.000000
     11 H                    -0.004647      -0.000000
     12 Se                   -0.192144      -0.000000
     13 H                     0.004791       0.000000
  --------------------------------------------------------
  Sum of atomic charges =    -0.000000
  Sum of spin   charges =     0.000000

 -----------------------------------------------------------------
                    Cartesian Multipole Moments
 -----------------------------------------------------------------
    Charge (ESU x 10^10)
                 0.0000
    Dipole Moment (Debye)
         X      -1.3679      Y       0.8295      Z       1.1937
       Tot       1.9960
    Quadrupole Moments (Debye-Ang)
        XX     -59.8848     XY       0.1466     YY     -55.5196
        XZ       4.0806     YZ       2.7167     ZZ     -59.0396
    Octopole Moments (Debye-Ang^2)
       XXX     -64.5512    XXY     -59.0480    XYY     -17.4096
       YYY    -151.2586    XXZ      62.9769    XYZ      -1.0484
       YYZ      65.6609    XZZ     -27.8276    YZZ     -58.5590
       ZZZ     186.2520
    Hexadecapole Moments (Debye-Ang^3)
      XXXX    -805.5502   XXXY    -118.1365   XXYY    -241.4934
      XYYY    -110.9939   YYYY    -593.2262   XXXZ      49.9983
      XXYZ      44.8106   XYYZ      16.0236   YYYZ     104.2118
      XXZZ    -272.9359   XYZZ     -35.1584   YYZZ    -257.9229
      XZZZ      66.9744   YZZZ     112.1941   ZZZZ    -894.4371
 -----------------------------------------------------------------
 Calculating analytic gradient of the SCF energy
 Gradient of SCF Energy
            1           2           3           4           5           6
    1  -0.0001633  -0.0001065  -0.0002193   0.0000712   0.0000609   0.0002421
    2  -0.0002067  -0.0000092   0.0001163   0.0000313  -0.0000451  -0.0000829
    3  -0.0001384   0.0000784   0.0001782   0.0000524  -0.0000818  -0.0002427
            7           8           9          10          11          12
    1   0.0001344  -0.0000997  -0.0000528   0.0002549   0.0000044  -0.0000323
    2   0.0000051  -0.0000024   0.0000013  -0.0001014   0.0002095   0.0000876
    3  -0.0000091   0.0001289  -0.0000479   0.0003027  -0.0003277  -0.0000234
           13
    1  -0.0000940
    2  -0.0000033
    3   0.0001305
 Max gradient component =       3.277E-04
 RMS gradient           =       1.385E-04
 Gradient time:  CPU 18.70 s  wall 1.58 s
 Geometry Optimization Parameters
   NAtoms,    NIC,     NZ,  NCons,   NDum,   NFix, NCnnct, MaxDiis
       13     136       0       1       0       0       0       0

 Cartesian Hessian Update
 Hessian Updated using BFGS Update


** CONSTRAINED OPTIMIZATION IN DELOCALIZED INTERNAL COORDINATES **
   Searching for a Minimum

   Optimization Cycle:  19

                       Coordinates (Angstroms)
     ATOM                X               Y               Z
      1  C         0.3139874904    1.1143604539   -1.0864096202
      2  H        -1.1652097513   -0.1658311812   -2.6436273657
      3  C         0.3947016441    2.0633732300    0.0942845780
      4  H         0.0718187329    3.0478560775   -0.2767804832
      5  H        -0.3607531452    1.7707957771    0.8359742858
      6  C         1.7631000745    2.1924889303    0.7644306807
      7  H         1.7024267683    2.9087820849    1.5898063014
      8  H         2.0951506484    1.2314852769    1.1663756614
      9  H         2.5185798102    2.5386044157    0.0565347722
     10  Se       -1.4988674163    0.5951735509   -1.4303239795
     11  H        -0.0094601442   -1.7924383691    1.5514499835
     12  Se        1.7011897073    0.5643940066   -2.0691656600
     13  H        -0.6944564190   -1.6201372535    1.3209528454
   Point Group: c1    Number of degrees of freedom:    33


   Energy is  -4921.689697829

              Constraints and their Current Values
                                        Value     Constraint
   Distance(Angs):       10  11             4.100000     4.100000
 Hessian Updated using BFGS Update

 32 Hessian modes will be used to form the next step
  Hessian Eigenvalues:
     0.001466    0.013736    0.034250    0.052913    0.107342    0.140961
     0.162592    0.181747    0.201953    0.213126    0.217509    0.246445
     0.253034    0.271283    0.283921    0.293961    0.331742    0.388016
     0.417369    0.426769    0.448107    0.467278    0.573493    0.610005
     0.705616    0.915059    0.921541    0.959971    1.105673    1.140652
     1.158246    1.171417

 Minimum Search - Taking Simple RFO Step
 Searching for Lamda that Minimizes Along All modes
 Value Taken    Lamda =   0.00000000
 Step Taken.  Stepsize is  0.008263

                             Maximum     Tolerance    Cnvgd?
         Gradient           0.000127      0.000300     YES
         Displacement       0.003835      0.001200      NO
         Energy change     -0.000001      0.000001     YES


                       Distance Matrix (Angstroms)
             C (  1)   H (  2)   C (  3)   H (  4)   H (  5)   C (  6)
   H (  2)  2.500368
   C (  3)  1.516964  3.859901
   H (  4)  2.110107  4.178515  1.100522
   H (  5)  2.140500  4.062672  1.098370  1.748206
   C (  6)  2.586097  5.074597  1.529144  2.162454  2.166494
   H (  7)  3.508539  5.966452  2.159038  2.482412  2.473861  1.094533
   H (  8)  2.874248  5.205628  2.175533  3.078275  2.536037  1.093319
   H (  9)  2.862695  5.308027  2.176724  2.521324  3.080197  1.091633
   Se( 10)  1.916840  1.470565  2.840008  3.132630  2.795264  4.243677
   H ( 11)  3.938579  4.645458  4.141734  5.174696  3.651294  4.431818
   Se( 12)  1.786786  3.013218  2.938429  3.469161  3.761230  3.268607
   H ( 13)  3.780189  4.249060  4.032274  4.993004  3.441655  4.570057
             H (  7)   H (  8)   H (  9)   Se( 10)   H ( 11)   Se( 12)
   H (  8)  1.773936
   H (  9)  1.775967  1.766239
   Se( 10)  4.972148  4.479365  4.703993
   H ( 11)  5.003349  3.704293  5.232943  4.100000
   Se( 12)  4.345599  3.327002  3.014007  3.263347  4.646487
   H ( 13)  5.131125  3.992186  5.405320  3.622734  0.742992  4.690864

 
 Final energy is   -4921.68969782900     


 ******************************
 **  OPTIMIZATION CONVERGED  **
 ******************************

                       Coordinates (Angstroms)
     ATOM                X               Y               Z
      1  C         0.3139874904    1.1143604539   -1.0864096202
      2  H        -1.1652097513   -0.1658311812   -2.6436273657
      3  C         0.3947016441    2.0633732300    0.0942845780
      4  H         0.0718187329    3.0478560775   -0.2767804832
      5  H        -0.3607531452    1.7707957771    0.8359742858
      6  C         1.7631000745    2.1924889303    0.7644306807
      7  H         1.7024267683    2.9087820849    1.5898063014
      8  H         2.0951506484    1.2314852769    1.1663756614
      9  H         2.5185798102    2.5386044157    0.0565347722
     10  Se       -1.4988674163    0.5951735509   -1.4303239795
     11  H        -0.0094601442   -1.7924383691    1.5514499835
     12  Se        1.7011897073    0.5643940066   -2.0691656600
     13  H        -0.6944564190   -1.6201372535    1.3209528454

Z-matrix Print:
$molecule
0 1
Se
C  1 1.786786
C  2 1.516964 1 125.404087
H  3 1.098370 2 108.804285 1 -145.601749 0
H  3 1.100522 2 106.355487 1 101.395843 0
C  3 1.529144 2 116.202137 1 -20.831342 0
H  6 1.091633 3 111.216414 2 59.116155 0
H  6 1.093319 3 111.019250 2 -61.006877 0
H  6 1.094533 3 109.641324 2 179.306974 0
Se 2 1.916840 1 123.518117 3 178.538117 0
H  10 1.470565 2 94.221536 1 -3.525586 0
H  4 3.441655 3 115.105832 2 40.827058 0
H  12 0.742992 4 100.533363 3 60.350056 0
$end

PES scan, value:    4.1000 energy: -4921.6896978290
------- Summary of potential scan: ------ 
    4.1000     -4921.6896978290
----------------------------------------- 
Archival summary:
1\1\hpc0248\JobtypUnspecified\ProcedureUnspecified\6-31G**\e238\knomura\ThuMar1401:19:432019ThuMar1401:19:432019\0\\#,JobtypUnspecified,ProcedureUnspecified,6-31G**,\\0,1\Se\C,1,1.78679\C,2,1.51696,1,125.404\H,3,1.09837,2,108.804,1,-145.602,0\H,3,1.10052,2,106.355,1,101.396,0\C,3,1.52914,2,116.202,1,-20.8313,0\H,6,1.09163,3,111.216,2,59.1162,0\H,6,1.09332,3,111.019,2,-61.0069,0\H,6,1.09453,3,109.641,2,179.307,0\Se,2,1.91684,1,123.518,3,178.538,0\H,10,1.47056,2,94.2215,1,-3.52559,0\H,4,3.44165,3,115.106,2,40.8271,0\H,12,0.742992,4,100.533,3,60.3501,0\\\@

 Total job time:  123.33s(wall), 1448.81s(cpu) 
 Thu Mar 14 01:19:43 2019

        *************************************************************
        *                                                           *
        *  Thank you very much for using Q-Chem.  Have a nice day.  *
        *                                                           *
        *************************************************************


