
Running Job 1 of 1 selenium/02/Se-H.xyz.data/inputs/bond_triplet_4.3.in
qchem selenium/02/Se-H.xyz.data/inputs/bond_triplet_4.3.in_5112.0 /staging/scratch/2868765/qchem5112/ 1
/usr/usc/qchem/5.1.1/exe/qcprog.exe_s selenium/02/Se-H.xyz.data/inputs/bond_triplet_4.3.in_5112.0 /staging/scratch/2868765/qchem5112/
Check license passed

                  Welcome to Q-Chem
     A Quantum Leap Into The Future Of Chemistry


 Q-Chem 5.1, Q-Chem, Inc., Pleasanton, CA (2018)

 Yihan Shao,  Zhengting Gan,  E. Epifanovsky,  A. T. B. Gilbert,  M. Wormit,  
 J. Kussmann,  A. W. Lange,  A. Behn,  Jia Deng,  Xintian Feng,  D. Ghosh,  
 M. Goldey,  P. R. Horn,  L. D. Jacobson,  I. Kaliman,  T. Kus,  A. Landau,  
 Jie Liu,  E. I. Proynov,  R. M. Richard,  R. P. Steele,  E. J. Sundstrom,  
 H. L. Woodcock III,  P. M. Zimmerman,  D. Zuev,  B. Albrecht,  E. Alguire,  
 S. A. Baeppler,  D. Barton,  Z. Benda,  Y. A. Bernard,  E. J. Berquist,  
 K. B. Bravaya,  H. Burton,  D. Casanova,  Chun-Min Chang,  Yunqing Chen,  
 A. Chien,  K. D. Closser,  M. P. Coons,  S. Coriani,  S. Dasgupta,  
 A. L. Dempwolff,  M. Diedenhofen,  Hainam Do,  R. G. Edgar,  Po-Tung Fang,  
 S. Faraji,  S. Fatehi,  Qingguo Feng,  K. D. Fenk,  J. Fosso-Tande,  
 Qinghui Ge,  A. Ghysels,  G. Gidofalvi,  J. Gomes,  J. Gonthier,  A. Gunina,  
 D. Hait,  M. W. D. Hanson-Heine,  P. H. P. Harbach,  A. W. Hauser,  
 J. E. Herr,  E. G. Hohenstein,  Z. C. Holden,  Kerwin Hui,  B. C. Huynh,  
 T.-C. Jagau,  Hyunjun Ji,  B. Kaduk,  K. Khistyaev,  Jaehoon Kim,  
 P. Klunzinger,  K. Koh,  D. Kosenkov,  L. Koulias,  T. Kowalczyk,  
 C. M. Krauter,  A. Kunitsa,  Ka Un Lao,  A. Laurent,  K. V. Lawler,  
 Joonho Lee,  D. Lefrancois,  S. Lehtola,  D. S. Levine,  Yi-Pei Li,  
 You-Sheng Lin,  Fenglai Liu,  E. Livshits,  A. Luenser,  P. Manohar,  
 E. Mansoor,  S. F. Manzer,  Shan-Ping Mao,  Yuezhi Mao,  N. Mardirossian,  
 A. V. Marenich,  T. Markovich,  L. A. Martinez-Martinez,  S. A. Maurer,  
 N. J. Mayhall,  S. C. McKenzie,  J.-M. Mewes,  A. F. Morrison,  
 J. W. Mullinax,  K. Nanda,  T. S. Nguyen-Beck,  R. Olivares-Amaya,  
 J. A. Parkhill,  T. M. Perrine,  F. Plasser,  P. Pokhilko,  S. Prager,  
 A. Prociuk,  E. Ramos,  D. R. Rehn,  F. Rob,  M. Schneider,  N. Sergueev,  
 S. M. Sharada,  S. Sharma,  D. W. Small,  T. Stauch,  T. Stein,  
 Yu-Chuan Su,  A. J. W. Thom,  A. Tkatchenko,  T. Tsuchimochi,  N. M. Tubman,  
 L. Vogt,  M. L. Vidal,  O. Vydrov,  M. A. Watson,  J. Wenzel,  
 M. de Wergifosse,  T. A. Wesolowski,  A. White,  J. Witte,  A. Yamada,  
 Jun Yang,  K. Yao,  S. Yeganeh,  S. R. Yost,  Zhi-Qiang You,  A. Zech,  
 Igor Ying Zhang,  Xing Zhang,  Yan Zhao,  Ying Zhu,  B. R. Brooks,  
 G. K. L. Chan,  C. J. Cramer,  M. S. Gordon,  W. J. Hehre,  A. Klamt,  
 M. W. Schmidt,  C. D. Sherrill,  D. G. Truhlar,  A. Aspuru-Guzik,  R. Baer,  
 A. T. Bell,  N. A. Besley,  Jeng-Da Chai,  A. E. DePrince, III,  
 R. A. DiStasio Jr.,  A. Dreuw,  B. D. Dunietz,  T. R. Furlani,  
 Chao-Ping Hsu,  Yousung Jung,  Jing Kong,  D. S. Lambrecht,  WanZhen Liang,  
 C. Ochsenfeld,  V. A. Rassolov,  L. V. Slipchenko,  J. E. Subotnik,  
 T. Van Voorhis,  J. M. Herbert,  A. I. Krylov,  P. M. W. Gill,  M. Head-Gordon

 Contributors to earlier versions of Q-Chem not listed above: 
 R. D. Adamson,  B. Austin,  J. Baker,  G. J. O. Beran,  K. Brandhorst,  
 S. T. Brown,  E. F. C. Byrd,  A. K. Chakraborty,  C.-L. Cheng,  
 Siu Hung Chien,  D. M. Chipman,  D. L. Crittenden,  H. Dachsel,  
 R. J. Doerksen,  A. D. Dutoi,  L. Fusti-Molnar,  W. A. Goddard III,  
 A. Golubeva-Zadorozhnaya,  S. R. Gwaltney,  G. Hawkins,  A. Heyden,  
 S. Hirata,  G. Kedziora,  F. J. Keil,  C. Kelley,  Jihan Kim,  R. A. King,  
 R. Z. Khaliullin,  P. P. Korambath,  W. Kurlancheek,  A. M. Lee,  M. S. Lee,  
 S. V. Levchenko,  Ching Yeh Lin,  D. Liotard,  R. C. Lochan,  I. Lotan,  
 P. E. Maslen,  N. Nair,  D. P. O'Neill,  D. Neuhauser,  E. Neuscamman,  
 C. M. Oana,  R. Olson,  B. Peters,  R. Peverati,  P. A. Pieniazek,  
 Y. M. Rhee,  J. Ritchie,  M. A. Rohrdanz,  E. Rosta,  N. J. Russ,  
 H. F. Schaefer III,  N. E. Schultz,  N. Shenvi,  A. C. Simmonett,  A. Sodt,  
 D. Stuck,  K. S. Thanthiriwatte,  V. Vanovschi,  Tao Wang,  A. Warshel,  
 C. F. Williams,  Q. Wu,  X. Xu,  W. Zhang

 Please cite Q-Chem as follows:
 Y. Shao et al., Mol. Phys. 113, 184-215 (2015)
 DOI: 10.1080/00268976.2014.952696

 Q-Chem 5.1.1 for Intel X86 EM64T Linux

 Parts of Q-Chem use Armadillo 8.300.2 (Tropical Shenanigans).
 http://arma.sourceforge.net/

 Q-Chem begins on Thu Mar 14 03:56:55 2019  

Host: 
0

     Scratch files written to /staging/scratch/2868765/qchem5112//
 Aug318 |scratch|qcdevops|jenkins|workspace|build_RNUM 6013   
Processing $rem in /usr/usc/qchem/5.1.1/config/preferences.
 MEM_TOTAL  2000 
Input Ideriv = 2
Curr. Ideriv = -1
Max.  Ideriv = 2

Checking the input file for inconsistencies... 	...done.

--------------------------------------------------------------
User input:
--------------------------------------------------------------

$comment
potential surface scanner
$end

$rem
JOBTYPE  PES_SCAN
UNRESTRICTED TRUE
SYM_IGNORE  TRUE
GEOM_OPT_MAX_CYCLES 400
SCF_MAX_CYCLES 400
METHOD   B3LYP
BASIS   6-31G**
PDB_PRINT 2
SCF_CONVERGENCE 6
THRESH 14
SCF_PRINT 1
$end
$molecule
0 3
C 0.022113 1.077526 -0.736825
H 0.193139 1.539626 -1.711585
C 0.440771 2.002982 0.400998
H -0.273700 2.836830 0.403075
H 0.304117 1.486499 1.357645
C 1.865391 2.553777 0.277801
H 2.071017 3.258748 1.089033
H 2.611579 1.755459 0.326927
H 2.005901 3.085792 -0.669518
Se -1.798704 0.363549 -0.646954
H -2.529927 -3.914412 0.077175
Se 1.040139 -0.641229 -0.863356
H 0.880361 -0.956248 0.569084
$end
$scan
stre 10 11 4.300000 4.301000 0.100000
$end
--------------------------------------------------------------
 ----------------------------------------------------------------
             Standard Nuclear Orientation (Angstroms)
    I     Atom           X                Y                Z
 ----------------------------------------------------------------
    1      C       0.0221130000     1.0775260000    -0.7368250000
    2      H       0.1931390000     1.5396260000    -1.7115850000
    3      C       0.4407710000     2.0029820000     0.4009980000
    4      H      -0.2737000000     2.8368300000     0.4030750000
    5      H       0.3041170000     1.4864990000     1.3576450000
    6      C       1.8653910000     2.5537770000     0.2778010000
    7      H       2.0710170000     3.2587480000     1.0890330000
    8      H       2.6115790000     1.7554590000     0.3269270000
    9      H       2.0059010000     3.0857920000    -0.6695180000
   10      Se     -1.7987040000     0.3635490000    -0.6469540000
   11      H      -2.5299270000    -3.9144120000     0.0771750000
   12      Se      1.0401390000    -0.6412290000    -0.8633560000
   13      H       0.8803610000    -0.9562480000     0.5690840000
 ----------------------------------------------------------------
 Nuclear Repulsion Energy =   602.1675901255 hartrees
 There are       48 alpha and       46 beta electrons
 Requested basis set is 6-31G(d,p)
 There are 52 shells and 155 basis functions

 Total QAlloc Memory Limit   2000 MB
 Mega-Array Size       188 MB
 MEM_STATIC part       192 MB
A total of 1 constraints
  
            1
    1   1.0100000
    2  10.0100000
    3  11.0100000
    4   4.3000000
    5   4.3010000
    6   0.1000000
    7   0.0000000
    8   0.0000000
    9   0.0000000
   10   0.0000000

                       Distance Matrix (Angstroms)
             C (  1)   H (  2)   C (  3)   H (  4)   H (  5)   C (  6)
   H (  2)  1.092219
   C (  3)  1.525249  2.176931
   H (  4)  2.117080  2.524374  1.098078
   H (  5)  2.152577  3.071695  1.095720  1.751705
   C (  6)  2.570303  2.789729  1.532349  2.161371  2.177779
   H (  7)  3.505638  3.784874  2.169802  2.479163  2.516934  1.094241
   H (  8)  2.880364  3.170326  2.186129  3.082206  2.541476  1.093856
   H (  9)  2.823664  2.600507  2.183601  2.531604  3.092442  1.095535
   Se( 10)  1.957860  2.546377  2.966680  3.089550  3.114689  4.367821
   H ( 11)  5.665240  6.353053  6.629137  7.125731  6.232275  7.822822
   Se( 12)  2.001626  2.488580  2.991602  3.927711  3.162562  3.491610
   H ( 13)  2.564805  3.450089  2.996420  3.968231  2.630760  3.657240
             H (  7)   H (  8)   H (  9)   Se( 10)   H ( 11)   Se( 12)
   H (  8)  1.769997
   H (  9)  1.768235  1.769049
   Se( 10)  5.135228  4.726146  4.678262
   H ( 11)  8.581769  7.657996  8.374613  4.400000
   Se( 12)  4.481557  3.103274  3.854991  3.019178  4.933933
   H ( 13)  4.410692  3.226315  4.374821  3.224593  4.541230  1.475348

 
 A cutoff of  1.0D-14 yielded   1200 shell pairs
 There are     10893 function pairs
 
 -------------------------------------------------------
 OpenMP Integral Computing Module                       
 Release: version 1.0, May 2013, Q-Chem Inc. Pittsburgh 
 -------------------------------------------------------
 Integral Job Info:
 Integral job number is                      11
 Integral operator is                         1
 short-range coefficients                     0
 long-range coefficients              100000000
 Omega coefficients                           0
 if combine SR and LR in K                    0
 Integral screening is                        0
 Integral computing path is                   2
 max size of driver memory is            800000
 size of driver memory is                593474
 size of scratch memory is             15267112
 max col of scratch BK array               1296
 max len of scratch array in speh3          155
 max len of scratch index in speh4           18
 max int batch size is                      520
 min int batch size is                       52
 fixed nKL is                                52
 max L of basis functions is                  2
 order of int derivative is                   0
 number of shells is                         52
 number of basis is                         155
 number of cartesian basis is               155
 number of contracted shell pairs          1200
 number of primitive shell pairs           4847
 maxK2 (contraction) of shell pair           36
 max number of K2 of shell pair               1
 max number of CS2 of shell pair             81
 max number of PS2 of shell pair            462
 mem total for path MDJ                  535932
 -------------------------------------------------------
 Smallest overlap matrix eigenvalue = 6.74E-04

 Scale SEOQF with 1.000000e-01/1.000000e-01/1.000000e-01

 Standard Electronic Orientation quadrupole field applied
 Nucleus-field energy     =     0.0000000114 hartrees
 Guess from superposition of atomic densities
 Warning:  Energy on first SCF cycle will be non-variational
 SAD guess density has 93.936381 electrons

 -----------------------------------------------------------------------
  General SCF calculation program by
  Eric Jon Sundstrom, Paul Horn, Yuezhi Mao, Dmitri Zuev, Alec White,
  David Stuck, Shaama M.S., Shane Yost, Joonho Lee, David Small,
  Daniel Levine, Susi Lehtola, Hugh Burton, Evgeny Epifanovsky
 -----------------------------------------------------------------------
 Exchange:     0.2000 Hartree-Fock + 0.0800 Slater + 0.7200 B88
 Correlation:  0.1900 VWN1RPA + 0.8100 LYP
 Using SG-1 standard quadrature grid
 using 12 threads for integral computing
 -------------------------------------------------------
 OpenMP Integral computing Module                
 Release: version 1.0, May 2013, Q-Chem Inc. Pittsburgh 
 -------------------------------------------------------
 -------------------------------------------------------
 OpenMP BLAS3 based DFT computing Module                
 Release: version 1.0, May 2013, Q-Chem Inc. Pittsburgh 
 -------------------------------------------------------
 A unrestricted SCF calculation will be
 performed using DIIS
 SCF converges when DIIS error is below 1.0e-06
 Alpha HF Exchange    Energy = -18.85764012868558
 Beta HF Exchange     Energy = -18.85764012868558
 DFT Correlation      Energy =  -5.13378261053041
 DFT Exchange         Energy = -149.86735850719782
 One-Electron (alpha) Energy = -4019.78739137207594
 One-Electron (beta)  Energy = -4019.78739137207594
 Total Coulomb        Energy = 2702.29151286693104
 ---------------------------------------
  Cycle       Energy         DIIS error
 ---------------------------------------
    1   -4927.8321011155      1.50e-01  
 Alpha HF Exchange    Energy = -19.04767226255844
 Beta HF Exchange     Energy = -18.88280340150813
 DFT Correlation      Energy =  -5.16859565781891
 DFT Exchange         Energy = -151.00412069273077
 One-Electron (alpha) Energy = -4048.71855360335849
 One-Electron (beta)  Energy = -4010.04685607048714
 Total Coulomb        Energy = 2729.23863414888092
    2   -4921.4623774027      9.32e-03  
 Alpha HF Exchange    Energy = -18.91892622522474
 Beta HF Exchange     Energy = -18.76721496645750
 DFT Correlation      Energy =  -5.12767657968741
 DFT Exchange         Energy = -150.00179268791939
 One-Electron (alpha) Energy = -4034.75055521757986
 One-Electron (beta)  Energy = -3997.30943673677575
 Total Coulomb        Energy = 2701.25222811930189
    3   -4921.4557841575      3.75e-03  
 Alpha HF Exchange    Energy = -19.02646954925383
 Beta HF Exchange     Energy = -18.86167461759454
 DFT Correlation      Energy =  -5.16149781974306
 DFT Exchange         Energy = -150.82564408779120
 One-Electron (alpha) Energy = -4045.66362247006964
 One-Electron (beta)  Energy = -4007.09959934942572
 Total Coulomb        Energy = 2723.00037725105722
    4   -4921.4705405060      3.26e-03  
 Alpha HF Exchange    Energy = -18.99315879645631
 Beta HF Exchange     Energy = -18.83462678922105
 DFT Correlation      Energy =  -5.14887972791443
 DFT Exchange         Energy = -150.56581504875362
 One-Electron (alpha) Energy = -4042.71936536705198
 One-Electron (beta)  Energy = -4004.50105697281333
 Total Coulomb        Energy = 2717.00171007667723
    5   -4921.5936024887      1.07e-03  
 Alpha HF Exchange    Energy = -18.98567357332909
 Beta HF Exchange     Energy = -18.82554336889315
 DFT Correlation      Energy =  -5.14795906884817
 DFT Exchange         Energy = -150.50618693249169
 One-Electron (alpha) Energy = -4041.87800383413196
 One-Electron (beta)  Energy = -4003.59921972110624
 Total Coulomb        Energy = 2715.16767898278522
    6   -4921.6073173792      7.58e-05  
 Alpha HF Exchange    Energy = -18.98474977670968
 Beta HF Exchange     Energy = -18.82485566426417
 DFT Correlation      Energy =  -5.14750738517979
 DFT Exchange         Energy = -150.49871190832201
 One-Electron (alpha) Energy = -4041.69927448692124
 One-Electron (beta)  Energy = -4003.43039751691094
 Total Coulomb        Energy = 2714.81050625028183
    7   -4921.6074003512      6.99e-05  
 Alpha HF Exchange    Energy = -18.98528746323167
 Beta HF Exchange     Energy = -18.82558446491439
 DFT Correlation      Energy =  -5.14763449313498
 DFT Exchange         Energy = -150.50343796258701
 One-Electron (alpha) Energy = -4041.78980343089688
 One-Electron (beta)  Energy = -4003.52187869775526
 Total Coulomb        Energy = 2714.99856860002546
    8   -4921.6074677756      2.79e-05  
 Alpha HF Exchange    Energy = -18.98537856251685
 Beta HF Exchange     Energy = -18.82568783966134
 DFT Correlation      Energy =  -5.14762112715191
 DFT Exchange         Energy = -150.50400380786255
 One-Electron (alpha) Energy = -4041.80119244236448
 One-Electron (beta)  Energy = -4003.53233767171196
 Total Coulomb        Energy = 2715.02115163426606
    9   -4921.6074796801      1.19e-05  
 Alpha HF Exchange    Energy = -18.98536114713670
 Beta HF Exchange     Energy = -18.82573411914769
 DFT Correlation      Energy =  -5.14763608227497
 DFT Exchange         Energy = -150.50407711346281
 One-Electron (alpha) Energy = -4041.79472603986869
 One-Electron (beta)  Energy = -4003.52958767204200
 Total Coulomb        Energy = 2715.01204978290616
   10   -4921.6074822542      5.13e-06  
 Alpha HF Exchange    Energy = -18.98534356149080
 Beta HF Exchange     Energy = -18.82573784023544
 DFT Correlation      Energy =  -5.14761861375791
 DFT Exchange         Energy = -150.50396611686830
 One-Electron (alpha) Energy = -4041.79173364529561
 One-Electron (beta)  Energy = -4003.52853976120059
 Total Coulomb        Energy = 2715.00786655294087
   11   -4921.6074828490      6.76e-07  Convergence criterion met
 ---------------------------------------
 SCF time:   CPU 53.81s  wall 4.00s 
<S^2> =          2.002884452
 Alpha HF Exchange    Energy = -18.98534356149080
 Beta HF Exchange     Energy = -18.82573784023544
 DFT Correlation      Energy =  -5.14761861375791
 DFT Exchange         Energy = -150.50396611686830
 One-Electron (alpha) Energy = -4041.79173364529561
 One-Electron (beta)  Energy = -4003.52853976120059
 Total Coulomb        Energy = 2715.00786655294087
 Nuclear repulsion Energy = 602.16759013685942
 SCF   energy in the final basis set =    -4921.6074828490
 Total energy in the final basis set =    -4921.6074828490
 
 --------------------------------------------------------------
 
                    Orbital Energies (a.u.)
 --------------------------------------------------------------
 
 Alpha MOs
 -- Occupied --
*******-453.889 -58.121 -58.083 -52.178 -52.177 -52.176 -52.142
-52.140 -52.137 -10.260 -10.207 -10.189  -7.855  -7.817  -5.799
 -5.795  -5.788  -5.763  -5.760  -5.747  -2.133  -2.132  -2.126
 -2.123  -2.122  -2.097  -2.096  -2.087  -2.084  -2.082  -0.824
 -0.749  -0.691  -0.641  -0.582  -0.470  -0.444  -0.423  -0.399
 -0.384  -0.361  -0.351  -0.321  -0.309  -0.278  -0.225  -0.223
 -- Virtual --
 -0.024   0.025   0.027   0.093   0.116   0.136   0.148   0.163
  0.169   0.198   0.199   0.229   0.248   0.264   0.281   0.305
  0.311   0.323   0.349   0.433   0.434   0.473   0.496   0.527
  0.546   0.572   0.585   0.596   0.616   0.650   0.683   0.712
  0.727   0.738   0.783   0.803   0.831   0.851   0.864   0.883
  0.903   0.921   0.933   0.949   1.005   1.050   1.102   1.332
  1.384   1.439   1.532   1.561   1.611   1.639   1.717   1.783
  1.825   1.860   1.928   1.957   1.957   1.958   2.036   2.055
  2.059   2.069   2.090   2.105   2.125   2.162   2.241   2.288
  2.355   2.420   2.476   2.528   2.586   2.613   2.676   2.713
  2.756   2.817   2.873   2.896   3.182   3.274   3.303   3.412
  3.457   3.522   4.174   4.236   4.241   4.260   4.288   4.304
  4.351   4.379   4.395   4.412   4.497   4.510   4.623   5.436
  5.477  89.679  89.833
 
 Beta MOs
 -- Occupied --
*******-453.887 -58.121 -58.082 -52.178 -52.177 -52.175 -52.140
-52.138 -52.136 -10.260 -10.207 -10.189  -7.854  -7.814  -5.799
 -5.795  -5.787  -5.759  -5.755  -5.746  -2.132  -2.131  -2.125
 -2.122  -2.121  -2.093  -2.092  -2.084  -2.081  -2.080  -0.822
 -0.745  -0.681  -0.629  -0.576  -0.470  -0.443  -0.419  -0.397
 -0.382  -0.360  -0.346  -0.316  -0.254  -0.213
 -- Virtual --
 -0.135  -0.033  -0.021   0.029   0.032   0.094   0.116   0.138
  0.149   0.164   0.170   0.200   0.201   0.231   0.253   0.265
  0.286   0.312   0.320   0.335   0.354   0.435   0.445   0.477
  0.504   0.540   0.556   0.587   0.591   0.604   0.625   0.654
  0.697   0.717   0.744   0.791   0.806   0.835   0.852   0.864
  0.883   0.905   0.923   0.936   0.950   0.953   1.007   1.050
  1.104   1.333   1.385   1.440   1.537   1.565   1.612   1.641
  1.719   1.783   1.825   1.861   1.929   2.036   2.055   2.059
  2.069   2.090   2.106   2.125   2.162   2.189   2.194   2.194
  2.241   2.288   2.355   2.420   2.476   2.528   2.586   2.613
  2.676   2.713   2.756   2.817   2.873   2.896   3.182   3.274
  3.302   3.412   3.457   3.522   4.174   4.244   4.246   4.268
  4.294   4.307   4.353   4.382   4.400   4.414   4.499   4.514
  4.623   5.443   5.486  89.682  89.835
 --------------------------------------------------------------
 
          Ground-State Mulliken Net Atomic Charges

     Atom                 Charge (a.u.)    Spin (a.u.)
  --------------------------------------------------------
      1 C                    -0.232614      -0.031567
      2 H                     0.155873       0.001635
      3 C                    -0.172313       0.002355
      4 H                     0.123141      -0.000560
      5 H                     0.117941      -0.000328
      6 C                    -0.328103      -0.000013
      7 H                     0.112577       0.000277
      8 H                     0.126470       0.000071
      9 H                     0.108813       0.000031
     10 Se                   -0.109270       0.823665
     11 H                     0.000606       0.998626
     12 Se                    0.019453       0.211726
     13 H                     0.077427      -0.005916
  --------------------------------------------------------
  Sum of atomic charges =    -0.000000
  Sum of spin   charges =     2.000000

 -----------------------------------------------------------------
                    Cartesian Multipole Moments
 -----------------------------------------------------------------
    Charge (ESU x 10^10)
                 0.0000
    Dipole Moment (Debye)
         X       2.1138      Y       1.1813      Z       0.7743
       Tot       2.5423
    Quadrupole Moments (Debye-Ang)
        XX     -61.6804     XY       0.3517     YY     -54.2926
        XZ      -0.7813     YZ      -1.5139     ZZ     -58.4706
    Octopole Moments (Debye-Ang^2)
       XXX      -1.8073    XXY     -30.5868    XYY       2.6243
       YYY     -77.6658    XXZ      30.5734    XYZ      -0.9436
       YYZ      27.3055    XZZ       6.9692    YZZ     -25.4591
       ZZZ      80.3065
    Hexadecapole Moments (Debye-Ang^3)
      XXXX    -781.5846   XXXY     -89.6632   XXYY    -252.8175
      XYYY     -91.3230   YYYY    -744.0968   XXXZ     -30.4451
      XXYZ      -7.9406   XYYZ      -9.6451   YYYZ     -32.3755
      XXZZ    -183.0152   XYZZ     -25.9023   YYZZ    -165.0369
      XZZZ     -42.9486   YZZZ     -35.3736   ZZZZ    -249.7268
 -----------------------------------------------------------------
 Calculating analytic gradient of the SCF energy
 Gradient of SCF Energy
            1           2           3           4           5           6
    1   0.0001336  -0.0001538  -0.0000732   0.0000278  -0.0000401   0.0000048
    2  -0.0000903   0.0000948  -0.0000135   0.0000245   0.0000183  -0.0000595
    3   0.0000236   0.0000234  -0.0000098  -0.0000194   0.0000128  -0.0000285
            7           8           9          10          11          12
    1  -0.0000144   0.0000118   0.0000149   0.0001436  -0.0000082  -0.0000372
    2  -0.0000063  -0.0000004  -0.0000208   0.0001468  -0.0000229  -0.0002008
    3  -0.0000115   0.0000090  -0.0000110  -0.0000227   0.0000026  -0.0001209
           13
    1  -0.0000096
    2   0.0001300
    3   0.0001524
 Max gradient component =       2.008E-04
 RMS gradient           =       7.422E-05
 Gradient time:  CPU 19.35 s  wall 1.64 s
 Geometry Optimization Parameters
   NAtoms,    NIC,     NZ,  NCons,   NDum,   NFix, NCnnct, MaxDiis
       13     102       0       1       0       0       0       0


** CONSTRAINED OPTIMIZATION IN DELOCALIZED INTERNAL COORDINATES **
   Searching for a Minimum

   Optimization Cycle:   1

                       Coordinates (Angstroms)
     ATOM                X               Y               Z
      1  C         0.0221130000    1.0775260000   -0.7368250000
      2  H         0.1931390000    1.5396260000   -1.7115850000
      3  C         0.4407710000    2.0029820000    0.4009980000
      4  H        -0.2737000000    2.8368300000    0.4030750000
      5  H         0.3041170000    1.4864990000    1.3576450000
      6  C         1.8653910000    2.5537770000    0.2778010000
      7  H         2.0710170000    3.2587480000    1.0890330000
      8  H         2.6115790000    1.7554590000    0.3269270000
      9  H         2.0059010000    3.0857920000   -0.6695180000
     10  Se       -1.7987040000    0.3635490000   -0.6469540000
     11  H        -2.5299270000   -3.9144120000    0.0771750000
     12  Se        1.0401390000   -0.6412290000   -0.8633560000
     13  H         0.8803610000   -0.9562480000    0.5690840000
   Point Group: c1    Number of degrees of freedom:    33


   Energy is  -4921.607482849

              Constraints and their Current Values
                                        Value     Constraint
   Distance(Angs):       10  11             4.400000     4.300000

 Attempting to Generate Delocalized Internal Coordinates

   Using Lagrange Multiplier Algorithm


 34 Hessian modes will be used to form the next step
  Hessian Eigenvalues:
    -0.998069    0.011448    0.045000    0.045000    0.047176    0.062539
     0.066864    0.071492    0.076690    0.077956    0.079004    0.082332
     0.083351    0.097703    0.105943    0.111582    0.133795    0.151064
     0.160000    0.160000    0.160000    0.160091    0.171234    0.173356
     0.219531    0.292075    0.298666    0.338955    0.341599    0.341808
     0.343271    0.343708    0.345574    1.001935

 Minimum Search - Taking P-RFO Step
 Searching for Lamda that Maximizes Along the Constraint modes Only
 Value Taken    Lamda =   0.01760617


 ********************************************
 ** ERROR IN DETERMINING Lamda IN CONFormD **
 ********************************************


 ** Scaling Hessian by  3.075932 **


 34 Hessian modes will be used to form the next step
  Hessian Eigenvalues:
    -0.994072    0.035212    0.138417    0.138417    0.145111    0.192365
     0.205669    0.219905    0.235892    0.239786    0.243012    0.253249
     0.256382    0.300527    0.325874    0.343218    0.411543    0.464662
     0.492149    0.492149    0.492149    0.492430    0.526703    0.533232
     0.675262    0.898403    0.918675    1.005963    1.042604    1.050735
     1.051378    1.055878    1.057222    1.062962

 Minimum Search - Taking P-RFO Step
 Searching for Lamda that Maximizes Along the Constraint modes Only
 Value Taken    Lamda =   0.01774412
 Searching for Lamda that Minimizes Along All other modes
 Value Taken    Lamda =  -0.01735270
 Step Taken.  Stepsize is  0.185717

                             Maximum     Tolerance    Cnvgd?
         Gradient            0.188973       0.000300      NO
         Displacement        0.185713       0.001200      NO
         Energy change     *********       0.000001      NO


 New Cartesian Coordinates Obtained by Inverse Iteration

 Displacement from previous Coordinates is:  0.178982
 ----------------------------------------------------------------
             Standard Nuclear Orientation (Angstroms)
    I     Atom           X                Y                Z
 ----------------------------------------------------------------
    1      C       0.0255826388     1.0634925981    -0.7328640231
    2      H       0.1892880755     1.5266084893    -1.7084018111
    3      C       0.4399680242     1.9931880333     0.4031201952
    4      H      -0.2818931171     2.8206387028     0.4072920595
    5      H       0.3112109194     1.4759301172     1.3604350661
    6      C       1.8592054727     2.5566289059     0.2748655270
    7      H       2.0613600895     3.2637457970     1.0851082220
    8      H       2.6126105082     1.7649823065     0.3217465110
    9      H       1.9917441205     3.0894794470    -0.6731328215
   10      Se     -1.7908414869     0.3312043721    -0.6385515764
   11      H      -2.5466908404    -3.8453526720     0.0613769449
   12      Se      1.0581924154    -0.6440598579    -0.8604758107
   13      H       0.9024601800    -0.9475872394     0.5729815173
 ----------------------------------------------------------------
 Nuclear Repulsion Energy =   602.2701840643 hartrees
 There are       48 alpha and       46 beta electrons

                       Distance Matrix (Angstroms)
             C (  1)   H (  2)   C (  3)   H (  4)   H (  5)   C (  6)
   H (  2)  1.092222
   C (  3)  1.525290  2.176939
   H (  4)  2.117088  2.524418  1.098078
   H (  5)  2.152577  3.071676  1.095713  1.751712
   C (  6)  2.570437  2.789788  1.532367  2.161375  2.177765
   H (  7)  3.505785  3.784970  2.169870  2.479237  2.516965  1.094246
   H (  8)  2.880452  3.170302  2.186110  3.082187  2.541430  1.093856
   H (  9)  2.823824  2.600614  2.183617  2.531604  3.092431  1.095535
   Se( 10)  1.960749  2.548428  2.970485  3.093218  3.118488  4.371463
   H ( 11)  5.598587  6.282966  6.566999  7.048717  6.178285  7.774501
   Se( 12)  1.999576  2.487122  2.988972  3.925201  3.159871  3.489274
   H ( 13)  2.553153  3.440199  2.981763  3.953438  2.615931  3.644690
             H (  7)   H (  8)   H (  9)   Se( 10)   H ( 11)   Se( 12)
   H (  8)  1.769997
   H (  9)  1.768227  1.769054
   Se( 10)  5.139091  4.729512  4.681584
   H ( 11)  8.533548  7.626404  8.320384  4.301725
   Se( 12)  4.479128  3.101185  3.853042  3.019501  4.908490
   H ( 13)  4.397800  3.216484  4.363169  3.218228  4.533809  1.473493

 
 Applying Cartesian multipole field
    Component          Value
    ---------          -----
     (2,0,0)        1.00000E-11
     (0,2,0)        2.00000E-11
     (0,0,2)       -3.00000E-11
 Nucleus-field energy     =     0.0000000113 hartrees
 Requested basis set is 6-31G(d,p)
 There are 52 shells and 155 basis functions
 A cutoff of  1.0D-14 yielded   1200 shell pairs
 There are     10893 function pairs
 Smallest overlap matrix eigenvalue = 6.74E-04
 Guess from superposition of atomic densities
 Warning:  Energy on first SCF cycle will be non-variational
 SAD guess density has 93.936381 electrons

 -----------------------------------------------------------------------
  General SCF calculation program by
  Eric Jon Sundstrom, Paul Horn, Yuezhi Mao, Dmitri Zuev, Alec White,
  David Stuck, Shaama M.S., Shane Yost, Joonho Lee, David Small,
  Daniel Levine, Susi Lehtola, Hugh Burton, Evgeny Epifanovsky
 -----------------------------------------------------------------------
 Exchange:     0.2000 Hartree-Fock + 0.0800 Slater + 0.7200 B88
 Correlation:  0.1900 VWN1RPA + 0.8100 LYP
 Using SG-1 standard quadrature grid
 using 12 threads for integral computing
 -------------------------------------------------------
 OpenMP Integral computing Module                
 Release: version 1.0, May 2013, Q-Chem Inc. Pittsburgh 
 -------------------------------------------------------
 -------------------------------------------------------
 OpenMP BLAS3 based DFT computing Module                
 Release: version 1.0, May 2013, Q-Chem Inc. Pittsburgh 
 -------------------------------------------------------
 A unrestricted SCF calculation will be
 performed using DIIS
 SCF converges when DIIS error is below 1.0e-06
 Alpha HF Exchange    Energy = -18.85768283217157
 Beta HF Exchange     Energy = -18.85768283217157
 DFT Correlation      Energy =  -5.13384039181474
 DFT Exchange         Energy = -149.86741165867977
 One-Electron (alpha) Energy = -4019.88947538736738
 One-Electron (beta)  Energy = -4019.88947538736738
 Total Coulomb        Energy = 2702.39294649456451
 ---------------------------------------
  Cycle       Energy         DIIS error
 ---------------------------------------
    1   -4927.8324379193      1.50e-01  
 Alpha HF Exchange    Energy = -19.04765053758053
 Beta HF Exchange     Energy = -18.88278587543307
 DFT Correlation      Energy =  -5.16864951328218
 DFT Exchange         Energy = -151.00402162076392
 One-Electron (alpha) Energy = -4048.88925626954506
 One-Electron (beta)  Energy = -4010.07583249391519
 Total Coulomb        Energy = 2729.33568307639644
    2   -4921.4623291584      9.32e-03  
 Alpha HF Exchange    Energy = -18.91899082383965
 Beta HF Exchange     Energy = -18.76723066505657
 DFT Correlation      Energy =  -5.12776030640435
 DFT Exchange         Energy = -150.00210565483485
 One-Electron (alpha) Energy = -4034.92801882385174
 One-Electron (beta)  Energy = -3997.34686906745401
 Total Coulomb        Energy = 2701.36505148911556
    3   -4921.4557397766      3.75e-03  
 Alpha HF Exchange    Energy = -19.02645627025068
 Beta HF Exchange     Energy = -18.86164104753268
 DFT Correlation      Energy =  -5.16152894282478
 DFT Exchange         Energy = -150.82542260272231
 One-Electron (alpha) Energy = -4045.82925103912658
 One-Electron (beta)  Energy = -4007.12629938870350
 Total Coulomb        Energy = 2723.09000508742247
    4   -4921.4704101281      3.27e-03  
 Alpha HF Exchange    Energy = -18.99319659152167
 Beta HF Exchange     Energy = -18.83465312729252
 DFT Correlation      Energy =  -5.14894192474709
 DFT Exchange         Energy = -150.56608086195604
 One-Electron (alpha) Energy = -4042.89140240018105
 One-Electron (beta)  Energy = -4004.53777668212479
 Total Coulomb        Energy = 2717.10824861429273
    5   -4921.5936188978      1.07e-03  
 Alpha HF Exchange    Energy = -18.98569855794343
 Beta HF Exchange     Energy = -18.82553766820311
 DFT Correlation      Energy =  -5.14801035802814
 DFT Exchange         Energy = -150.50625888979755
 One-Electron (alpha) Energy = -4042.04875012774346
 One-Electron (beta)  Energy = -4003.63329503803652
 Total Coulomb        Energy = 2715.27005291708929
    6   -4921.6073136470      7.58e-05  
 Alpha HF Exchange    Energy = -18.98477981076851
 Beta HF Exchange     Energy = -18.82485637454722
 DFT Correlation      Energy =  -5.14756073214827
 DFT Exchange         Energy = -150.49882771552384
 One-Electron (alpha) Energy = -4041.87053312771104
 One-Electron (beta)  Energy = -4003.46504015258370
 Total Coulomb        Energy = 2714.91401644414418
    7   -4921.6073973935      6.98e-05  
 Alpha HF Exchange    Energy = -18.98531742549259
 Beta HF Exchange     Energy = -18.82558465188068
 DFT Correlation      Energy =  -5.14768705039990
 DFT Exchange         Energy = -150.50355229798276
 One-Electron (alpha) Energy = -4041.96098363348028
 One-Electron (beta)  Energy = -4003.55653426813615
 Total Coulomb        Energy = 2715.10201078560704
    8   -4921.6074644661      2.80e-05  
 Alpha HF Exchange    Energy = -18.98540783655238
 Beta HF Exchange     Energy = -18.82568758587089
 DFT Correlation      Energy =  -5.14767321048086
 DFT Exchange         Energy = -150.50411284343568
 One-Electron (alpha) Energy = -4041.97229769340311
 One-Electron (beta)  Energy = -4003.56695097889678
 Total Coulomb        Energy = 2715.12446964171158
    9   -4921.6074764312      1.20e-05  
 Alpha HF Exchange    Energy = -18.98539058399746
 Beta HF Exchange     Energy = -18.82573440768596
 DFT Correlation      Energy =  -5.14768834227157
 DFT Exchange         Energy = -150.50418924225323
 One-Electron (alpha) Energy = -4041.96584424946559
 One-Electron (beta)  Energy = -4003.56424241192781
 Total Coulomb        Energy = 2715.11542612360608
   10   -4921.6074790383      5.16e-06  
 Alpha HF Exchange    Energy = -18.98537276855258
 Beta HF Exchange     Energy = -18.82573801790999
 DFT Correlation      Energy =  -5.14767075630915
 DFT Exchange         Energy = -150.50407674451006
 One-Electron (alpha) Energy = -4041.96282285284224
 One-Electron (beta)  Energy = -4003.56317113330260
 Total Coulomb        Energy = 2715.11118855751874
   11   -4921.6074796402      6.81e-07  Convergence criterion met
 ---------------------------------------
 SCF time:   CPU 54.54s  wall 4.00s 
<S^2> =          2.002882435
 Alpha HF Exchange    Energy = -18.98537276855258
 Beta HF Exchange     Energy = -18.82573801790999
 DFT Correlation      Energy =  -5.14767075630915
 DFT Exchange         Energy = -150.50407674451006
 One-Electron (alpha) Energy = -4041.96282285284224
 One-Electron (beta)  Energy = -4003.56317113330260
 Total Coulomb        Energy = 2715.11118855751874
 Nuclear repulsion Energy = 602.27018407568153
 SCF   energy in the final basis set =    -4921.6074796402
 Total energy in the final basis set =    -4921.6074796402
 
 --------------------------------------------------------------
 
                    Orbital Energies (a.u.)
 --------------------------------------------------------------
 
 Alpha MOs
 -- Occupied --
*******-453.889 -58.121 -58.083 -52.178 -52.177 -52.176 -52.142
-52.140 -52.137 -10.260 -10.207 -10.189  -7.855  -7.817  -5.799
 -5.796  -5.788  -5.763  -5.760  -5.747  -2.133  -2.132  -2.126
 -2.123  -2.122  -2.097  -2.096  -2.087  -2.084  -2.082  -0.824
 -0.749  -0.691  -0.641  -0.582  -0.470  -0.444  -0.423  -0.399
 -0.384  -0.361  -0.351  -0.321  -0.309  -0.278  -0.225  -0.223
 -- Virtual --
 -0.024   0.025   0.028   0.093   0.116   0.136   0.148   0.163
  0.169   0.198   0.199   0.229   0.248   0.264   0.280   0.305
  0.311   0.323   0.349   0.433   0.434   0.473   0.496   0.527
  0.546   0.572   0.585   0.596   0.616   0.650   0.683   0.712
  0.729   0.738   0.783   0.803   0.831   0.850   0.864   0.883
  0.903   0.921   0.933   0.949   1.006   1.051   1.102   1.332
  1.384   1.439   1.532   1.561   1.611   1.639   1.717   1.783
  1.825   1.860   1.928   1.957   1.957   1.958   2.036   2.055
  2.059   2.070   2.090   2.106   2.126   2.161   2.241   2.288
  2.355   2.419   2.476   2.527   2.586   2.614   2.676   2.713
  2.756   2.817   2.873   2.896   3.182   3.275   3.302   3.412
  3.457   3.522   4.174   4.236   4.241   4.260   4.288   4.304
  4.351   4.379   4.395   4.412   4.496   4.510   4.623   5.437
  5.477  89.679  89.833
 
 Beta MOs
 -- Occupied --
*******-453.887 -58.121 -58.082 -52.178 -52.177 -52.175 -52.140
-52.138 -52.136 -10.260 -10.207 -10.189  -7.854  -7.814  -5.799
 -5.795  -5.787  -5.759  -5.755  -5.746  -2.132  -2.131  -2.125
 -2.122  -2.121  -2.093  -2.092  -2.084  -2.081  -2.080  -0.822
 -0.745  -0.681  -0.629  -0.576  -0.470  -0.443  -0.419  -0.396
 -0.382  -0.360  -0.346  -0.316  -0.254  -0.213
 -- Virtual --
 -0.135  -0.034  -0.021   0.030   0.031   0.094   0.116   0.138
  0.149   0.164   0.170   0.200   0.201   0.231   0.253   0.265
  0.286   0.312   0.320   0.335   0.354   0.435   0.445   0.477
  0.504   0.540   0.556   0.587   0.591   0.604   0.624   0.654
  0.697   0.717   0.744   0.791   0.806   0.835   0.851   0.864
  0.883   0.905   0.923   0.936   0.950   0.954   1.007   1.051
  1.104   1.333   1.385   1.440   1.537   1.565   1.612   1.641
  1.719   1.784   1.825   1.860   1.928   2.036   2.055   2.059
  2.070   2.089   2.106   2.126   2.162   2.189   2.194   2.194
  2.241   2.288   2.355   2.419   2.476   2.527   2.587   2.614
  2.676   2.713   2.756   2.817   2.873   2.896   3.182   3.275
  3.302   3.412   3.457   3.522   4.174   4.245   4.246   4.268
  4.293   4.307   4.354   4.383   4.400   4.414   4.498   4.514
  4.623   5.444   5.486  89.683  89.835
 --------------------------------------------------------------
 
          Ground-State Mulliken Net Atomic Charges

     Atom                 Charge (a.u.)    Spin (a.u.)
  --------------------------------------------------------
      1 C                    -0.233063      -0.031390
      2 H                     0.155762       0.001624
      3 C                    -0.172472       0.002322
      4 H                     0.123181      -0.000558
      5 H                     0.117771      -0.000322
      6 C                    -0.328048      -0.000013
      7 H                     0.112624       0.000276
      8 H                     0.126467       0.000064
      9 H                     0.108885       0.000031
     10 Se                   -0.109463       0.824045
     11 H                     0.000739       0.998319
     12 Se                    0.020065       0.211510
     13 H                     0.077552      -0.005908
  --------------------------------------------------------
  Sum of atomic charges =     0.000000
  Sum of spin   charges =     2.000000

 -----------------------------------------------------------------
                    Cartesian Multipole Moments
 -----------------------------------------------------------------
    Charge (ESU x 10^10)
                -0.0000
    Dipole Moment (Debye)
         X       2.1107      Y       1.2029      Z       0.7648
       Tot       2.5469
    Quadrupole Moments (Debye-Ang)
        XX     -61.6177     XY       0.2814     YY     -54.3306
        XZ      -0.7445     YZ      -1.5088     ZZ     -58.4449
    Octopole Moments (Debye-Ang^2)
       XXX      -3.1291    XXY     -29.9270    XYY       2.1235
       YYY     -75.7414    XXZ      30.3818    XYZ      -0.8928
       YYZ      27.1214    XZZ       6.5126    YZZ     -24.7579
       ZZZ      79.6033
    Hexadecapole Moments (Debye-Ang^3)
      XXXX    -782.2780   XXXY     -91.6343   XXYY    -251.2857
      XYYY     -93.0232   YYYY    -736.1933   XXXZ     -28.6422
      XXYZ      -8.5720   XYYZ      -8.9625   YYYZ     -34.0125
      XXZZ    -182.7000   XYZZ     -26.7593   YYZZ    -163.3373
      XZZZ     -41.0032   YZZZ     -37.1319   ZZZZ    -247.5710
 -----------------------------------------------------------------
 Calculating analytic gradient of the SCF energy
 Gradient of SCF Energy
            1           2           3           4           5           6
    1   0.0008122   0.0000154   0.0001900   0.0000320  -0.0000487  -0.0000093
    2  -0.0002089  -0.0000242  -0.0000284   0.0000228   0.0000223  -0.0000269
    3   0.0004763  -0.0000241   0.0000232  -0.0000466  -0.0000087  -0.0000019
            7           8           9          10          11          12
    1   0.0000091  -0.0000068   0.0000241  -0.0007750  -0.0000060  -0.0000795
    2   0.0000015   0.0000043  -0.0000147  -0.0002803  -0.0000157  -0.0001335
    3  -0.0000139   0.0000146  -0.0000133  -0.0000530   0.0000011   0.0000199
           13
    1  -0.0001576
    2   0.0006817
    3  -0.0003735
 Max gradient component =       8.122E-04
 RMS gradient           =       2.436E-04
 Gradient time:  CPU 19.53 s  wall 1.72 s
 Geometry Optimization Parameters
   NAtoms,    NIC,     NZ,  NCons,   NDum,   NFix, NCnnct, MaxDiis
       13     102       0       1       0       0       0       0

 Cartesian Hessian Update
 Hessian Updated using BFGS Update


** CONSTRAINED OPTIMIZATION IN DELOCALIZED INTERNAL COORDINATES **
   Searching for a Minimum

   Optimization Cycle:   2

                       Coordinates (Angstroms)
     ATOM                X               Y               Z
      1  C         0.0255826388    1.0634925981   -0.7328640231
      2  H         0.1892880755    1.5266084893   -1.7084018111
      3  C         0.4399680242    1.9931880333    0.4031201952
      4  H        -0.2818931171    2.8206387028    0.4072920595
      5  H         0.3112109194    1.4759301172    1.3604350661
      6  C         1.8592054727    2.5566289059    0.2748655270
      7  H         2.0613600895    3.2637457970    1.0851082220
      8  H         2.6126105082    1.7649823065    0.3217465110
      9  H         1.9917441205    3.0894794470   -0.6731328215
     10  Se       -1.7908414869    0.3312043721   -0.6385515764
     11  H        -2.5466908404   -3.8453526720    0.0613769449
     12  Se        1.0581924154   -0.6440598579   -0.8604758107
     13  H         0.9024601800   -0.9475872394    0.5729815173
   Point Group: c1    Number of degrees of freedom:    33


   Energy is  -4921.607479640

              Constraints and their Current Values
                                        Value     Constraint
   Distance(Angs):       10  11             4.301725     4.300000
 Hessian Updated using BFGS Update

   Using Lagrange Multiplier Algorithm


 33 Hessian modes will be used to form the next step
  Hessian Eigenvalues:
    -0.999694    0.035380    0.138417    0.138418    0.145620    0.192358
     0.205683    0.222014    0.236118    0.239786    0.246900    0.253249
     0.256389    0.301286    0.325882    0.358768    0.411544    0.464839
     0.492147    0.492149    0.510015    0.531851    0.577722    0.676468
     0.898412    0.919281    1.000379    1.042605    1.050757    1.051379
     1.055882    1.057236    1.062982

 Minimum Search - Taking P-RFO Step
 Searching for Lamda that Maximizes Along the Constraint modes Only
 Value Taken    Lamda =   0.00000074
 Searching for Lamda that Minimizes Along All other modes
 Value Taken    Lamda =  -0.00001849
 Step Taken.  Stepsize is  0.004907

                             Maximum     Tolerance    Cnvgd?
         Gradient            0.003260       0.000300      NO
         Displacement        0.003259       0.001200      NO
         Energy change      0.000003       0.000001      NO


 New Cartesian Coordinates Obtained by Inverse Iteration

 Displacement from previous Coordinates is:  0.006992
 ----------------------------------------------------------------
             Standard Nuclear Orientation (Angstroms)
    I     Atom           X                Y                Z
 ----------------------------------------------------------------
    1      C       0.0257205273     1.0632856428    -0.7327905786
    2      H       0.1892791838     1.5263767608    -1.7083591623
    3      C       0.4398724668     1.9931589691     0.4031222399
    4      H      -0.2822633454     2.8203716407     0.4073727568
    5      H       0.3114055338     1.4758688047     1.3604596267
    6      C       1.8589306986     2.5570504825     0.2747230107
    7      H       2.0609679494     3.2642236428     1.0849475756
    8      H       2.6125878241     1.7656279204     0.3214910170
    9      H       1.9911704785     3.0899510801    -0.6732871159
   10      Se     -1.7900800034     0.3309567887    -0.6380982093
   11      H      -2.5476821228    -3.8436686411     0.0608594261
   12      Se      1.0587418686    -0.6445336602    -0.8602249422
   13      H       0.9035459405    -0.9497704312     0.5732843554
 ----------------------------------------------------------------
 Nuclear Repulsion Energy =   602.2795845189 hartrees
 There are       48 alpha and       46 beta electrons

                       Distance Matrix (Angstroms)
             C (  1)   H (  2)   C (  3)   H (  4)   H (  5)   C (  6)
   H (  2)  1.092217
   C (  3)  1.525282  2.176933
   H (  4)  2.117115  2.524499  1.098080
   H (  5)  2.152565  3.071663  1.095713  1.751715
   C (  6)  2.570423  2.789738  1.532379  2.161399  2.177754
   H (  7)  3.505786  3.784956  2.169894  2.479283  2.516960  1.094247
   H (  8)  2.880395  3.170167  2.186121  3.082211  2.541428  1.093863
   H (  9)  2.823811  2.600567  2.183606  2.531600  3.092410  1.095533
   Se( 10)  1.960205  2.548009  2.969805  3.092524  3.117900  4.370814
   H ( 11)  5.597364  6.281598  6.565911  7.047101  6.177445  7.773878
   Se( 12)  2.000005  2.487599  2.989393  3.925642  3.160072  3.489778
   H ( 13)  2.555152  3.442002  2.984088  3.955710  2.618015  3.646874
             H (  7)   H (  8)   H (  9)   Se( 10)   H ( 11)   Se( 12)
   H (  8)  1.770011
   H (  9)  1.768228  1.769060
   Se( 10)  5.138435  4.728909  4.680934
   H ( 11)  8.532910  7.626305  8.319569  4.300000
   Se( 12)  4.479569  3.101575  3.853666  3.019389  4.908070
   H ( 13)  4.399906  3.218324  4.365343  3.219213  4.533012  1.473840

 
 Applying Cartesian multipole field
    Component          Value
    ---------          -----
     (2,0,0)        1.00000E-11
     (0,2,0)        2.00000E-11
     (0,0,2)       -3.00000E-11
 Nucleus-field energy     =     0.0000000114 hartrees
 Requested basis set is 6-31G(d,p)
 There are 52 shells and 155 basis functions
 A cutoff of  1.0D-14 yielded   1200 shell pairs
 There are     10893 function pairs
 Smallest overlap matrix eigenvalue = 6.74E-04
 Guess from superposition of atomic densities
 Warning:  Energy on first SCF cycle will be non-variational
 SAD guess density has 93.936381 electrons

 -----------------------------------------------------------------------
  General SCF calculation program by
  Eric Jon Sundstrom, Paul Horn, Yuezhi Mao, Dmitri Zuev, Alec White,
  David Stuck, Shaama M.S., Shane Yost, Joonho Lee, David Small,
  Daniel Levine, Susi Lehtola, Hugh Burton, Evgeny Epifanovsky
 -----------------------------------------------------------------------
 Exchange:     0.2000 Hartree-Fock + 0.0800 Slater + 0.7200 B88
 Correlation:  0.1900 VWN1RPA + 0.8100 LYP
 Using SG-1 standard quadrature grid
 using 12 threads for integral computing
 -------------------------------------------------------
 OpenMP Integral computing Module                
 Release: version 1.0, May 2013, Q-Chem Inc. Pittsburgh 
 -------------------------------------------------------
 -------------------------------------------------------
 OpenMP BLAS3 based DFT computing Module                
 Release: version 1.0, May 2013, Q-Chem Inc. Pittsburgh 
 -------------------------------------------------------
 A unrestricted SCF calculation will be
 performed using DIIS
 SCF converges when DIIS error is below 1.0e-06
 Alpha HF Exchange    Energy = -18.85767165132751
 Beta HF Exchange     Energy = -18.85767165132751
 DFT Correlation      Energy =  -5.13383567100221
 DFT Exchange         Energy = -149.86738804330980
 One-Electron (alpha) Energy = -4019.89897698726236
 One-Electron (beta)  Energy = -4019.89897698726236
 Total Coulomb        Energy = 2702.40254880153543
 ---------------------------------------
  Cycle       Energy         DIIS error
 ---------------------------------------
    1   -4927.8323876597      1.50e-01  
 Alpha HF Exchange    Energy = -19.04764633579590
 Beta HF Exchange     Energy = -18.88278322142831
 DFT Correlation      Energy =  -5.16864743908560
 DFT Exchange         Energy = -151.00399431697844
 One-Electron (alpha) Energy = -4048.90107626741337
 One-Electron (beta)  Energy = -4010.08489467924073
 Total Coulomb        Energy = 2729.34713238143195
    2   -4921.4623253482      9.32e-03  
 Alpha HF Exchange    Energy = -18.91898038971173
 Beta HF Exchange     Energy = -18.76721448446525
 DFT Correlation      Energy =  -5.12775311291150
 DFT Exchange         Energy = -150.00200528719816
 One-Electron (alpha) Energy = -4034.93775820503060
 One-Electron (beta)  Energy = -3997.35305558684740
 Total Coulomb        Energy = 2701.37145390787009
    3   -4921.4557286280      3.75e-03  
 Alpha HF Exchange    Energy = -19.02645771912725
 Beta HF Exchange     Energy = -18.86164245183127
 DFT Correlation      Energy =  -5.16152927326598
 DFT Exchange         Energy = -150.82544132323198
 One-Electron (alpha) Energy = -4045.84146226319035
 One-Electron (beta)  Energy = -4007.13588990672633
 Total Coulomb        Energy = 2723.10242669481340
    4   -4921.4704117123      3.27e-03  
 Alpha HF Exchange    Energy = -18.99319178558081
 Beta HF Exchange     Energy = -18.83464334249140
 DFT Correlation      Energy =  -5.14893676993591
 DFT Exchange         Energy = -150.56602287357060
 One-Electron (alpha) Energy = -4042.90258837462670
 One-Electron (beta)  Energy = -4004.54548726835537
 Total Coulomb        Energy = 2717.11767067053415
    5   -4921.5936152138      1.07e-03  
 Alpha HF Exchange    Energy = -18.98569399877007
 Beta HF Exchange     Energy = -18.82553174771110
 DFT Correlation      Energy =  -5.14800680540409
 DFT Exchange         Energy = -150.50622049738195
 One-Electron (alpha) Energy = -4042.05991750315297
 One-Electron (beta)  Energy = -4003.64125890461219
 Total Coulomb        Energy = 2715.27972741617396
    6   -4921.6073175106      7.58e-05  
 Alpha HF Exchange    Energy = -18.98477443720909
 Beta HF Exchange     Energy = -18.82484936238856
 DFT Correlation      Energy =  -5.14755665269985
 DFT Exchange         Energy = -150.49878156838136
 One-Electron (alpha) Energy = -4041.88159142784934
 One-Electron (beta)  Energy = -4003.47289438544703
 Total Coulomb        Energy = 2714.92346217660861
    7   -4921.6074011271      6.98e-05  
 Alpha HF Exchange    Energy = -18.98531215040653
 Beta HF Exchange     Energy = -18.82557794559648
 DFT Correlation      Energy =  -5.14768311898122
 DFT Exchange         Energy = -150.50350769137836
 One-Electron (alpha) Energy = -4041.97206816150720
 One-Electron (beta)  Energy = -4003.56441571577807
 Total Coulomb        Energy = 2715.11151196845731
    8   -4921.6074682849      2.80e-05  
 Alpha HF Exchange    Energy = -18.98540269084824
 Beta HF Exchange     Energy = -18.82568100356354
 DFT Correlation      Energy =  -5.14766935355220
 DFT Exchange         Energy = -150.50406938358992
 One-Electron (alpha) Energy = -4041.98340032984106
 One-Electron (beta)  Energy = -4003.57485039826952
 Total Coulomb        Energy = 2715.13400838639973
    9   -4921.6074802430      1.20e-05  
 Alpha HF Exchange    Energy = -18.98538538057798
 Beta HF Exchange     Energy = -18.82572771886674
 DFT Correlation      Energy =  -5.14768443644255
 DFT Exchange         Energy = -150.50414508935859
 One-Electron (alpha) Energy = -4041.97693823005648
 One-Electron (beta)  Energy = -4003.57213226480781
 Total Coulomb        Energy = 2715.12494574549692
   10   -4921.6074828443      5.15e-06  
 Alpha HF Exchange    Energy = -18.98536759712542
 Beta HF Exchange     Energy = -18.82573135764743
 DFT Correlation      Energy =  -5.14766686432731
 DFT Exchange         Energy = -150.50403285034793
 One-Electron (alpha) Energy = -4041.97392096492649
 One-Electron (beta)  Energy = -4003.57106645293788
 Total Coulomb        Energy = 2715.12071811193891
   11   -4921.6074834451      6.80e-07  Convergence criterion met
 ---------------------------------------
 SCF time:   CPU 53.75s  wall 4.00s 
<S^2> =          2.002884373
 Alpha HF Exchange    Energy = -18.98536759712542
 Beta HF Exchange     Energy = -18.82573135764743
 DFT Correlation      Energy =  -5.14766686432731
 DFT Exchange         Energy = -150.50403285034793
 One-Electron (alpha) Energy = -4041.97392096492649
 One-Electron (beta)  Energy = -4003.57106645293788
 Total Coulomb        Energy = 2715.12071811193891
 Nuclear repulsion Energy = 602.27958453026861
 SCF   energy in the final basis set =    -4921.6074834451
 Total energy in the final basis set =    -4921.6074834451
 
 --------------------------------------------------------------
 
                    Orbital Energies (a.u.)
 --------------------------------------------------------------
 
 Alpha MOs
 -- Occupied --
*******-453.889 -58.121 -58.083 -52.178 -52.177 -52.176 -52.142
-52.140 -52.137 -10.260 -10.207 -10.189  -7.855  -7.817  -5.799
 -5.796  -5.788  -5.763  -5.760  -5.747  -2.133  -2.132  -2.126
 -2.123  -2.122  -2.097  -2.096  -2.087  -2.084  -2.082  -0.824
 -0.749  -0.691  -0.641  -0.582  -0.470  -0.444  -0.423  -0.399
 -0.384  -0.361  -0.351  -0.321  -0.309  -0.278  -0.225  -0.223
 -- Virtual --
 -0.024   0.025   0.028   0.093   0.116   0.136   0.148   0.163
  0.169   0.198   0.199   0.229   0.248   0.264   0.280   0.305
  0.311   0.323   0.349   0.433   0.434   0.473   0.496   0.527
  0.546   0.572   0.585   0.596   0.616   0.650   0.683   0.712
  0.729   0.738   0.783   0.803   0.831   0.850   0.864   0.883
  0.903   0.921   0.933   0.949   1.006   1.051   1.102   1.332
  1.384   1.439   1.532   1.561   1.611   1.639   1.717   1.783
  1.825   1.860   1.928   1.957   1.957   1.958   2.036   2.055
  2.059   2.070   2.090   2.106   2.126   2.161   2.241   2.288
  2.355   2.419   2.476   2.527   2.586   2.614   2.676   2.713
  2.756   2.817   2.873   2.896   3.182   3.274   3.302   3.412
  3.457   3.522   4.174   4.236   4.241   4.260   4.288   4.304
  4.351   4.379   4.395   4.412   4.496   4.510   4.623   5.437
  5.477  89.679  89.833
 
 Beta MOs
 -- Occupied --
*******-453.887 -58.121 -58.082 -52.178 -52.177 -52.175 -52.140
-52.138 -52.136 -10.260 -10.207 -10.189  -7.854  -7.814  -5.799
 -5.795  -5.787  -5.759  -5.755  -5.746  -2.132  -2.131  -2.125
 -2.122  -2.121  -2.093  -2.092  -2.084  -2.081  -2.080  -0.822
 -0.745  -0.681  -0.629  -0.576  -0.470  -0.443  -0.419  -0.397
 -0.382  -0.360  -0.346  -0.316  -0.254  -0.213
 -- Virtual --
 -0.135  -0.034  -0.021   0.030   0.032   0.094   0.116   0.138
  0.149   0.164   0.170   0.200   0.201   0.231   0.253   0.265
  0.286   0.312   0.320   0.335   0.354   0.435   0.445   0.477
  0.504   0.540   0.556   0.587   0.591   0.604   0.624   0.654
  0.697   0.717   0.744   0.791   0.806   0.835   0.851   0.864
  0.883   0.905   0.923   0.936   0.950   0.954   1.007   1.051
  1.104   1.333   1.385   1.440   1.537   1.565   1.612   1.641
  1.719   1.784   1.825   1.860   1.928   2.036   2.055   2.059
  2.070   2.089   2.106   2.126   2.162   2.189   2.194   2.194
  2.241   2.288   2.355   2.419   2.476   2.527   2.586   2.614
  2.676   2.713   2.756   2.817   2.873   2.896   3.182   3.274
  3.302   3.412   3.457   3.522   4.174   4.245   4.246   4.268
  4.293   4.307   4.354   4.383   4.400   4.414   4.498   4.514
  4.623   5.444   5.486  89.683  89.835
 --------------------------------------------------------------
 
          Ground-State Mulliken Net Atomic Charges

     Atom                 Charge (a.u.)    Spin (a.u.)
  --------------------------------------------------------
      1 C                    -0.232991      -0.031398
      2 H                     0.155787       0.001627
      3 C                    -0.172443       0.002328
      4 H                     0.123175      -0.000559
      5 H                     0.117790      -0.000322
      6 C                    -0.328061      -0.000011
      7 H                     0.112618       0.000276
      8 H                     0.126467       0.000065
      9 H                     0.108872       0.000031
     10 Se                   -0.109470       0.823958
     11 H                     0.000742       0.998314
     12 Se                    0.019980       0.211602
     13 H                     0.077534      -0.005911
  --------------------------------------------------------
  Sum of atomic charges =     0.000000
  Sum of spin   charges =     2.000000

 -----------------------------------------------------------------
                    Cartesian Multipole Moments
 -----------------------------------------------------------------
    Charge (ESU x 10^10)
                 0.0000
    Dipole Moment (Debye)
         X       2.1096      Y       1.2028      Z       0.7650
       Tot       2.5460
    Quadrupole Moments (Debye-Ang)
        XX     -61.6177     XY       0.2788     YY     -54.3285
        XZ      -0.7422     YZ      -1.5129     ZZ     -58.4459
    Octopole Moments (Debye-Ang^2)
       XXX      -3.1999    XXY     -29.9185    XYY       2.0989
       YYY     -75.7128    XXZ      30.3722    XYZ      -0.8939
       YYZ      27.1127    XZZ       6.4855    YZZ     -24.7418
       ZZZ      79.5693
    Hexadecapole Moments (Debye-Ang^3)
      XXXX    -782.1228   XXXY     -91.6219   XXYY    -251.2638
      XYYY     -93.0188   YYYY    -736.2420   XXXZ     -28.5575
      XXYZ      -8.5906   XYYZ      -8.9264   YYYZ     -34.0549
      XXZZ    -182.6477   XYZZ     -26.7576   YYZZ    -163.3254
      XZZZ     -40.8986   YZZZ     -37.1785   ZZZZ    -247.4605
 -----------------------------------------------------------------
 Calculating analytic gradient of the SCF energy
 Gradient of SCF Energy
            1           2           3           4           5           6
    1   0.0006938  -0.0000253   0.0001403   0.0000324  -0.0000457  -0.0000041
    2  -0.0001846   0.0000060  -0.0000277   0.0000233   0.0000205  -0.0000274
    3   0.0003876  -0.0000116   0.0000123  -0.0000410  -0.0000055  -0.0000032
            7           8           9          10          11          12
    1   0.0000081  -0.0000043   0.0000215  -0.0006126  -0.0000059  -0.0000696
    2   0.0000023   0.0000037  -0.0000165  -0.0002037  -0.0000154  -0.0001673
    3  -0.0000130   0.0000140  -0.0000127  -0.0000508   0.0000009  -0.0000050
           13
    1  -0.0001289
    2   0.0005868
    3  -0.0002721
 Max gradient component =       6.938E-04
 RMS gradient           =       2.014E-04
 Gradient time:  CPU 19.98 s  wall 1.75 s
 Geometry Optimization Parameters
   NAtoms,    NIC,     NZ,  NCons,   NDum,   NFix, NCnnct, MaxDiis
       13     102       0       1       0       0       0       0

 Cartesian Hessian Update
 Hessian Updated using BFGS Update


** CONSTRAINED OPTIMIZATION IN DELOCALIZED INTERNAL COORDINATES **
   Searching for a Minimum

   Optimization Cycle:   3

                       Coordinates (Angstroms)
     ATOM                X               Y               Z
      1  C         0.0257205273    1.0632856428   -0.7327905786
      2  H         0.1892791838    1.5263767608   -1.7083591623
      3  C         0.4398724668    1.9931589691    0.4031222399
      4  H        -0.2822633454    2.8203716407    0.4073727568
      5  H         0.3114055338    1.4758688047    1.3604596267
      6  C         1.8589306986    2.5570504825    0.2747230107
      7  H         2.0609679494    3.2642236428    1.0849475756
      8  H         2.6125878241    1.7656279204    0.3214910170
      9  H         1.9911704785    3.0899510801   -0.6732871159
     10  Se       -1.7900800034    0.3309567887   -0.6380982093
     11  H        -2.5476821228   -3.8436686411    0.0608594261
     12  Se        1.0587418686   -0.6445336602   -0.8602249422
     13  H         0.9035459405   -0.9497704312    0.5732843554
   Point Group: c1    Number of degrees of freedom:    33


   Energy is  -4921.607483445

              Constraints and their Current Values
                                        Value     Constraint
   Distance(Angs):       10  11             4.300000     4.300000
 Hessian Updated using BFGS Update

 32 Hessian modes will be used to form the next step
  Hessian Eigenvalues:
     0.032146    0.065885    0.138417    0.139919    0.154478    0.194886
     0.205752    0.224518    0.236447    0.239788    0.253248    0.256388
     0.294071    0.309316    0.325892    0.411554    0.461397    0.465209
     0.492149    0.492161    0.492363    0.522711    0.532155    0.675787
     0.898392    0.919239    1.042602    1.050769    1.051380    1.055883
     1.057193    1.062972

 Minimum Search - Taking Simple RFO Step
 Searching for Lamda that Minimizes Along All modes
 Value Taken    Lamda =  -0.00001696
 Step Taken.  Stepsize is  0.017239

                             Maximum     Tolerance    Cnvgd?
         Gradient           0.000462      0.000300      NO
         Displacement       0.009287      0.001200      NO
         Energy change     -0.000004      0.000001      NO


 New Cartesian Coordinates Obtained by Inverse Iteration

 Displacement from previous Coordinates is:  0.026303
 ----------------------------------------------------------------
             Standard Nuclear Orientation (Angstroms)
    I     Atom           X                Y                Z
 ----------------------------------------------------------------
    1      C       0.0260565842     1.0634719027    -0.7326981695
    2      H       0.1899142938     1.5261052989    -1.7084155537
    3      C       0.4395126767     1.9938952276     0.4030059055
    4      H      -0.2833476994     2.8204864733     0.4074180891
    5      H       0.3117965691     1.4765427400     1.3604054663
    6      C       1.8581631522     2.5588902930     0.2743136282
    7      H       2.0599556008     3.2661539523     1.0845246856
    8      H       2.6123961397     1.7679510580     0.3207331878
    9      H       1.9896642850     3.0919607718    -0.6736987572
   10      Se     -1.7873522252     0.3322036914    -0.6366368444
   11      H      -2.5513070341    -3.8416824211     0.0598170282
   12      Se      1.0599141622    -0.6462007635    -0.8593130452
   13      H       0.9068304950    -0.9608792243     0.5740443793
 ----------------------------------------------------------------
 Nuclear Repulsion Energy =   602.3079779425 hartrees
 There are       48 alpha and       46 beta electrons

                       Distance Matrix (Angstroms)
             C (  1)   H (  2)   C (  3)   H (  4)   H (  5)   C (  6)
   H (  2)  1.092201
   C (  3)  1.525273  2.176977
   H (  4)  2.117238  2.525104  1.098089
   H (  5)  2.152524  3.071640  1.095709  1.751732
   C (  6)  2.570401  2.789429  1.532433  2.161531  2.177687
   H (  7)  3.505831  3.784883  2.170010  2.479549  2.516918  1.094250
   H (  8)  2.880132  3.169283  2.186148  3.082317  2.541377  1.093895
   H (  9)  2.823828  2.600316  2.183578  2.531619  3.092312  1.095529
   Se( 10)  1.957660  2.546310  2.966648  3.089277  3.115143  4.367808
   H ( 11)  5.597448  6.281249  6.566334  7.046202  6.178383  7.775395
   Se( 12)  2.001967  2.489335  2.991397  3.927707  3.161150  3.492123
   H ( 13)  2.565412  3.450896  2.996387  3.967747  2.629345  3.658367
             H (  7)   H (  8)   H (  9)   Se( 10)   H ( 11)   Se( 12)
   H (  8)  1.770079
   H (  9)  1.768229  1.769093
   Se( 10)  5.135391  4.726067  4.677979
   H ( 11)  8.534349  7.628886  8.320690  4.300000
   Se( 12)  4.481641  3.103359  3.856519  3.018905  4.908851
   H ( 13)  4.411133  3.227946  4.376632  3.224350  4.530140  1.475456

 
 Applying Cartesian multipole field
    Component          Value
    ---------          -----
     (2,0,0)        1.00000E-11
     (0,2,0)        2.00000E-11
     (0,0,2)       -3.00000E-11
 Nucleus-field energy     =     0.0000000114 hartrees
 Requested basis set is 6-31G(d,p)
 There are 52 shells and 155 basis functions
 A cutoff of  1.0D-14 yielded   1200 shell pairs
 There are     10893 function pairs
 Smallest overlap matrix eigenvalue = 6.74E-04
 Guess from superposition of atomic densities
 Warning:  Energy on first SCF cycle will be non-variational
 SAD guess density has 93.936381 electrons

 -----------------------------------------------------------------------
  General SCF calculation program by
  Eric Jon Sundstrom, Paul Horn, Yuezhi Mao, Dmitri Zuev, Alec White,
  David Stuck, Shaama M.S., Shane Yost, Joonho Lee, David Small,
  Daniel Levine, Susi Lehtola, Hugh Burton, Evgeny Epifanovsky
 -----------------------------------------------------------------------
 Exchange:     0.2000 Hartree-Fock + 0.0800 Slater + 0.7200 B88
 Correlation:  0.1900 VWN1RPA + 0.8100 LYP
 Using SG-1 standard quadrature grid
 using 12 threads for integral computing
 -------------------------------------------------------
 OpenMP Integral computing Module                
 Release: version 1.0, May 2013, Q-Chem Inc. Pittsburgh 
 -------------------------------------------------------
 -------------------------------------------------------
 OpenMP BLAS3 based DFT computing Module                
 Release: version 1.0, May 2013, Q-Chem Inc. Pittsburgh 
 -------------------------------------------------------
 A unrestricted SCF calculation will be
 performed using DIIS
 SCF converges when DIIS error is below 1.0e-06
 Alpha HF Exchange    Energy = -18.85761740863453
 Beta HF Exchange     Energy = -18.85761740863453
 DFT Correlation      Energy =  -5.13380868364227
 DFT Exchange         Energy = -149.86728027186498
 One-Electron (alpha) Energy = -4019.92783747854855
 One-Electron (beta)  Energy = -4019.92783747854855
 Total Coulomb        Energy = 2702.43189451890566
 ---------------------------------------
  Cycle       Energy         DIIS error
 ---------------------------------------
    1   -4927.8321262571      1.50e-01  
 Alpha HF Exchange    Energy = -19.04762866230552
 Beta HF Exchange     Energy = -18.88277238080670
 DFT Correlation      Energy =  -5.16863196700313
 DFT Exchange         Energy = -151.00387576931809
 One-Electron (alpha) Energy = -4048.93423932075893
 One-Electron (beta)  Energy = -4010.11793634190644
 Total Coulomb        Energy = 2729.38478910765207
    2   -4921.4623173805      9.32e-03  
 Alpha HF Exchange    Energy = -18.91893095036856
 Beta HF Exchange     Energy = -18.76714314113765
 DFT Correlation      Energy =  -5.12771401631706
 DFT Exchange         Energy = -150.00155087390425
 One-Electron (alpha) Energy = -4034.96142351208982
 One-Electron (beta)  Energy = -3997.37291743846845
 Total Coulomb        Energy = 2701.38599337984169
    3   -4921.4557085985      3.75e-03  
 Alpha HF Exchange    Energy = -19.02646557237335
 Beta HF Exchange     Energy = -18.86165112144563
 DFT Correlation      Energy =  -5.16152614195256
 DFT Exchange         Energy = -150.82554169143077
 One-Electron (alpha) Energy = -4045.87703291935486
 One-Electron (beta)  Energy = -4007.17158592865735
 Total Coulomb        Energy = 2723.14535267850579
    4   -4921.4704727428      3.27e-03  
 Alpha HF Exchange    Energy = -18.99316454132529
 Beta HF Exchange     Energy = -18.83459538683621
 DFT Correlation      Energy =  -5.14890704682202
 DFT Exchange         Energy = -150.56572438874247
 One-Electron (alpha) Energy = -4042.93260273311716
 One-Electron (beta)  Energy = -4004.57171378415251
 Total Coulomb        Energy = 2717.14513479788411
    5   -4921.5935951292      1.07e-03  
 Alpha HF Exchange    Energy = -18.98567202512993
 Beta HF Exchange     Energy = -18.82550617332633
 DFT Correlation      Energy =  -5.14798558572939
 DFT Exchange         Energy = -150.50604701855070
 One-Electron (alpha) Energy = -4042.09029335793775
 One-Electron (beta)  Energy = -4003.66911966396265
 Total Coulomb        Energy = 2715.30931918626266
    6   -4921.6073266845      7.59e-05  
 Alpha HF Exchange    Energy = -18.98474836473562
 Beta HF Exchange     Energy = -18.82481846075686
 DFT Correlation      Energy =  -5.14753309196632
 DFT Exchange         Energy = -150.49857049039258
 One-Electron (alpha) Energy = -4041.91145118833992
 One-Electron (beta)  Energy = -4003.50023890323928
 Total Coulomb        Energy = 2714.95197287531300
    7   -4921.6074096702      6.99e-05  
 Alpha HF Exchange    Energy = -18.98528636186454
 Beta HF Exchange     Energy = -18.82554813377790
 DFT Correlation      Energy =  -5.14766015210347
 DFT Exchange         Energy = -150.50330164390874
 One-Electron (alpha) Energy = -4042.00202983373174
 One-Electron (beta)  Energy = -4003.59185410817008
 Total Coulomb        Energy = 2715.14022512000975
    8   -4921.6074771596      2.79e-05  
 Alpha HF Exchange    Energy = -18.98537742979899
 Beta HF Exchange     Energy = -18.82565166970043
 DFT Correlation      Energy =  -5.14764675025136
 DFT Exchange         Energy = -150.50386811216740
 One-Electron (alpha) Energy = -4042.01343021912498
 One-Electron (beta)  Energy = -4003.60235436283165
 Total Coulomb        Energy = 2715.16286151436952
    9   -4921.6074890756      1.19e-05  
 Alpha HF Exchange    Energy = -18.98535988866344
 Beta HF Exchange     Energy = -18.82569790663413
 DFT Correlation      Energy =  -5.14766161791613
 DFT Exchange         Energy = -150.50394082211454
 One-Electron (alpha) Energy = -4042.00693699977046
 One-Electron (beta)  Energy = -4003.59959786392074
 Total Coulomb        Energy = 2715.15372549636322
   10   -4921.6074916488      5.13e-06  
 Alpha HF Exchange    Energy = -18.98534226437526
 Beta HF Exchange     Energy = -18.82570167729693
 DFT Correlation      Energy =  -5.14764411844352
 DFT Exchange         Energy = -150.50382983985773
 One-Electron (alpha) Energy = -4042.00394041943127
 One-Electron (beta)  Energy = -4003.59855750027646
 Total Coulomb        Energy = 2715.14954562185085
   11   -4921.6074922439      6.76e-07  Convergence criterion met
 ---------------------------------------
 SCF time:   CPU 53.97s  wall 5.00s 
<S^2> =          2.002892580
 Alpha HF Exchange    Energy = -18.98534226437526
 Beta HF Exchange     Energy = -18.82570167729693
 DFT Correlation      Energy =  -5.14764411844352
 DFT Exchange         Energy = -150.50382983985773
 One-Electron (alpha) Energy = -4042.00394041943127
 One-Electron (beta)  Energy = -4003.59855750027646
 Total Coulomb        Energy = 2715.14954562185085
 Nuclear repulsion Energy = 602.30797795389879
 SCF   energy in the final basis set =    -4921.6074922439
 Total energy in the final basis set =    -4921.6074922439
 
 --------------------------------------------------------------
 
                    Orbital Energies (a.u.)
 --------------------------------------------------------------
 
 Alpha MOs
 -- Occupied --
*******-453.889 -58.121 -58.083 -52.178 -52.177 -52.176 -52.142
-52.140 -52.137 -10.260 -10.207 -10.189  -7.855  -7.817  -5.799
 -5.796  -5.788  -5.763  -5.759  -5.747  -2.133  -2.132  -2.126
 -2.123  -2.122  -2.097  -2.096  -2.087  -2.084  -2.082  -0.824
 -0.749  -0.691  -0.641  -0.582  -0.470  -0.444  -0.423  -0.399
 -0.384  -0.361  -0.351  -0.321  -0.309  -0.278  -0.225  -0.223
 -- Virtual --
 -0.024   0.025   0.027   0.093   0.116   0.136   0.148   0.163
  0.169   0.198   0.199   0.229   0.248   0.264   0.281   0.305
  0.311   0.323   0.349   0.433   0.434   0.473   0.496   0.527
  0.546   0.572   0.585   0.596   0.616   0.650   0.683   0.712
  0.729   0.738   0.784   0.803   0.831   0.851   0.864   0.883
  0.904   0.921   0.933   0.949   1.005   1.049   1.102   1.332
  1.384   1.439   1.532   1.561   1.611   1.639   1.717   1.783
  1.825   1.860   1.928   1.957   1.957   1.958   2.036   2.055
  2.059   2.069   2.090   2.106   2.125   2.162   2.241   2.288
  2.355   2.420   2.476   2.527   2.586   2.613   2.676   2.713
  2.756   2.817   2.873   2.896   3.182   3.274   3.302   3.412
  3.457   3.522   4.174   4.236   4.241   4.260   4.288   4.304
  4.351   4.379   4.395   4.412   4.497   4.510   4.623   5.436
  5.477  89.679  89.833
 
 Beta MOs
 -- Occupied --
*******-453.887 -58.121 -58.082 -52.178 -52.177 -52.175 -52.140
-52.138 -52.136 -10.260 -10.207 -10.189  -7.854  -7.814  -5.799
 -5.795  -5.787  -5.759  -5.755  -5.746  -2.132  -2.131  -2.125
 -2.122  -2.121  -2.093  -2.092  -2.084  -2.081  -2.080  -0.822
 -0.745  -0.681  -0.629  -0.576  -0.470  -0.443  -0.419  -0.397
 -0.382  -0.360  -0.346  -0.316  -0.254  -0.213
 -- Virtual --
 -0.135  -0.034  -0.021   0.029   0.032   0.094   0.116   0.138
  0.149   0.164   0.170   0.200   0.202   0.231   0.253   0.265
  0.286   0.312   0.320   0.335   0.354   0.435   0.445   0.477
  0.504   0.540   0.556   0.587   0.591   0.604   0.625   0.654
  0.697   0.717   0.744   0.791   0.806   0.835   0.852   0.864
  0.883   0.905   0.923   0.935   0.950   0.954   1.007   1.050
  1.104   1.332   1.385   1.440   1.537   1.565   1.612   1.641
  1.720   1.783   1.825   1.861   1.928   2.036   2.055   2.059
  2.069   2.090   2.106   2.125   2.162   2.189   2.194   2.194
  2.241   2.288   2.355   2.420   2.476   2.527   2.586   2.613
  2.676   2.713   2.756   2.817   2.873   2.896   3.182   3.274
  3.302   3.412   3.457   3.522   4.174   4.244   4.246   4.268
  4.294   4.307   4.353   4.383   4.400   4.414   4.499   4.514
  4.623   5.443   5.486  89.682  89.835
 --------------------------------------------------------------
 
          Ground-State Mulliken Net Atomic Charges

     Atom                 Charge (a.u.)    Spin (a.u.)
  --------------------------------------------------------
      1 C                    -0.232622      -0.031445
      2 H                     0.155898       0.001639
      3 C                    -0.172286       0.002357
      4 H                     0.123141      -0.000559
      5 H                     0.117900      -0.000326
      6 C                    -0.328139      -0.000005
      7 H                     0.112591       0.000277
      8 H                     0.126472       0.000070
      9 H                     0.108808       0.000030
     10 Se                   -0.109454       0.823544
     11 H                     0.000745       0.998316
     12 Se                    0.019505       0.212024
     13 H                     0.077441      -0.005923
  --------------------------------------------------------
  Sum of atomic charges =    -0.000000
  Sum of spin   charges =     2.000000

 -----------------------------------------------------------------
                    Cartesian Multipole Moments
 -----------------------------------------------------------------
    Charge (ESU x 10^10)
                 0.0000
    Dipole Moment (Debye)
         X       2.1050      Y       1.2005      Z       0.7672
       Tot       2.5418
    Quadrupole Moments (Debye-Ang)
        XX     -61.6214     XY       0.2730     YY     -54.3158
        XZ      -0.7345     YZ      -1.5323     ZZ     -58.4536
    Octopole Moments (Debye-Ang^2)
       XXX      -3.4180    XXY     -29.9333    XYY       2.0292
       YYY     -75.7442    XXZ      30.3414    XYZ      -0.9045
       YYZ      27.0890    XZZ       6.3985    YZZ     -24.7238
       ZZZ      79.4688
    Hexadecapole Moments (Debye-Ang^3)
      XXXX    -781.4345   XXXY     -91.4542   XXYY    -251.2940
      XYYY     -92.9029   YYYY    -737.0895   XXXZ     -28.3062
      XXYZ      -8.6265   XYYZ      -8.8115   YYYZ     -34.1179
      XXZZ    -182.4461   XYZZ     -26.6925   YYZZ    -163.4073
      XZZZ     -40.5659   YZZZ     -37.2580   ZZZZ    -247.1233
 -----------------------------------------------------------------
 Calculating analytic gradient of the SCF energy
 Gradient of SCF Energy
            1           2           3           4           5           6
    1   0.0001018  -0.0001810  -0.0000818   0.0000301  -0.0000290   0.0000209
    2  -0.0000580   0.0001277  -0.0000292   0.0000236   0.0000149  -0.0000255
    3  -0.0000671   0.0000435  -0.0000242  -0.0000174   0.0000075  -0.0000047
            7           8           9          10          11          12
    1   0.0000039   0.0000070   0.0000106   0.0001468  -0.0000056  -0.0000500
    2   0.0000059  -0.0000027  -0.0000236   0.0001495  -0.0000151  -0.0002738
    3  -0.0000106   0.0000105  -0.0000105  -0.0000301   0.0000006  -0.0000804
           13
    1   0.0000263
    2   0.0001062
    3   0.0001828
 Max gradient component =       2.738E-04
 RMS gradient           =       8.114E-05
 Gradient time:  CPU 19.49 s  wall 1.71 s
 Geometry Optimization Parameters
   NAtoms,    NIC,     NZ,  NCons,   NDum,   NFix, NCnnct, MaxDiis
       13     102       0       1       0       0       0       0

 Cartesian Hessian Update
 Hessian Updated using BFGS Update


** CONSTRAINED OPTIMIZATION IN DELOCALIZED INTERNAL COORDINATES **
   Searching for a Minimum

   Optimization Cycle:   4

                       Coordinates (Angstroms)
     ATOM                X               Y               Z
      1  C         0.0260565842    1.0634719027   -0.7326981695
      2  H         0.1899142938    1.5261052989   -1.7084155537
      3  C         0.4395126767    1.9938952276    0.4030059055
      4  H        -0.2833476994    2.8204864733    0.4074180891
      5  H         0.3117965691    1.4765427400    1.3604054663
      6  C         1.8581631522    2.5588902930    0.2743136282
      7  H         2.0599556008    3.2661539523    1.0845246856
      8  H         2.6123961397    1.7679510580    0.3207331878
      9  H         1.9896642850    3.0919607718   -0.6736987572
     10  Se       -1.7873522252    0.3322036914   -0.6366368444
     11  H        -2.5513070341   -3.8416824211    0.0598170282
     12  Se        1.0599141622   -0.6462007635   -0.8593130452
     13  H         0.9068304950   -0.9608792243    0.5740443793
   Point Group: c1    Number of degrees of freedom:    33


   Energy is  -4921.607492244

              Constraints and their Current Values
                                        Value     Constraint
   Distance(Angs):       10  11             4.300000     4.300000
 Hessian Updated using BFGS Update

 32 Hessian modes will be used to form the next step
  Hessian Eigenvalues:
     0.031882    0.058708    0.138418    0.140064    0.154083    0.195434
     0.205750    0.226280    0.236819    0.239789    0.253249    0.256391
     0.297348    0.314562    0.325910    0.411554    0.465056    0.477438
     0.492149    0.492167    0.492648    0.525980    0.532384    0.675918
     0.898394    0.919482    1.042602    1.050785    1.051382    1.055883
     1.057191    1.062997

 Minimum Search - Taking Simple RFO Step
 Searching for Lamda that Minimizes Along All modes
 Value Taken    Lamda =   0.00000000
 Step Taken.  Stepsize is  0.002136

                             Maximum     Tolerance    Cnvgd?
         Gradient           0.000271      0.000300     YES
         Displacement       0.001177      0.001200     YES
         Energy change     -0.000009      0.000001      NO


                       Distance Matrix (Angstroms)
             C (  1)   H (  2)   C (  3)   H (  4)   H (  5)   C (  6)
   H (  2)  1.092201
   C (  3)  1.525273  2.176977
   H (  4)  2.117238  2.525104  1.098089
   H (  5)  2.152524  3.071640  1.095709  1.751732
   C (  6)  2.570401  2.789429  1.532433  2.161531  2.177687
   H (  7)  3.505831  3.784883  2.170010  2.479549  2.516918  1.094250
   H (  8)  2.880132  3.169283  2.186148  3.082317  2.541377  1.093895
   H (  9)  2.823828  2.600316  2.183578  2.531619  3.092312  1.095529
   Se( 10)  1.957660  2.546310  2.966648  3.089277  3.115143  4.367808
   H ( 11)  5.597448  6.281249  6.566334  7.046202  6.178383  7.775395
   Se( 12)  2.001967  2.489335  2.991397  3.927707  3.161150  3.492123
   H ( 13)  2.565412  3.450896  2.996387  3.967747  2.629345  3.658367
             H (  7)   H (  8)   H (  9)   Se( 10)   H ( 11)   Se( 12)
   H (  8)  1.770079
   H (  9)  1.768229  1.769093
   Se( 10)  5.135391  4.726067  4.677979
   H ( 11)  8.534349  7.628886  8.320690  4.300000
   Se( 12)  4.481641  3.103359  3.856519  3.018905  4.908851
   H ( 13)  4.411133  3.227946  4.376632  3.224350  4.530140  1.475456

 
 Final energy is   -4921.60749224393     


 ******************************
 **  OPTIMIZATION CONVERGED  **
 ******************************

                       Coordinates (Angstroms)
     ATOM                X               Y               Z
      1  C         0.0260565842    1.0634719027   -0.7326981695
      2  H         0.1899142938    1.5261052989   -1.7084155537
      3  C         0.4395126767    1.9938952276    0.4030059055
      4  H        -0.2833476994    2.8204864733    0.4074180891
      5  H         0.3117965691    1.4765427400    1.3604054663
      6  C         1.8581631522    2.5588902930    0.2743136282
      7  H         2.0599556008    3.2661539523    1.0845246856
      8  H         2.6123961397    1.7679510580    0.3207331878
      9  H         1.9896642850    3.0919607718   -0.6736987572
     10  Se       -1.7873522252    0.3322036914   -0.6366368444
     11  H        -2.5513070341   -3.8416824211    0.0598170282
     12  Se        1.0599141622   -0.6462007635   -0.8593130452
     13  H         0.9068304950   -0.9608792243    0.5740443793

Z-matrix Print:
$molecule
0 3
Se
H  1 1.475456
C  1 2.001967 2 93.848314
H  3 1.092201 1 103.165146 2 170.600620 0
C  3 1.525273 1 115.343686 2 48.808604 0
H  5 1.095709 3 109.328579 1 -59.764085 0
H  5 1.098089 3 106.483107 1 -173.837172 0
C  5 1.532433 3 114.413369 1 65.180192 0
H  8 1.093895 5 111.601743 3 -63.729410 0
H  8 1.094250 5 110.294214 3 176.237633 0
H  8 1.095529 5 111.296448 3 56.757325 0
Se 3 1.957660 1 99.350177 2 -76.229031 0
H  12 4.300000 3 122.351147 1 12.470571 0
$end

PES scan, value:    4.3000 energy: -4921.6074922439
------- Summary of potential scan: ------ 
    4.3000     -4921.6074922439
----------------------------------------- 
Archival summary:
1\1\hpc0248\JobtypUnspecified\ProcedureUnspecified\6-31G**\e238(3)\knomura\ThuMar1403:57:232019ThuMar1403:57:232019\0\\#,JobtypUnspecified,ProcedureUnspecified,6-31G**,\\0,3\Se\H,1,1.47546\C,1,2.00197,2,93.8483\H,3,1.0922,1,103.165,2,170.601,0\C,3,1.52527,1,115.344,2,48.8086,0\H,5,1.09571,3,109.329,1,-59.7641,0\H,5,1.09809,3,106.483,1,-173.837,0\C,5,1.53243,3,114.413,1,65.1802,0\H,8,1.0939,5,111.602,3,-63.7294,0\H,8,1.09425,5,110.294,3,176.238,0\H,8,1.09553,5,111.296,3,56.7573,0\Se,3,1.95766,1,99.3502,2,-76.229,0\H,12,4.3,3,122.351,1,12.4706,0\\\@

 Total job time:  27.85s(wall), 318.68s(cpu) 
 Thu Mar 14 03:57:23 2019

        *************************************************************
        *                                                           *
        *  Thank you very much for using Q-Chem.  Have a nice day.  *
        *                                                           *
        *************************************************************


