
Running Job 1 of 1 selenium/02/Se-H.xyz.data/inputs/bond_triplet_2.0.in
qchem selenium/02/Se-H.xyz.data/inputs/bond_triplet_2.0.in_6473.0 /staging/scratch/2868765/qchem6473/ 1
/usr/usc/qchem/5.1.1/exe/qcprog.exe_s selenium/02/Se-H.xyz.data/inputs/bond_triplet_2.0.in_6473.0 /staging/scratch/2868765/qchem6473/
Check license passed

                  Welcome to Q-Chem
     A Quantum Leap Into The Future Of Chemistry


 Q-Chem 5.1, Q-Chem, Inc., Pleasanton, CA (2018)

 Yihan Shao,  Zhengting Gan,  E. Epifanovsky,  A. T. B. Gilbert,  M. Wormit,  
 J. Kussmann,  A. W. Lange,  A. Behn,  Jia Deng,  Xintian Feng,  D. Ghosh,  
 M. Goldey,  P. R. Horn,  L. D. Jacobson,  I. Kaliman,  T. Kus,  A. Landau,  
 Jie Liu,  E. I. Proynov,  R. M. Richard,  R. P. Steele,  E. J. Sundstrom,  
 H. L. Woodcock III,  P. M. Zimmerman,  D. Zuev,  B. Albrecht,  E. Alguire,  
 S. A. Baeppler,  D. Barton,  Z. Benda,  Y. A. Bernard,  E. J. Berquist,  
 K. B. Bravaya,  H. Burton,  D. Casanova,  Chun-Min Chang,  Yunqing Chen,  
 A. Chien,  K. D. Closser,  M. P. Coons,  S. Coriani,  S. Dasgupta,  
 A. L. Dempwolff,  M. Diedenhofen,  Hainam Do,  R. G. Edgar,  Po-Tung Fang,  
 S. Faraji,  S. Fatehi,  Qingguo Feng,  K. D. Fenk,  J. Fosso-Tande,  
 Qinghui Ge,  A. Ghysels,  G. Gidofalvi,  J. Gomes,  J. Gonthier,  A. Gunina,  
 D. Hait,  M. W. D. Hanson-Heine,  P. H. P. Harbach,  A. W. Hauser,  
 J. E. Herr,  E. G. Hohenstein,  Z. C. Holden,  Kerwin Hui,  B. C. Huynh,  
 T.-C. Jagau,  Hyunjun Ji,  B. Kaduk,  K. Khistyaev,  Jaehoon Kim,  
 P. Klunzinger,  K. Koh,  D. Kosenkov,  L. Koulias,  T. Kowalczyk,  
 C. M. Krauter,  A. Kunitsa,  Ka Un Lao,  A. Laurent,  K. V. Lawler,  
 Joonho Lee,  D. Lefrancois,  S. Lehtola,  D. S. Levine,  Yi-Pei Li,  
 You-Sheng Lin,  Fenglai Liu,  E. Livshits,  A. Luenser,  P. Manohar,  
 E. Mansoor,  S. F. Manzer,  Shan-Ping Mao,  Yuezhi Mao,  N. Mardirossian,  
 A. V. Marenich,  T. Markovich,  L. A. Martinez-Martinez,  S. A. Maurer,  
 N. J. Mayhall,  S. C. McKenzie,  J.-M. Mewes,  A. F. Morrison,  
 J. W. Mullinax,  K. Nanda,  T. S. Nguyen-Beck,  R. Olivares-Amaya,  
 J. A. Parkhill,  T. M. Perrine,  F. Plasser,  P. Pokhilko,  S. Prager,  
 A. Prociuk,  E. Ramos,  D. R. Rehn,  F. Rob,  M. Schneider,  N. Sergueev,  
 S. M. Sharada,  S. Sharma,  D. W. Small,  T. Stauch,  T. Stein,  
 Yu-Chuan Su,  A. J. W. Thom,  A. Tkatchenko,  T. Tsuchimochi,  N. M. Tubman,  
 L. Vogt,  M. L. Vidal,  O. Vydrov,  M. A. Watson,  J. Wenzel,  
 M. de Wergifosse,  T. A. Wesolowski,  A. White,  J. Witte,  A. Yamada,  
 Jun Yang,  K. Yao,  S. Yeganeh,  S. R. Yost,  Zhi-Qiang You,  A. Zech,  
 Igor Ying Zhang,  Xing Zhang,  Yan Zhao,  Ying Zhu,  B. R. Brooks,  
 G. K. L. Chan,  C. J. Cramer,  M. S. Gordon,  W. J. Hehre,  A. Klamt,  
 M. W. Schmidt,  C. D. Sherrill,  D. G. Truhlar,  A. Aspuru-Guzik,  R. Baer,  
 A. T. Bell,  N. A. Besley,  Jeng-Da Chai,  A. E. DePrince, III,  
 R. A. DiStasio Jr.,  A. Dreuw,  B. D. Dunietz,  T. R. Furlani,  
 Chao-Ping Hsu,  Yousung Jung,  Jing Kong,  D. S. Lambrecht,  WanZhen Liang,  
 C. Ochsenfeld,  V. A. Rassolov,  L. V. Slipchenko,  J. E. Subotnik,  
 T. Van Voorhis,  J. M. Herbert,  A. I. Krylov,  P. M. W. Gill,  M. Head-Gordon

 Contributors to earlier versions of Q-Chem not listed above: 
 R. D. Adamson,  B. Austin,  J. Baker,  G. J. O. Beran,  K. Brandhorst,  
 S. T. Brown,  E. F. C. Byrd,  A. K. Chakraborty,  C.-L. Cheng,  
 Siu Hung Chien,  D. M. Chipman,  D. L. Crittenden,  H. Dachsel,  
 R. J. Doerksen,  A. D. Dutoi,  L. Fusti-Molnar,  W. A. Goddard III,  
 A. Golubeva-Zadorozhnaya,  S. R. Gwaltney,  G. Hawkins,  A. Heyden,  
 S. Hirata,  G. Kedziora,  F. J. Keil,  C. Kelley,  Jihan Kim,  R. A. King,  
 R. Z. Khaliullin,  P. P. Korambath,  W. Kurlancheek,  A. M. Lee,  M. S. Lee,  
 S. V. Levchenko,  Ching Yeh Lin,  D. Liotard,  R. C. Lochan,  I. Lotan,  
 P. E. Maslen,  N. Nair,  D. P. O'Neill,  D. Neuhauser,  E. Neuscamman,  
 C. M. Oana,  R. Olson,  B. Peters,  R. Peverati,  P. A. Pieniazek,  
 Y. M. Rhee,  J. Ritchie,  M. A. Rohrdanz,  E. Rosta,  N. J. Russ,  
 H. F. Schaefer III,  N. E. Schultz,  N. Shenvi,  A. C. Simmonett,  A. Sodt,  
 D. Stuck,  K. S. Thanthiriwatte,  V. Vanovschi,  Tao Wang,  A. Warshel,  
 C. F. Williams,  Q. Wu,  X. Xu,  W. Zhang

 Please cite Q-Chem as follows:
 Y. Shao et al., Mol. Phys. 113, 184-215 (2015)
 DOI: 10.1080/00268976.2014.952696

 Q-Chem 5.1.1 for Intel X86 EM64T Linux

 Parts of Q-Chem use Armadillo 8.300.2 (Tropical Shenanigans).
 http://arma.sourceforge.net/

 Q-Chem begins on Thu Mar 14 04:38:40 2019  

Host: 
0

     Scratch files written to /staging/scratch/2868765/qchem6473//
 Aug318 |scratch|qcdevops|jenkins|workspace|build_RNUM 6013   
Processing $rem in /usr/usc/qchem/5.1.1/config/preferences.
 MEM_TOTAL  2000 
Input Ideriv = 2
Curr. Ideriv = -1
Max.  Ideriv = 2

Checking the input file for inconsistencies... 	...done.

--------------------------------------------------------------
User input:
--------------------------------------------------------------

$comment
potential surface scanner
$end

$rem
JOBTYPE  PES_SCAN
UNRESTRICTED TRUE
SYM_IGNORE  TRUE
GEOM_OPT_MAX_CYCLES 400
SCF_MAX_CYCLES 400
METHOD   B3LYP
BASIS   6-31G**
PDB_PRINT 2
SCF_CONVERGENCE 6
THRESH 14
SCF_PRINT 1
$end
$molecule
0 3
C 0.421529 0.956494 -0.637391
H -0.016305 1.509481 -1.468027
C 0.752610 1.851858 0.546459
H -0.196310 2.235366 0.945851
H 1.208806 1.254510 1.342653
C 1.663119 3.027605 0.168592
H 1.860328 3.658076 1.040687
H 2.625160 2.678522 -0.218210
H 1.198926 3.654567 -0.599676
Se -0.631324 -0.680111 -0.261277
H -1.755412 -2.419225 0.087913
Se 1.853413 -0.234636 -1.295691
H -2.152347 -3.043605 0.221614
$end
$scan
stre 10 11 2.000000 2.001000 0.100000
$end
--------------------------------------------------------------
 ----------------------------------------------------------------
             Standard Nuclear Orientation (Angstroms)
    I     Atom           X                Y                Z
 ----------------------------------------------------------------
    1      C       0.4215290000     0.9564940000    -0.6373910000
    2      H      -0.0163050000     1.5094810000    -1.4680270000
    3      C       0.7526100000     1.8518580000     0.5464590000
    4      H      -0.1963100000     2.2353660000     0.9458510000
    5      H       1.2088060000     1.2545100000     1.3426530000
    6      C       1.6631190000     3.0276050000     0.1685920000
    7      H       1.8603280000     3.6580760000     1.0406870000
    8      H       2.6251600000     2.6785220000    -0.2182100000
    9      H       1.1989260000     3.6545670000    -0.5996760000
   10      Se     -0.6313240000    -0.6801110000    -0.2612770000
   11      H      -1.7554120000    -2.4192250000     0.0879130000
   12      Se      1.8534130000    -0.2346360000    -1.2956910000
   13      H      -2.1523470000    -3.0436050000     0.2216140000
 ----------------------------------------------------------------
 Nuclear Repulsion Energy =   618.1739949273 hartrees
 There are       48 alpha and       46 beta electrons
 Requested basis set is 6-31G(d,p)
 There are 52 shells and 155 basis functions

 Total QAlloc Memory Limit   2000 MB
 Mega-Array Size       188 MB
 MEM_STATIC part       192 MB
A total of 1 constraints
  
            1
    1   1.0100000
    2  10.0100000
    3  11.0100000
    4   2.0000000
    5   2.0010000
    6   0.1000000
    7   0.0000000
    8   0.0000000
    9   0.0000000
   10   0.0000000

                       Distance Matrix (Angstroms)
             C (  1)   H (  2)   C (  3)   H (  4)   H (  5)   C (  6)
   H (  2)  1.089702
   C (  3)  1.520787  2.183256
   H (  4)  2.126945  2.527077  1.098654
   H (  5)  2.151556  3.076659  1.094927  1.758943
   C (  6)  2.545713  2.793508  1.534337  2.165468  2.174554
   H (  7)  3.490649  3.798929  2.175712  2.502570  2.508544  1.094045
   H (  8)  2.827911  3.147386  2.185071  3.084172  2.543651  1.094074
   H (  9)  2.808089  2.613850  2.182334  2.519815  3.087558  1.094894
   Se( 10)  1.982029  2.574647  2.996428  3.185342  3.114712  4.381371
   H ( 11)  4.081742  4.569483  4.974192  4.983179  4.884392  6.431238
   Se( 12)  1.975460  2.562711  2.993116  3.914944  3.097407  3.580859
   H ( 13)  4.833582  5.305483  5.701742  5.676102  5.570267  7.170787
             H (  7)   H (  8)   H (  9)   Se( 10)   H ( 11)   Se( 12)
   H (  8)  1.768987
   H (  9)  1.768688  1.769837
   Se( 10)  5.169459  4.678350  4.717389
   H ( 11)  7.135471  6.728309  6.789097  2.100006
   Se( 12)  4.540035  3.200476  4.004833  2.728072  4.439640
   H ( 13)  7.853978  7.467312  7.534657  2.851806  0.751854  5.122366

 
 A cutoff of  1.0D-14 yielded   1185 shell pairs
 There are     10865 function pairs
 
 -------------------------------------------------------
 OpenMP Integral Computing Module                       
 Release: version 1.0, May 2013, Q-Chem Inc. Pittsburgh 
 -------------------------------------------------------
 Integral Job Info:
 Integral job number is                      11
 Integral operator is                         1
 short-range coefficients                     0
 long-range coefficients              100000000
 Omega coefficients                           0
 if combine SR and LR in K                    0
 Integral screening is                        0
 Integral computing path is                   2
 max size of driver memory is            800000
 size of driver memory is                593474
 size of scratch memory is             15267112
 max col of scratch BK array               1296
 max len of scratch array in speh3          155
 max len of scratch index in speh4           18
 max int batch size is                      520
 min int batch size is                       52
 fixed nKL is                                52
 max L of basis functions is                  2
 order of int derivative is                   0
 number of shells is                         52
 number of basis is                         155
 number of cartesian basis is               155
 number of contracted shell pairs          1185
 number of primitive shell pairs           4788
 maxK2 (contraction) of shell pair           36
 max number of K2 of shell pair               1
 max number of CS2 of shell pair             83
 max number of PS2 of shell pair            444
 mem total for path MDJ                  534684
 -------------------------------------------------------
 Smallest overlap matrix eigenvalue = 6.73E-04

 Scale SEOQF with 1.000000e-01/1.000000e-01/1.000000e-01

 Standard Electronic Orientation quadrupole field applied
 Nucleus-field energy     =     0.0000000098 hartrees
 Guess from superposition of atomic densities
 Warning:  Energy on first SCF cycle will be non-variational
 SAD guess density has 93.936381 electrons

 -----------------------------------------------------------------------
  General SCF calculation program by
  Eric Jon Sundstrom, Paul Horn, Yuezhi Mao, Dmitri Zuev, Alec White,
  David Stuck, Shaama M.S., Shane Yost, Joonho Lee, David Small,
  Daniel Levine, Susi Lehtola, Hugh Burton, Evgeny Epifanovsky
 -----------------------------------------------------------------------
 Exchange:     0.2000 Hartree-Fock + 0.0800 Slater + 0.7200 B88
 Correlation:  0.1900 VWN1RPA + 0.8100 LYP
 Using SG-1 standard quadrature grid
 using 12 threads for integral computing
 -------------------------------------------------------
 OpenMP Integral computing Module                
 Release: version 1.0, May 2013, Q-Chem Inc. Pittsburgh 
 -------------------------------------------------------
 -------------------------------------------------------
 OpenMP BLAS3 based DFT computing Module                
 Release: version 1.0, May 2013, Q-Chem Inc. Pittsburgh 
 -------------------------------------------------------
 A unrestricted SCF calculation will be
 performed using DIIS
 SCF converges when DIIS error is below 1.0e-06
 Alpha HF Exchange    Energy = -18.86135584067631
 Beta HF Exchange     Energy = -18.86135584067631
 DFT Correlation      Energy =  -5.13768107429962
 DFT Exchange         Energy = -149.87603164275063
 One-Electron (alpha) Energy = -4035.75937057763304
 One-Electron (beta)  Energy = -4035.75937057763304
 Total Coulomb        Energy = 2718.22272112348901
 ---------------------------------------
  Cycle       Energy         DIIS error
 ---------------------------------------
    1   -4927.8584494931      1.50e-01  
 Alpha HF Exchange    Energy = -19.06837431423781
 Beta HF Exchange     Energy = -18.86021841686735
 DFT Correlation      Energy =  -5.18376209848609
 DFT Exchange         Energy = -151.02437835282677
 One-Electron (alpha) Energy = -4073.49009173619424
 One-Electron (beta)  Energy = -4016.17564623878616
 Total Coulomb        Energy = 2744.08982758395950
    2   -4921.5386486364      9.25e-03  
 Alpha HF Exchange    Energy = -18.94108949893113
 Beta HF Exchange     Energy = -18.74598240895660
 DFT Correlation      Energy =  -5.14586852713007
 DFT Exchange         Energy = -150.03839065192284
 One-Electron (alpha) Energy = -4060.24146581071636
 One-Electron (beta)  Energy = -4004.37874373533714
 Total Coulomb        Energy = 2717.77585538958465
    3   -4921.5416903063      3.38e-03  
 Alpha HF Exchange    Energy = -19.04438530882142
 Beta HF Exchange     Energy = -18.84322421957507
 DFT Correlation      Energy =  -5.17798454892138
 DFT Exchange         Energy = -150.84784812276024
 One-Electron (alpha) Energy = -4070.90106563417248
 One-Electron (beta)  Energy = -4013.77124741082753
 Total Coulomb        Energy = 2738.85590809567429
    4   -4921.5558522123      2.94e-03  
 Alpha HF Exchange    Energy = -19.00922033425555
 Beta HF Exchange     Energy = -18.80781818090061
 DFT Correlation      Energy =  -5.16443859619799
 DFT Exchange         Energy = -150.55543187380042
 One-Electron (alpha) Energy = -4067.55812763536233
 One-Electron (beta)  Energy = -4010.65875372600931
 Total Coulomb        Energy = 2731.94184614513551
    5   -4921.6379492643      1.12e-03  
 Alpha HF Exchange    Energy = -19.00432925132570
 Beta HF Exchange     Energy = -18.80390761010092
 DFT Correlation      Energy =  -5.16446482266804
 DFT Exchange         Energy = -150.52424275694517
 One-Electron (alpha) Energy = -4067.06097844376700
 One-Electron (beta)  Energy = -4010.21578496608890
 Total Coulomb        Energy = 2730.94749009230145
    6   -4921.6522228215      4.41e-04  
 Alpha HF Exchange    Energy = -19.00341013981446
 Beta HF Exchange     Energy = -18.80278362390915
 DFT Correlation      Energy =  -5.16455500511165
 DFT Exchange         Energy = -150.51776521779556
 One-Electron (alpha) Energy = -4066.93406735144754
 One-Electron (beta)  Energy = -4010.10686416787712
 Total Coulomb        Energy = 2730.69988719351568
    7   -4921.6555633754      1.22e-04  
 Alpha HF Exchange    Energy = -19.00284923354597
 Beta HF Exchange     Energy = -18.80233282983214
 DFT Correlation      Energy =  -5.16430221577264
 DFT Exchange         Energy = -150.51323281332074
 One-Electron (alpha) Energy = -4066.84846063437226
 One-Electron (beta)  Energy = -4010.02578004355519
 Total Coulomb        Energy = 2730.52715721937147
    8   -4921.6558056140      2.66e-05  
 Alpha HF Exchange    Energy = -19.00305059808170
 Beta HF Exchange     Energy = -18.80247718252119
 DFT Correlation      Energy =  -5.16430918185190
 DFT Exchange         Energy = -150.51456262659735
 One-Electron (alpha) Energy = -4066.88723119938186
 One-Electron (beta)  Energy = -4010.05369770406514
 Total Coulomb        Energy = 2730.59552003741692
    9   -4921.6558135180      5.82e-06  
 Alpha HF Exchange    Energy = -19.00308566265157
 Beta HF Exchange     Energy = -18.80250019782249
 DFT Correlation      Energy =  -5.16432487580036
 DFT Exchange         Energy = -150.51480404034831
 One-Electron (alpha) Energy = -4066.89143890360401
 One-Electron (beta)  Energy = -4010.05421448992956
 Total Coulomb        Energy = 2730.60055918492344
   10   -4921.6558140482      1.75e-06  
 Alpha HF Exchange    Energy = -19.00308725382329
 Beta HF Exchange     Energy = -18.80250421003668
 DFT Correlation      Energy =  -5.16432375449239
 DFT Exchange         Energy = -150.51482108672045
 One-Electron (alpha) Energy = -4066.89215328833143
 One-Electron (beta)  Energy = -4010.05341517517854
 Total Coulomb        Energy = 2730.60049567906299
   11   -4921.6558141524      7.79e-07  Convergence criterion met
 ---------------------------------------
 SCF time:   CPU 53.51s  wall 4.00s 
<S^2> =          2.005165779
 Alpha HF Exchange    Energy = -19.00308725382329
 Beta HF Exchange     Energy = -18.80250421003668
 DFT Correlation      Energy =  -5.16432375449239
 DFT Exchange         Energy = -150.51482108672045
 One-Electron (alpha) Energy = -4066.89215328833143
 One-Electron (beta)  Energy = -4010.05341517517854
 Total Coulomb        Energy = 2730.60049567906299
 Nuclear repulsion Energy = 618.17399493707660
 SCF   energy in the final basis set =    -4921.6558141524
 Total energy in the final basis set =    -4921.6558141524
 
 --------------------------------------------------------------
 
                    Orbital Energies (a.u.)
 --------------------------------------------------------------
 
 Alpha MOs
 -- Occupied --
*******-453.913 -58.111 -58.108 -52.169 -52.168 -52.167 -52.165
-52.164 -52.164 -10.258 -10.206 -10.189  -7.845  -7.842  -5.788
 -5.785  -5.785  -5.783  -5.781  -5.779  -2.121  -2.119  -2.118
 -2.118  -2.116  -2.115  -2.115  -2.115  -2.111  -2.111  -0.828
 -0.754  -0.672  -0.652  -0.580  -0.473  -0.462  -0.435  -0.410
 -0.391  -0.368  -0.353  -0.316  -0.298  -0.276  -0.255  -0.202
 -- Virtual --
 -0.011   0.013   0.092   0.118   0.133   0.144   0.161   0.173
  0.186   0.191   0.204   0.227   0.231   0.275   0.283   0.291
  0.297   0.321   0.360   0.429   0.446   0.469   0.475   0.492
  0.533   0.543   0.575   0.600   0.606   0.621   0.681   0.707
  0.749   0.786   0.796   0.829   0.848   0.865   0.874   0.883
  0.906   0.919   0.931   0.946   1.039   1.080   1.190   1.326
  1.361   1.446   1.508   1.547   1.602   1.632   1.682   1.689
  1.736   1.792   1.825   1.865   1.929   2.036   2.054   2.058
  2.091   2.124   2.141   2.241   2.281   2.360   2.419   2.425
  2.466   2.529   2.598   2.606   2.607   2.678   2.716   2.752
  2.814   2.873   2.895   3.181   3.273   3.303   3.411   3.459
  3.521   4.060   4.169   4.182   4.214   4.248   4.254   4.265
  4.300   4.356   4.417   4.445   4.496   4.604   4.631   5.425
  5.486  89.630  89.832
 
 Beta MOs
 -- Occupied --
*******-453.911 -58.110 -58.107 -52.167 -52.165 -52.165 -52.164
-52.161 -52.161 -10.258 -10.206 -10.189  -7.842  -7.838  -5.786
 -5.783  -5.779  -5.778  -5.775  -5.774  -2.118  -2.116  -2.115
 -2.115  -2.112  -2.112  -2.110  -2.110  -2.106  -2.106  -0.821
 -0.744  -0.646  -0.633  -0.573  -0.470  -0.459  -0.433  -0.407
 -0.384  -0.365  -0.346  -0.306  -0.262  -0.231
 -- Virtual --
 -0.167  -0.114  -0.004   0.022   0.094   0.119   0.136   0.147
  0.162   0.175   0.189   0.195   0.207   0.231   0.244   0.286
  0.297   0.307   0.314   0.336   0.368   0.443   0.457   0.486
  0.501   0.526   0.547   0.556   0.587   0.614   0.616   0.658
  0.690   0.713   0.761   0.790   0.807   0.834   0.850   0.867
  0.881   0.890   0.912   0.925   0.935   0.950   1.042   1.081
  1.190   1.327   1.363   1.450   1.516   1.560   1.605   1.632
  1.682   1.690   1.739   1.792   1.825   1.866   1.930   2.036
  2.055   2.058   2.091   2.124   2.142   2.241   2.280   2.360
  2.419   2.426   2.467   2.529   2.598   2.606   2.607   2.678
  2.716   2.752   2.814   2.873   2.895   3.181   3.273   3.303
  3.411   3.459   3.521   4.061   4.179   4.194   4.219   4.260
  4.266   4.273   4.311   4.363   4.420   4.452   4.505   4.608
  4.633   5.440   5.502  89.635  89.837
 --------------------------------------------------------------
 
          Ground-State Mulliken Net Atomic Charges

     Atom                 Charge (a.u.)    Spin (a.u.)
  --------------------------------------------------------
      1 C                    -0.249291      -0.044542
      2 H                     0.152687      -0.001192
      3 C                    -0.173398       0.002417
      4 H                     0.120237       0.001106
      5 H                     0.121227      -0.001507
      6 C                    -0.327873       0.002770
      7 H                     0.114166      -0.000223
      8 H                     0.125660      -0.000449
      9 H                     0.109283       0.000170
     10 Se                    0.026032       1.000720
     11 H                    -0.041912      -0.004477
     12 Se                    0.002219       1.046318
     13 H                     0.020961      -0.001112
  --------------------------------------------------------
  Sum of atomic charges =     0.000000
  Sum of spin   charges =     2.000000

 -----------------------------------------------------------------
                    Cartesian Multipole Moments
 -----------------------------------------------------------------
    Charge (ESU x 10^10)
                 0.0000
    Dipole Moment (Debye)
         X      -0.0190      Y       1.9377      Z       0.3393
       Tot       1.9673
    Quadrupole Moments (Debye-Ang)
        XX     -59.0956     XY       1.0480     YY     -54.9399
        XZ       0.9184     YZ      -0.4195     ZZ     -58.2714
    Octopole Moments (Debye-Ang^2)
       XXX    -114.0640    XXY     -20.9070    XYY     -38.6561
       YYY     -52.1870    XXZ      28.3959    XYZ       2.7115
       YYZ      27.6557    XZZ     -38.2717    YZZ     -16.0223
       ZZZ      82.0831
    Hexadecapole Moments (Debye-Ang^3)
      XXXX    -701.1193   XXXY    -180.3882   XXYY    -243.0070
      XYYY    -166.0191   YYYY    -792.3653   XXXZ     110.9937
      XXYZ      -8.8579   XYYZ      38.6519   YYYZ     -42.8298
      XXZZ    -169.6272   XYZZ     -62.1294   YYZZ    -182.7254
      XZZZ     116.9229   YZZZ     -44.2961   ZZZZ    -315.1665
 -----------------------------------------------------------------
 Calculating analytic gradient of the SCF energy
 Gradient of SCF Energy
            1           2           3           4           5           6
    1   0.0000753  -0.0000412   0.0000560   0.0000375  -0.0001779   0.0000085
    2  -0.0001631  -0.0002592   0.0001647   0.0001630   0.0000714   0.0000003
    3  -0.0001327   0.0000615   0.0000775   0.0000106   0.0000993   0.0000736
            7           8           9          10          11          12
    1   0.0001388  -0.0000559   0.0000672  -0.0114408   0.0114855  -0.0001897
    2   0.0000053   0.0001498  -0.0001240  -0.0176765   0.0178048  -0.0000294
    3  -0.0001518   0.0000030   0.0001747   0.0034810  -0.0035375  -0.0001731
           13
    1   0.0000368
    2  -0.0001070
    3   0.0000138
 Max gradient component =       1.780E-02
 RMS gradient           =       4.850E-03
 Gradient time:  CPU 18.86 s  wall 1.60 s
 Geometry Optimization Parameters
   NAtoms,    NIC,     NZ,  NCons,   NDum,   NFix, NCnnct, MaxDiis
       13      90       0       1       0       0       0       0


** CONSTRAINED OPTIMIZATION IN DELOCALIZED INTERNAL COORDINATES **
   Searching for a Minimum

   Optimization Cycle:   1

                       Coordinates (Angstroms)
     ATOM                X               Y               Z
      1  C         0.4215290000    0.9564940000   -0.6373910000
      2  H        -0.0163050000    1.5094810000   -1.4680270000
      3  C         0.7526100000    1.8518580000    0.5464590000
      4  H        -0.1963100000    2.2353660000    0.9458510000
      5  H         1.2088060000    1.2545100000    1.3426530000
      6  C         1.6631190000    3.0276050000    0.1685920000
      7  H         1.8603280000    3.6580760000    1.0406870000
      8  H         2.6251600000    2.6785220000   -0.2182100000
      9  H         1.1989260000    3.6545670000   -0.5996760000
     10  Se       -0.6313240000   -0.6801110000   -0.2612770000
     11  H        -1.7554120000   -2.4192250000    0.0879130000
     12  Se        1.8534130000   -0.2346360000   -1.2956910000
     13  H        -2.1523470000   -3.0436050000    0.2216140000
   Point Group: c1    Number of degrees of freedom:    33


   Energy is  -4921.655814152

              Constraints and their Current Values
                                        Value     Constraint
   Distance(Angs):       10  11             2.100006     2.000000

 Attempting to Generate Delocalized Internal Coordinates

   Using Lagrange Multiplier Algorithm


 34 Hessian modes will be used to form the next step
  Hessian Eigenvalues:
    -0.976345    0.045000    0.045000    0.068084    0.070520    0.076732
     0.078304    0.082602    0.083180    0.097841    0.103903    0.120505
     0.132303    0.140191    0.143257    0.160000    0.160000    0.160000
     0.165464    0.173805    0.190670    0.200000    0.200000    0.219448
     0.290265    0.302909    0.338314    0.342495    0.342532    0.343461
     0.343493    0.348472    0.375807    1.024228

 Minimum Search - Taking P-RFO Step
 Searching for Lamda that Maximizes Along the Constraint modes Only
 Value Taken    Lamda =   0.02257930
 Searching for Lamda that Minimizes Along All other modes
 Value Taken    Lamda =  -0.01313295
 Step Taken.  Stepsize is  0.185636

                             Maximum     Tolerance    Cnvgd?
         Gradient            0.188984       0.000300      NO
         Displacement        0.185523       0.001200      NO
         Energy change     *********       0.000001      NO


 New Cartesian Coordinates Obtained by Inverse Iteration

 Displacement from previous Coordinates is:  0.242265
 ----------------------------------------------------------------
             Standard Nuclear Orientation (Angstroms)
    I     Atom           X                Y                Z
 ----------------------------------------------------------------
    1      C       0.4135488853     0.9435794593    -0.6345401985
    2      H      -0.0248835896     1.4965462830    -1.4651889141
    3      C       0.7454096325     1.8391679937     0.5477788690
    4      H      -0.2034702563     2.2216418835     0.9481113594
    5      H       1.2035478631     1.2423611978     1.3433495182
    6      C       1.6543020058     3.0151703720     0.1673633389
    7      H       1.8516548481     3.6459868783     1.0393311828
    8      H       2.6159575746     2.6655625596    -0.2203640323
    9      H       1.1887218216     3.6415192841    -0.6010508650
   10      Se     -0.6390469463    -0.6925306866    -0.2556333400
   11      H      -1.7111152293    -2.3493844349     0.0802753834
   12      Se      1.8461245116    -0.2476622305    -1.2911799352
   13      H      -2.1085581211    -2.9730565594     0.2152446332
 ----------------------------------------------------------------
 Nuclear Repulsion Energy =   619.0794950014 hartrees
 There are       48 alpha and       46 beta electrons

                       Distance Matrix (Angstroms)
             C (  1)   H (  2)   C (  3)   H (  4)   H (  5)   C (  6)
   H (  2)  1.089942
   C (  3)  1.519898  2.182380
   H (  4)  2.125780  2.526198  1.098602
   H (  5)  2.150678  3.075962  1.094989  1.759234
   C (  6)  2.544407  2.791256  1.534204  2.165773  2.174621
   H (  7)  3.488983  3.796592  2.174856  2.502123  2.507965  1.094169
   H (  8)  2.826194  3.144874  2.184473  3.084084  2.542755  1.094230
   H (  9)  2.807293  2.611605  2.182843  2.520745  3.088183  1.095234
   Se( 10)  1.982015  2.575321  2.995278  3.182944  3.113793  4.380117
   H ( 11)  3.983562  4.474709  4.878222  4.890850  4.794920  6.333409
   Se( 12)  1.975476  2.563828  2.991355  3.913148  3.094159  3.579137
   H ( 13)  4.735314  5.209885  5.604749  5.581339  5.478359  7.072501
             H (  7)   H (  8)   H (  9)   Se( 10)   H ( 11)   Se( 12)
   H (  8)  1.769809
   H (  9)  1.769280  1.770428
   Se( 10)  5.167520  4.676867  4.716359
   H ( 11)  7.039716  6.630508  6.690604  2.001832
   Se( 12)  4.537821  3.197838  4.004271  2.728799  4.353399
   H ( 13)  7.757199  7.369181  7.435792  2.753541  0.751761  5.033548

 
 Applying Cartesian multipole field
    Component          Value
    ---------          -----
     (2,0,0)        1.00000E-11
     (0,2,0)        2.00000E-11
     (0,0,2)       -3.00000E-11
 Nucleus-field energy     =     0.0000000097 hartrees
 Requested basis set is 6-31G(d,p)
 There are 52 shells and 155 basis functions
 A cutoff of  1.0D-14 yielded   1187 shell pairs
 There are     10878 function pairs
 Smallest overlap matrix eigenvalue = 6.72E-04
 Guess from superposition of atomic densities
 Warning:  Energy on first SCF cycle will be non-variational
 SAD guess density has 93.936381 electrons

 -----------------------------------------------------------------------
  General SCF calculation program by
  Eric Jon Sundstrom, Paul Horn, Yuezhi Mao, Dmitri Zuev, Alec White,
  David Stuck, Shaama M.S., Shane Yost, Joonho Lee, David Small,
  Daniel Levine, Susi Lehtola, Hugh Burton, Evgeny Epifanovsky
 -----------------------------------------------------------------------
 Exchange:     0.2000 Hartree-Fock + 0.0800 Slater + 0.7200 B88
 Correlation:  0.1900 VWN1RPA + 0.8100 LYP
 Using SG-1 standard quadrature grid
 using 12 threads for integral computing
 -------------------------------------------------------
 OpenMP Integral computing Module                
 Release: version 1.0, May 2013, Q-Chem Inc. Pittsburgh 
 -------------------------------------------------------
 -------------------------------------------------------
 OpenMP BLAS3 based DFT computing Module                
 Release: version 1.0, May 2013, Q-Chem Inc. Pittsburgh 
 -------------------------------------------------------
 A unrestricted SCF calculation will be
 performed using DIIS
 SCF converges when DIIS error is below 1.0e-06
 Alpha HF Exchange    Energy = -18.86332581825023
 Beta HF Exchange     Energy = -18.86332581825023
 DFT Correlation      Energy =  -5.13859120185716
 DFT Exchange         Energy = -149.88014647967043
 One-Electron (alpha) Energy = -4036.66063173575913
 One-Electron (beta)  Energy = -4036.66063173575913
 Total Coulomb        Energy = 2719.10984364589922
 ---------------------------------------
  Cycle       Energy         DIIS error
 ---------------------------------------
    1   -4927.8773141325      1.50e-01  
 Alpha HF Exchange    Energy = -19.06878608938919
 Beta HF Exchange     Energy = -18.86066199825015
 DFT Correlation      Energy =  -5.18466931418462
 DFT Exchange         Energy = -151.02874292524200
 One-Electron (alpha) Energy = -4074.41237185896171
 One-Electron (beta)  Energy = -4017.10352422474261
 Total Coulomb        Energy = 2745.04574727598310
    2   -4921.5335141237      9.25e-03  
 Alpha HF Exchange    Energy = -18.94134969592778
 Beta HF Exchange     Energy = -18.74629932593749
 DFT Correlation      Energy =  -5.14656604974245
 DFT Exchange         Energy = -150.04116425031788
 One-Electron (alpha) Energy = -4061.08361310180499
 One-Electron (beta)  Energy = -4005.22533437765151
 Total Coulomb        Energy = 2718.57089005028956
    3   -4921.5339417400      3.41e-03  
 Alpha HF Exchange    Energy = -19.04492261508764
 Beta HF Exchange     Energy = -18.84472073943213
 DFT Correlation      Energy =  -5.17883877597569
 DFT Exchange         Energy = -150.85527648940806
 One-Electron (alpha) Energy = -4071.86668628892585
 One-Electron (beta)  Energy = -4014.75161364471023
 Total Coulomb        Energy = 2739.92224948318199
    4   -4921.5403140592      3.05e-03  
 Alpha HF Exchange    Energy = -19.01023680890416
 Beta HF Exchange     Energy = -18.80998362050960
 DFT Correlation      Energy =  -5.16527874208200
 DFT Exchange         Energy = -150.56686301237676
 One-Electron (alpha) Energy = -4068.49881824466138
 One-Electron (beta)  Energy = -4011.64024302149164
 Total Coulomb        Energy = 2732.99152409432691
    5   -4921.6204043446      1.40e-03  
 Alpha HF Exchange    Energy = -19.00503242258341
 Beta HF Exchange     Energy = -18.80468440387775
 DFT Correlation      Energy =  -5.16521204938045
 DFT Exchange         Energy = -150.53010620144056
 One-Electron (alpha) Energy = -4067.99055196673680
 One-Electron (beta)  Energy = -4011.13953907890937
 Total Coulomb        Energy = 2731.90929594216141
    6   -4921.6463351696      5.25e-04  
 Alpha HF Exchange    Energy = -19.00382765778049
 Beta HF Exchange     Energy = -18.80320229571585
 DFT Correlation      Energy =  -5.16542163456579
 DFT Exchange         Energy = -150.52193487184806
 One-Electron (alpha) Energy = -4067.83716961956270
 One-Electron (beta)  Energy = -4011.00614797104254
 Total Coulomb        Energy = 2731.60709659990471
    7   -4921.6511124395      1.07e-04  
 Alpha HF Exchange    Energy = -19.00327727359837
 Beta HF Exchange     Energy = -18.80275228121718
 DFT Correlation      Energy =  -5.16515785110704
 DFT Exchange         Energy = -150.51738785683727
 One-Electron (alpha) Energy = -4067.75056282306969
 One-Electron (beta)  Energy = -4010.92245508191172
 Total Coulomb        Energy = 2731.43081347821771
    8   -4921.6512846784      2.75e-05  
 Alpha HF Exchange    Energy = -19.00349633798042
 Beta HF Exchange     Energy = -18.80290729277360
 DFT Correlation      Energy =  -5.16516963994658
 DFT Exchange         Energy = -150.51882924146224
 One-Electron (alpha) Energy = -4067.79258128490073
 One-Electron (beta)  Energy = -4010.95270562504993
 Total Coulomb        Energy = 2731.50490123636564
    9   -4921.6512931746      6.20e-06  
 Alpha HF Exchange    Energy = -19.00352852909907
 Beta HF Exchange     Energy = -18.80292813066414
 DFT Correlation      Energy =  -5.16518575706678
 DFT Exchange         Energy = -150.51905084401204
 One-Electron (alpha) Energy = -4067.79602641603378
 One-Electron (beta)  Energy = -4010.95254914949965
 Total Coulomb        Energy = 2731.50848006128172
   10   -4921.6512937540      2.23e-06  
 Alpha HF Exchange    Energy = -19.00353025346747
 Beta HF Exchange     Energy = -18.80293204934894
 DFT Correlation      Energy =  -5.16518426434062
 DFT Exchange         Energy = -150.51906662966741
 One-Electron (alpha) Energy = -4067.79666080106745
 One-Electron (beta)  Energy = -4010.95172011128852
 Total Coulomb        Energy = 2731.50830518968633
   11   -4921.6512939084      9.79e-07  Convergence criterion met
 ---------------------------------------
 SCF time:   CPU 52.98s  wall 4.00s 
<S^2> =          2.005159264
 Alpha HF Exchange    Energy = -19.00353025346747
 Beta HF Exchange     Energy = -18.80293204934894
 DFT Correlation      Energy =  -5.16518426434062
 DFT Exchange         Energy = -150.51906662966741
 One-Electron (alpha) Energy = -4067.79666080106745
 One-Electron (beta)  Energy = -4010.95172011128852
 Total Coulomb        Energy = 2731.50830518968633
 Nuclear repulsion Energy = 619.07949501113046
 SCF   energy in the final basis set =    -4921.6512939084
 Total energy in the final basis set =    -4921.6512939084
 
 --------------------------------------------------------------
 
                    Orbital Energies (a.u.)
 --------------------------------------------------------------
 
 Alpha MOs
 -- Occupied --
*******-453.912 -58.112 -58.107 -52.169 -52.169 -52.168 -52.165
-52.164 -52.163 -10.257 -10.206 -10.189  -7.846  -7.841  -5.788
 -5.785  -5.785  -5.783  -5.780  -5.779  -2.121  -2.120  -2.119
 -2.118  -2.116  -2.116  -2.116  -2.115  -2.111  -2.111  -0.827
 -0.754  -0.673  -0.652  -0.580  -0.475  -0.466  -0.435  -0.409
 -0.390  -0.367  -0.352  -0.314  -0.297  -0.276  -0.255  -0.203
 -- Virtual --
 -0.011   0.013   0.093   0.118   0.134   0.144   0.162   0.173
  0.184   0.192   0.209   0.228   0.233   0.274   0.283   0.291
  0.297   0.321   0.359   0.429   0.447   0.469   0.475   0.492
  0.533   0.543   0.576   0.600   0.607   0.620   0.684   0.708
  0.750   0.785   0.796   0.829   0.849   0.867   0.881   0.886
  0.906   0.919   0.936   0.951   1.039   1.075   1.193   1.327
  1.363   1.446   1.510   1.546   1.602   1.632   1.683   1.691
  1.737   1.792   1.826   1.866   1.930   2.036   2.054   2.057
  2.090   2.124   2.139   2.242   2.281   2.360   2.419   2.454
  2.475   2.531   2.599   2.605   2.607   2.678   2.716   2.752
  2.814   2.873   2.896   3.181   3.273   3.303   3.411   3.459
  3.521   4.053   4.170   4.183   4.216   4.249   4.254   4.266
  4.301   4.357   4.420   4.445   4.496   4.626   4.672   5.426
  5.497  89.640  89.854
 
 Beta MOs
 -- Occupied --
*******-453.910 -58.111 -58.106 -52.168 -52.166 -52.165 -52.163
-52.161 -52.161 -10.257 -10.206 -10.189  -7.842  -7.838  -5.786
 -5.783  -5.779  -5.778  -5.775  -5.774  -2.118  -2.116  -2.115
 -2.115  -2.112  -2.112  -2.110  -2.110  -2.106  -2.105  -0.821
 -0.743  -0.646  -0.635  -0.573  -0.471  -0.463  -0.433  -0.405
 -0.384  -0.365  -0.345  -0.303  -0.262  -0.231
 -- Virtual --
 -0.167  -0.115  -0.003   0.022   0.095   0.119   0.136   0.147
  0.163   0.175   0.189   0.196   0.212   0.232   0.245   0.285
  0.297   0.307   0.314   0.335   0.368   0.443   0.458   0.485
  0.502   0.526   0.548   0.556   0.587   0.614   0.616   0.658
  0.693   0.714   0.761   0.790   0.807   0.835   0.850   0.869
  0.886   0.893   0.913   0.925   0.938   0.957   1.043   1.076
  1.194   1.327   1.365   1.450   1.518   1.559   1.605   1.633
  1.683   1.692   1.739   1.793   1.826   1.867   1.930   2.036
  2.055   2.058   2.090   2.124   2.140   2.242   2.281   2.360
  2.419   2.455   2.476   2.531   2.598   2.605   2.607   2.678
  2.716   2.752   2.814   2.873   2.896   3.181   3.273   3.303
  3.411   3.458   3.521   4.053   4.180   4.194   4.221   4.260
  4.266   4.274   4.312   4.364   4.422   4.452   4.505   4.626
  4.677   5.442   5.513  89.645  89.859
 --------------------------------------------------------------
 
          Ground-State Mulliken Net Atomic Charges

     Atom                 Charge (a.u.)    Spin (a.u.)
  --------------------------------------------------------
      1 C                    -0.252254      -0.043222
      2 H                     0.152013      -0.001204
      3 C                    -0.173345       0.002379
      4 H                     0.120150       0.001181
      5 H                     0.120926      -0.001500
      6 C                    -0.327609       0.002824
      7 H                     0.113873      -0.000230
      8 H                     0.125342      -0.000460
      9 H                     0.109132       0.000167
     10 Se                    0.033181       0.993780
     11 H                    -0.049810      -0.004536
     12 Se                    0.005267       1.052646
     13 H                     0.023133      -0.001826
  --------------------------------------------------------
  Sum of atomic charges =    -0.000000
  Sum of spin   charges =     2.000000

 -----------------------------------------------------------------
                    Cartesian Multipole Moments
 -----------------------------------------------------------------
    Charge (ESU x 10^10)
                 0.0000
    Dipole Moment (Debye)
         X      -0.0096      Y       1.9110      Z       0.3273
       Tot       1.9388
    Quadrupole Moments (Debye-Ang)
        XX     -59.0531     XY       0.9887     YY     -55.0538
        XZ       0.8878     YZ      -0.4074     ZZ     -58.2412
    Octopole Moments (Debye-Ang^2)
       XXX    -112.9380    XXY     -20.2831    XYY     -38.2317
       YYY     -50.5086    XXZ      28.1387    XYZ       2.6536
       YYZ      27.4211    XZZ     -37.8942    YZZ     -15.5167
       ZZZ      81.4254
    Hexadecapole Moments (Debye-Ang^3)
      XXXX    -695.1548   XXXY    -177.1570   XXYY    -241.6774
      XYYY    -163.9004   YYYY    -786.6682   XXXZ     109.9852
      XXYZ      -9.1824   XYYZ      38.4044   YYYZ     -43.5894
      XXZZ    -168.2516   XYZZ     -60.8369   YYZZ    -181.1435
      XZZZ     115.7417   YZZZ     -45.2550   ZZZZ    -313.1986
 -----------------------------------------------------------------
 Calculating analytic gradient of the SCF energy
 Gradient of SCF Energy
            1           2           3           4           5           6
    1   0.0000004  -0.0002431  -0.0001368   0.0000400  -0.0001336   0.0000156
    2  -0.0006566  -0.0001356   0.0000066   0.0001174  -0.0000051  -0.0001623
    3   0.0002406   0.0000770   0.0001337  -0.0000543   0.0000537  -0.0001131
            7           8           9          10          11          12
    1   0.0000194   0.0000047  -0.0000119  -0.0141898   0.0133232  -0.0000101
    2  -0.0000536   0.0000199   0.0000325  -0.0215017   0.0205592  -0.0000723
    3  -0.0000071  -0.0000498   0.0000112   0.0043915  -0.0041289  -0.0001442
           13
    1   0.0013221
    2   0.0018516
    3  -0.0004103
 Max gradient component =       2.150E-02
 RMS gradient           =       5.787E-03
 Gradient time:  CPU 19.13 s  wall 1.62 s
 Geometry Optimization Parameters
   NAtoms,    NIC,     NZ,  NCons,   NDum,   NFix, NCnnct, MaxDiis
       13      90       0       1       0       0       0       0

 Cartesian Hessian Update
 Hessian Updated using BFGS Update


** CONSTRAINED OPTIMIZATION IN DELOCALIZED INTERNAL COORDINATES **
   Searching for a Minimum

   Optimization Cycle:   2

                       Coordinates (Angstroms)
     ATOM                X               Y               Z
      1  C         0.4135488853    0.9435794593   -0.6345401985
      2  H        -0.0248835896    1.4965462830   -1.4651889141
      3  C         0.7454096325    1.8391679937    0.5477788690
      4  H        -0.2034702563    2.2216418835    0.9481113594
      5  H         1.2035478631    1.2423611978    1.3433495182
      6  C         1.6543020058    3.0151703720    0.1673633389
      7  H         1.8516548481    3.6459868783    1.0393311828
      8  H         2.6159575746    2.6655625596   -0.2203640323
      9  H         1.1887218216    3.6415192841   -0.6010508650
     10  Se       -0.6390469463   -0.6925306866   -0.2556333400
     11  H        -1.7111152293   -2.3493844349    0.0802753834
     12  Se        1.8461245116   -0.2476622305   -1.2911799352
     13  H        -2.1085581211   -2.9730565594    0.2152446332
   Point Group: c1    Number of degrees of freedom:    33


   Energy is  -4921.651293908

              Constraints and their Current Values
                                        Value     Constraint
   Distance(Angs):       10  11             2.001832     2.000000
 Hessian Updated using BFGS Update

   Using Lagrange Multiplier Algorithm


 33 Hessian modes will be used to form the next step
  Hessian Eigenvalues:
    -0.984699    0.044976    0.045000    0.068086    0.070545    0.076734
     0.078313    0.082604    0.083180    0.097786    0.103904    0.120572
     0.132302    0.140191    0.143248    0.159996    0.160051    0.166008
     0.174047    0.190661    0.199992    0.200000    0.219597    0.290284
     0.303057    0.338314    0.342494    0.342548    0.343465    0.343492
     0.348470    0.381103    1.015755

 Minimum Search - Taking P-RFO Step
 Searching for Lamda that Maximizes Along the Constraint modes Only
 Value Taken    Lamda =   0.00000138
 Searching for Lamda that Minimizes Along All other modes
 Value Taken    Lamda =  -0.00003710
 Step Taken.  Stepsize is  0.011565

                             Maximum     Tolerance    Cnvgd?
         Gradient            0.003461       0.000300      NO
         Displacement        0.006257       0.001200      NO
         Energy change      0.004520       0.000001      NO


 New Cartesian Coordinates Obtained by Inverse Iteration

 Displacement from previous Coordinates is:  0.014131
 ----------------------------------------------------------------
             Standard Nuclear Orientation (Angstroms)
    I     Atom           X                Y                Z
 ----------------------------------------------------------------
    1      C       0.4139833229     0.9435943504    -0.6351070143
    2      H      -0.0232909748     1.4970546366    -1.4661076585
    3      C       0.7465209680     1.8391659308     0.5471386732
    4      H      -0.2025903352     2.2203847892     0.9481466624
    5      H       1.2057603635     1.2422550886     1.3420313068
    6      C       1.6542595842     3.0165625292     0.1676701934
    7      H       1.8511492388     3.6471505277     1.0399585435
    8      H       2.6161474359     2.6680075923    -0.2203960708
    9      H       1.1879259462     3.6428656997    -0.6003146168
   10      Se     -0.6399880123    -0.6949888162    -0.2556500539
   11      H      -1.7120624053    -2.3496314986     0.0802283506
   12      Se      1.8465028572    -0.2481444018    -1.2901138686
   13      H      -2.1121249892    -2.9753744278     0.2160125530
 ----------------------------------------------------------------
 Nuclear Repulsion Energy =   618.8236207431 hartrees
 There are       48 alpha and       46 beta electrons

                       Distance Matrix (Angstroms)
             C (  1)   H (  2)   C (  3)   H (  4)   H (  5)   C (  6)
   H (  2)  1.089995
   C (  3)  1.519978  2.182387
   H (  4)  2.125335  2.526654  1.098612
   H (  5)  2.150624  3.075896  1.095015  1.759356
   C (  6)  2.545571  2.791471  1.534356  2.165856  2.174498
   H (  7)  3.490058  3.796947  2.175289  2.502386  2.508246  1.094209
   H (  8)  2.827563  3.144768  2.184397  3.084014  2.542271  1.094219
   H (  9)  2.808249  2.611733  2.182847  2.520857  3.088034  1.095228
   Se( 10)  1.984892  2.578871  2.998136  3.184313  3.116454  4.383878
   H ( 11)  3.984609  4.476617  4.879412  4.890484  4.796612  6.335283
   Se( 12)  1.975193  2.563752  2.990371  3.911806  3.091930  3.580559
   H ( 13)  4.739614  5.214919  5.609037  5.583749  5.483127  7.077521
             H (  7)   H (  8)   H (  9)   Se( 10)   H ( 11)   Se( 12)
   H (  8)  1.769869
   H (  9)  1.769288  1.770453
   Se( 10)  5.170932  4.681176  4.719856
   H ( 11)  7.041232  6.633286  6.692017  2.000000
   Se( 12)  4.539007  3.200092  4.006183  2.729912  4.354018
   H ( 13)  7.761718  7.375281  7.440284  2.754961  0.755011  5.037552

 
 Applying Cartesian multipole field
    Component          Value
    ---------          -----
     (2,0,0)        1.00000E-11
     (0,2,0)        2.00000E-11
     (0,0,2)       -3.00000E-11
 Nucleus-field energy     =     0.0000000098 hartrees
 Requested basis set is 6-31G(d,p)
 There are 52 shells and 155 basis functions
 A cutoff of  1.0D-14 yielded   1186 shell pairs
 There are     10872 function pairs
 Smallest overlap matrix eigenvalue = 6.72E-04
 Guess from superposition of atomic densities
 Warning:  Energy on first SCF cycle will be non-variational
 SAD guess density has 93.936381 electrons

 -----------------------------------------------------------------------
  General SCF calculation program by
  Eric Jon Sundstrom, Paul Horn, Yuezhi Mao, Dmitri Zuev, Alec White,
  David Stuck, Shaama M.S., Shane Yost, Joonho Lee, David Small,
  Daniel Levine, Susi Lehtola, Hugh Burton, Evgeny Epifanovsky
 -----------------------------------------------------------------------
 Exchange:     0.2000 Hartree-Fock + 0.0800 Slater + 0.7200 B88
 Correlation:  0.1900 VWN1RPA + 0.8100 LYP
 Using SG-1 standard quadrature grid
 using 12 threads for integral computing
 -------------------------------------------------------
 OpenMP Integral computing Module                
 Release: version 1.0, May 2013, Q-Chem Inc. Pittsburgh 
 -------------------------------------------------------
 -------------------------------------------------------
 OpenMP BLAS3 based DFT computing Module                
 Release: version 1.0, May 2013, Q-Chem Inc. Pittsburgh 
 -------------------------------------------------------
 A unrestricted SCF calculation will be
 performed using DIIS
 SCF converges when DIIS error is below 1.0e-06
 Alpha HF Exchange    Energy = -18.86300993937349
 Beta HF Exchange     Energy = -18.86300993937349
 DFT Correlation      Energy =  -5.13850796615903
 DFT Exchange         Energy = -149.87947513674206
 One-Electron (alpha) Energy = -4036.40721785219330
 One-Electron (beta)  Energy = -4036.40721785219330
 Total Coulomb        Energy = 2718.86023561285583
 ---------------------------------------
  Cycle       Energy         DIIS error
 ---------------------------------------
    1   -4927.8745823203      1.50e-01  
 Alpha HF Exchange    Energy = -19.06853869557785
 Beta HF Exchange     Energy = -18.86041223446123
 DFT Correlation      Energy =  -5.18456557146186
 DFT Exchange         Energy = -151.02706258144232
 One-Electron (alpha) Energy = -4074.15284888785209
 One-Electron (beta)  Energy = -4016.85396509984093
 Total Coulomb        Energy = 2744.79027821895852
    2   -4921.5334940988      9.25e-03  
 Alpha HF Exchange    Energy = -18.94113976695737
 Beta HF Exchange     Energy = -18.74609557707576
 DFT Correlation      Energy =  -5.14647204284407
 DFT Exchange         Energy = -150.03980880757393
 One-Electron (alpha) Energy = -4060.82274226531581
 One-Electron (beta)  Energy = -4004.97230413859825
 Total Coulomb        Energy = 2718.31102902207294
    3   -4921.5339128234      3.41e-03  
 Alpha HF Exchange    Energy = -19.04471539845498
 Beta HF Exchange     Energy = -18.84458354594427
 DFT Correlation      Energy =  -5.17871965088847
 DFT Exchange         Energy = -150.85400612985970
 One-Electron (alpha) Energy = -4071.61005042316901
 One-Electron (beta)  Energy = -4014.50321461247222
 Total Coulomb        Energy = 2739.67182727886711
    4   -4921.5398417290      3.05e-03  
 Alpha HF Exchange    Energy = -19.01004062658972
 Beta HF Exchange     Energy = -18.80987660791029
 DFT Correlation      Energy =  -5.16517645315722
 DFT Exchange         Energy = -150.56578994300565
 One-Electron (alpha) Energy = -4068.24117163187611
 One-Electron (beta)  Energy = -4011.39410541292591
 Total Coulomb        Energy = 2732.74324910721180
    5   -4921.6192908154      1.42e-03  
 Alpha HF Exchange    Energy = -19.00483295357334
 Beta HF Exchange     Energy = -18.80446988657572
 DFT Correlation      Energy =  -5.16510649835313
 DFT Exchange         Energy = -150.52870443939298
 One-Electron (alpha) Energy = -4067.73315616640457
 One-Electron (beta)  Energy = -4010.88831275757138
 Total Coulomb        Energy = 2731.65472123358859
    6   -4921.6462407154      5.27e-04  
 Alpha HF Exchange    Energy = -19.00361633908248
 Beta HF Exchange     Energy = -18.80298112832902
 DFT Correlation      Energy =  -5.16532503086363
 DFT Exchange         Energy = -150.52050286501253
 One-Electron (alpha) Energy = -4067.57827573911800
 One-Electron (beta)  Energy = -4010.75410462863738
 Total Coulomb        Energy = 2731.35015123813901
    7   -4921.6510337400      1.07e-04  
 Alpha HF Exchange    Energy = -19.00306660274436
 Beta HF Exchange     Energy = -18.80253017079646
 DFT Correlation      Energy =  -5.16506014835107
 DFT Exchange         Energy = -150.51594925742450
 One-Electron (alpha) Energy = -4067.49172757775978
 One-Electron (beta)  Energy = -4010.67020202591539
 Total Coulomb        Energy = 2731.17371092932672
    8   -4921.6512041008      2.76e-05  
 Alpha HF Exchange    Energy = -19.00328641374539
 Beta HF Exchange     Energy = -18.80268564135818
 DFT Correlation      Energy =  -5.16507217775718
 DFT Exchange         Energy = -150.51739551740030
 One-Electron (alpha) Energy = -4067.53392341379640
 One-Electron (beta)  Energy = -4010.70056684498968
 Total Coulomb        Energy = 2731.24809658522554
    9   -4921.6512126709      6.21e-06  
 Alpha HF Exchange    Energy = -19.00331855780417
 Beta HF Exchange     Energy = -18.80270643028232
 DFT Correlation      Energy =  -5.16508830169228
 DFT Exchange         Energy = -150.51761664607403
 One-Electron (alpha) Energy = -4067.53735725508932
 One-Electron (beta)  Energy = -4010.70038341671898
 Total Coulomb        Energy = 2731.25163660215594
   10   -4921.6512132526      2.25e-06  
 Alpha HF Exchange    Energy = -19.00332030913756
 Beta HF Exchange     Energy = -18.80271038011885
 DFT Correlation      Energy =  -5.16508677786006
 DFT Exchange         Energy = -150.51763256654488
 One-Electron (alpha) Energy = -4067.53798944378923
 One-Electron (beta)  Energy = -4010.69954848889756
 Total Coulomb        Energy = 2731.25145380234198
   11   -4921.6512134111      9.91e-07  Convergence criterion met
 ---------------------------------------
 SCF time:   CPU 53.03s  wall 5.00s 
<S^2> =          2.005163694
 Alpha HF Exchange    Energy = -19.00332030913756
 Beta HF Exchange     Energy = -18.80271038011885
 DFT Correlation      Energy =  -5.16508677786006
 DFT Exchange         Energy = -150.51763256654488
 One-Electron (alpha) Energy = -4067.53798944378923
 One-Electron (beta)  Energy = -4010.69954848889756
 Total Coulomb        Energy = 2731.25145380234198
 Nuclear repulsion Energy = 618.82362075288461
 SCF   energy in the final basis set =    -4921.6512134111
 Total energy in the final basis set =    -4921.6512134111
 
 --------------------------------------------------------------
 
                    Orbital Energies (a.u.)
 --------------------------------------------------------------
 
 Alpha MOs
 -- Occupied --
*******-453.912 -58.112 -58.107 -52.169 -52.169 -52.168 -52.165
-52.164 -52.163 -10.257 -10.206 -10.189  -7.846  -7.841  -5.788
 -5.785  -5.785  -5.783  -5.780  -5.779  -2.121  -2.120  -2.119
 -2.118  -2.116  -2.116  -2.116  -2.115  -2.111  -2.111  -0.827
 -0.754  -0.673  -0.652  -0.580  -0.475  -0.465  -0.435  -0.409
 -0.390  -0.367  -0.352  -0.314  -0.297  -0.276  -0.255  -0.203
 -- Virtual --
 -0.011   0.013   0.093   0.118   0.134   0.144   0.162   0.173
  0.184   0.192   0.209   0.228   0.233   0.274   0.283   0.291
  0.297   0.321   0.359   0.429   0.447   0.469   0.475   0.493
  0.533   0.543   0.576   0.600   0.606   0.620   0.684   0.708
  0.750   0.785   0.796   0.829   0.848   0.867   0.880   0.886
  0.906   0.919   0.936   0.950   1.039   1.074   1.192   1.327
  1.363   1.446   1.509   1.546   1.602   1.633   1.683   1.691
  1.737   1.792   1.826   1.866   1.929   2.036   2.054   2.057
  2.090   2.123   2.138   2.242   2.281   2.360   2.419   2.452
  2.473   2.530   2.599   2.601   2.603   2.678   2.716   2.752
  2.814   2.873   2.896   3.181   3.273   3.303   3.411   3.458
  3.521   4.040   4.169   4.183   4.216   4.249   4.254   4.266
  4.301   4.357   4.420   4.445   4.496   4.626   4.671   5.426
  5.497  89.639  89.855
 
 Beta MOs
 -- Occupied --
*******-453.910 -58.111 -58.106 -52.168 -52.166 -52.165 -52.163
-52.161 -52.161 -10.257 -10.206 -10.189  -7.842  -7.838  -5.786
 -5.783  -5.780  -5.778  -5.775  -5.774  -2.118  -2.116  -2.115
 -2.115  -2.112  -2.112  -2.110  -2.110  -2.105  -2.105  -0.821
 -0.743  -0.646  -0.635  -0.573  -0.470  -0.463  -0.433  -0.405
 -0.384  -0.364  -0.345  -0.303  -0.262  -0.231
 -- Virtual --
 -0.167  -0.115  -0.003   0.022   0.095   0.119   0.136   0.147
  0.163   0.175   0.188   0.196   0.212   0.232   0.245   0.285
  0.297   0.307   0.314   0.335   0.367   0.443   0.458   0.485
  0.502   0.526   0.548   0.556   0.587   0.614   0.616   0.658
  0.693   0.714   0.761   0.790   0.807   0.835   0.850   0.869
  0.886   0.893   0.912   0.925   0.938   0.956   1.043   1.075
  1.193   1.327   1.365   1.450   1.517   1.559   1.605   1.633
  1.683   1.692   1.739   1.793   1.826   1.867   1.929   2.036
  2.055   2.058   2.090   2.124   2.139   2.242   2.281   2.360
  2.419   2.452   2.474   2.530   2.598   2.601   2.603   2.678
  2.716   2.752   2.814   2.873   2.896   3.181   3.273   3.303
  3.411   3.458   3.521   4.041   4.179   4.194   4.221   4.260
  4.266   4.274   4.311   4.364   4.422   4.452   4.504   4.626
  4.676   5.442   5.513  89.645  89.860
 --------------------------------------------------------------
 
          Ground-State Mulliken Net Atomic Charges

     Atom                 Charge (a.u.)    Spin (a.u.)
  --------------------------------------------------------
      1 C                    -0.252483      -0.043220
      2 H                     0.152038      -0.001192
      3 C                    -0.173348       0.002390
      4 H                     0.120184       0.001200
      5 H                     0.120953      -0.001501
      6 C                    -0.327635       0.002791
      7 H                     0.113977      -0.000235
      8 H                     0.125322      -0.000455
      9 H                     0.109144       0.000166
     10 Se                    0.032972       0.993021
     11 H                    -0.049837      -0.004548
     12 Se                    0.005746       1.053343
     13 H                     0.022966      -0.001761
  --------------------------------------------------------
  Sum of atomic charges =    -0.000000
  Sum of spin   charges =     2.000000

 -----------------------------------------------------------------
                    Cartesian Multipole Moments
 -----------------------------------------------------------------
    Charge (ESU x 10^10)
                -0.0000
    Dipole Moment (Debye)
         X      -0.0033      Y       1.9143      Z       0.3254
       Tot       1.9418
    Quadrupole Moments (Debye-Ang)
        XX     -59.0513     XY       0.9947     YY     -55.0524
        XZ       0.8831     YZ      -0.4095     ZZ     -58.2443
    Octopole Moments (Debye-Ang^2)
       XXX    -112.8870    XXY     -20.2278    XYY     -38.2045
       YYY     -50.3107    XXZ      28.1319    XYZ       2.6565
       YYZ      27.4117    XZZ     -37.8723    YZZ     -15.4520
       ZZZ      81.3676
    Hexadecapole Moments (Debye-Ang^3)
      XXXX    -695.6318   XXXY    -177.3946   XXYY    -241.8674
      XYYY    -164.0769   YYYY    -787.5588   XXXZ     109.8937
      XXYZ      -9.1965   XYYZ      38.3812   YYYZ     -43.6089
      XXZZ    -168.2972   XYZZ     -60.9141   YYZZ    -181.2590
      XZZZ     115.6327   YZZZ     -45.3047   ZZZZ    -312.8852
 -----------------------------------------------------------------
 Calculating analytic gradient of the SCF energy
 Gradient of SCF Energy
            1           2           3           4           5           6
    1   0.0000246  -0.0001315   0.0000208   0.0000103  -0.0000893   0.0000735
    2  -0.0002562  -0.0000008   0.0000617   0.0000875  -0.0000162  -0.0000456
    3   0.0001345   0.0000525  -0.0000288  -0.0001045   0.0000472   0.0000201
            7           8           9          10          11          12
    1   0.0000524  -0.0000120  -0.0000258  -0.0146291   0.0144490   0.0000572
    2   0.0000068   0.0000017   0.0000158  -0.0221997   0.0222680  -0.0000342
    3  -0.0000070  -0.0000408   0.0000190   0.0045658  -0.0045084  -0.0001195
           13
    1   0.0002000
    2   0.0001112
    3  -0.0000302
 Max gradient component =       2.227E-02
 RMS gradient           =       6.104E-03
 Gradient time:  CPU 19.29 s  wall 1.67 s
 Geometry Optimization Parameters
   NAtoms,    NIC,     NZ,  NCons,   NDum,   NFix, NCnnct, MaxDiis
       13      90       0       1       0       0       0       0

 Cartesian Hessian Update
 Hessian Updated using BFGS Update


** CONSTRAINED OPTIMIZATION IN DELOCALIZED INTERNAL COORDINATES **
   Searching for a Minimum

   Optimization Cycle:   3

                       Coordinates (Angstroms)
     ATOM                X               Y               Z
      1  C         0.4139833229    0.9435943504   -0.6351070143
      2  H        -0.0232909748    1.4970546366   -1.4661076585
      3  C         0.7465209680    1.8391659308    0.5471386732
      4  H        -0.2025903352    2.2203847892    0.9481466624
      5  H         1.2057603635    1.2422550886    1.3420313068
      6  C         1.6542595842    3.0165625292    0.1676701934
      7  H         1.8511492388    3.6471505277    1.0399585435
      8  H         2.6161474359    2.6680075923   -0.2203960708
      9  H         1.1879259462    3.6428656997   -0.6003146168
     10  Se       -0.6399880123   -0.6949888162   -0.2556500539
     11  H        -1.7120624053   -2.3496314986    0.0802283506
     12  Se        1.8465028572   -0.2481444018   -1.2901138686
     13  H        -2.1121249892   -2.9753744278    0.2160125530
   Point Group: c1    Number of degrees of freedom:    33


   Energy is  -4921.651213411

              Constraints and their Current Values
                                        Value     Constraint
   Distance(Angs):       10  11             2.000000     2.000000
 Hessian Updated using BFGS Update

 32 Hessian modes will be used to form the next step
  Hessian Eigenvalues:
     0.039253    0.045000    0.068085    0.070723    0.076953    0.078299
     0.082622    0.083180    0.095917    0.103934    0.119432    0.132310
     0.139850    0.143510    0.154629    0.160000    0.160035    0.160596
     0.176899    0.187868    0.199030    0.200000    0.222070    0.290447
     0.303034    0.338297    0.342496    0.342548    0.343456    0.343480
     0.348485    0.393047

 Minimum Search - Taking Simple RFO Step
 Searching for Lamda that Minimizes Along All modes
 Value Taken    Lamda =  -0.00000309
 Step Taken.  Stepsize is  0.007616

                             Maximum     Tolerance    Cnvgd?
         Gradient           0.000246      0.000300     YES
         Displacement       0.003783      0.001200      NO
         Energy change      0.000080      0.000001      NO


 New Cartesian Coordinates Obtained by Inverse Iteration

 Displacement from previous Coordinates is:  0.013624
 ----------------------------------------------------------------
             Standard Nuclear Orientation (Angstroms)
    I     Atom           X                Y                Z
 ----------------------------------------------------------------
    1      C       0.4152518559     0.9433444963    -0.6355569830
    2      H      -0.0214093001     1.4967985690    -1.4668675267
    3      C       0.7475462802     1.8384185946     0.5470524896
    4      H      -0.2017425346     2.2180645487     0.9491877653
    5      H       1.2082265312     1.2416203454     1.3411883427
    6      C       1.6533543792     3.0172583110     0.1676011410
    7      H       1.8495556670     3.6476416847     1.0401597846
    8      H       2.6155826323     2.6702570051    -0.2210219282
    9      H       1.1858251594     3.6432165946    -0.5999394770
   10      Se     -0.6393847387    -0.6957066183    -0.2559543864
   11      H      -1.7133312863    -2.3490510443     0.0803360166
   12      Se      1.8477833261    -0.2485390415    -1.2892268278
   13      H      -2.1150649715    -2.9744214453     0.2165385891
 ----------------------------------------------------------------
 Nuclear Repulsion Energy =   618.7856006062 hartrees
 There are       48 alpha and       46 beta electrons

                       Distance Matrix (Angstroms)
             C (  1)   H (  2)   C (  3)   H (  4)   H (  5)   C (  6)
   H (  2)  1.089982
   C (  3)  1.519915  2.182629
   H (  4)  2.125326  2.527858  1.098632
   H (  5)  2.150651  3.076085  1.095010  1.759295
   C (  6)  2.545404  2.790720  1.534319  2.165865  2.174474
   H (  7)  3.489768  3.796291  2.175056  2.501957  2.508159  1.094183
   H (  8)  2.827635  3.143702  2.184366  3.084022  2.542077  1.094222
   H (  9)  2.807910  2.610764  2.182882  2.521150  3.088065  1.095229
   Se( 10)  1.985660  2.579784  2.998364  3.183388  3.117333  4.384308
   H ( 11)  3.985378  4.477387  4.879410  4.888594  4.797725  6.335571
   Se( 12)  1.974846  2.563521  2.989621  3.910906  3.090096  3.581282
   H ( 13)  4.741040  5.216230  5.609564  5.582068  5.484899  7.078390
             H (  7)   H (  8)   H (  9)   Se( 10)   H ( 11)   Se( 12)
   H (  8)  1.769931
   H (  9)  1.769317  1.770434
   Se( 10)  5.171016  4.682493  4.719743
   H ( 11)  7.041005  6.635041  6.691424  2.000000
   Se( 12)  4.539413  3.201554  4.007377  2.730131  4.355386
   H ( 13)  7.761977  7.377864  7.440137  2.755617  0.755665  5.040033

 
 Applying Cartesian multipole field
    Component          Value
    ---------          -----
     (2,0,0)        1.00000E-11
     (0,2,0)        2.00000E-11
     (0,0,2)       -3.00000E-11
 Nucleus-field energy     =     0.0000000098 hartrees
 Requested basis set is 6-31G(d,p)
 There are 52 shells and 155 basis functions
 A cutoff of  1.0D-14 yielded   1186 shell pairs
 There are     10872 function pairs
 Smallest overlap matrix eigenvalue = 6.72E-04
 Guess from superposition of atomic densities
 Warning:  Energy on first SCF cycle will be non-variational
 SAD guess density has 93.936381 electrons

 -----------------------------------------------------------------------
  General SCF calculation program by
  Eric Jon Sundstrom, Paul Horn, Yuezhi Mao, Dmitri Zuev, Alec White,
  David Stuck, Shaama M.S., Shane Yost, Joonho Lee, David Small,
  Daniel Levine, Susi Lehtola, Hugh Burton, Evgeny Epifanovsky
 -----------------------------------------------------------------------
 Exchange:     0.2000 Hartree-Fock + 0.0800 Slater + 0.7200 B88
 Correlation:  0.1900 VWN1RPA + 0.8100 LYP
 Using SG-1 standard quadrature grid
 using 12 threads for integral computing
 -------------------------------------------------------
 OpenMP Integral computing Module                
 Release: version 1.0, May 2013, Q-Chem Inc. Pittsburgh 
 -------------------------------------------------------
 -------------------------------------------------------
 OpenMP BLAS3 based DFT computing Module                
 Release: version 1.0, May 2013, Q-Chem Inc. Pittsburgh 
 -------------------------------------------------------
 A unrestricted SCF calculation will be
 performed using DIIS
 SCF converges when DIIS error is below 1.0e-06
 Alpha HF Exchange    Energy = -18.86297078231974
 Beta HF Exchange     Energy = -18.86297078231974
 DFT Correlation      Energy =  -5.13849707210834
 DFT Exchange         Energy = -149.87938672105673
 One-Electron (alpha) Energy = -4036.36958802744221
 One-Electron (beta)  Energy = -4036.36958802744221
 Total Coulomb        Energy = 2718.82313190707737
 ---------------------------------------
  Cycle       Energy         DIIS error
 ---------------------------------------
    1   -4927.8742688896      1.50e-01  
 Alpha HF Exchange    Energy = -19.06850379110127
 Beta HF Exchange     Energy = -18.86037445487532
 DFT Correlation      Energy =  -5.18455210184732
 DFT Exchange         Energy = -151.02681928165529
 One-Electron (alpha) Energy = -4074.11460205333378
 One-Electron (beta)  Energy = -4016.81794534748906
 Total Coulomb        Energy = 2744.75370359364115
    2   -4921.5334928206      9.25e-03  
 Alpha HF Exchange    Energy = -18.94110316286987
 Beta HF Exchange     Energy = -18.74606072334306
 DFT Correlation      Energy =  -5.14645756157973
 DFT Exchange         Energy = -150.03957006280751
 One-Electron (alpha) Energy = -4060.78294880625936
 One-Electron (beta)  Energy = -4004.93442400247613
 Total Coulomb        Energy = 2718.27106992441259
    3   -4921.5338937789      3.41e-03  
 Alpha HF Exchange    Energy = -19.04468606998079
 Beta HF Exchange     Energy = -18.84457494581574
 DFT Correlation      Energy =  -5.17870032148186
 DFT Exchange         Energy = -150.85384244055413
 One-Electron (alpha) Energy = -4071.57214579820493
 One-Electron (beta)  Energy = -4014.46729783254477
 Total Coulomb        Energy = 2739.63595091005618
    4   -4921.5396958825      3.05e-03  
 Alpha HF Exchange    Energy = -19.01001530938703
 Beta HF Exchange     Energy = -18.80988042200401
 DFT Correlation      Energy =  -5.16516198516440
 DFT Exchange         Energy = -150.56569987391651
 One-Electron (alpha) Energy = -4068.20302158461027
 One-Electron (beta)  Energy = -4011.35897905379852
 Total Coulomb        Energy = 2732.70817170224655
    5   -4921.6189859106      1.43e-03  
 Alpha HF Exchange    Energy = -19.00480510344576
 Beta HF Exchange     Energy = -18.80443586655094
 DFT Correlation      Energy =  -5.16509104629290
 DFT Exchange         Energy = -150.52849356210879
 One-Electron (alpha) Energy = -4067.69494456838947
 One-Electron (beta)  Energy = -4010.85146890216356
 Total Coulomb        Energy = 2731.61739924909716
    6   -4921.6462391838      5.27e-04  
 Alpha HF Exchange    Energy = -19.00358472040064
 Beta HF Exchange     Energy = -18.80294626580823
 DFT Correlation      Energy =  -5.16531195183421
 DFT Exchange         Energy = -150.52028375315456
 One-Electron (alpha) Energy = -4067.53960568978573
 One-Electron (beta)  Energy = -4010.71702893150859
 Total Coulomb        Energy = 2731.31212401546509
    7   -4921.6510366810      1.07e-04  
 Alpha HF Exchange    Energy = -19.00303533529216
 Beta HF Exchange     Energy = -18.80249498366560
 DFT Correlation      Energy =  -5.16504678253342
 DFT Exchange         Energy = -150.51572912951508
 One-Electron (alpha) Energy = -4067.45309779432637
 One-Electron (beta)  Energy = -4010.63308657020343
 Total Coulomb        Energy = 2731.13568341645760
    8   -4921.6512065631      2.76e-05  
 Alpha HF Exchange    Energy = -19.00325537898468
 Beta HF Exchange     Energy = -18.80265058928299
 DFT Correlation      Energy =  -5.16505890877384
 DFT Exchange         Energy = -150.51717692583702
 One-Electron (alpha) Energy = -4067.49534213122797
 One-Electron (beta)  Energy = -4010.66348367957698
 Total Coulomb        Energy = 2731.21015184968155
    9   -4921.6512151480      6.21e-06  
 Alpha HF Exchange    Energy = -19.00328749179448
 Beta HF Exchange     Energy = -18.80267134190189
 DFT Correlation      Energy =  -5.16507503681985
 DFT Exchange         Energy = -150.51739779341085
 One-Electron (alpha) Energy = -4067.49876991376686
 One-Electron (beta)  Energy = -4010.66329197489586
 Total Coulomb        Energy = 2731.21367720742955
   10   -4921.6512157291      2.25e-06  
 Alpha HF Exchange    Energy = -19.00328924761128
 Beta HF Exchange     Energy = -18.80267528996824
 DFT Correlation      Energy =  -5.16507350614325
 DFT Exchange         Energy = -150.51741372261327
 One-Electron (alpha) Energy = -4067.49940001080768
 One-Electron (beta)  Energy = -4010.66245535425924
 Total Coulomb        Energy = 2731.21349062773561
   11   -4921.6512158877      9.89e-07  Convergence criterion met
 ---------------------------------------
 SCF time:   CPU 53.49s  wall 4.00s 
<S^2> =          2.005163496
 Alpha HF Exchange    Energy = -19.00328924761128
 Beta HF Exchange     Energy = -18.80267528996824
 DFT Correlation      Energy =  -5.16507350614325
 DFT Exchange         Energy = -150.51741372261327
 One-Electron (alpha) Energy = -4067.49940001080768
 One-Electron (beta)  Energy = -4010.66245535425924
 Total Coulomb        Energy = 2731.21349062773561
 Nuclear repulsion Energy = 618.78560061601593
 SCF   energy in the final basis set =    -4921.6512158877
 Total energy in the final basis set =    -4921.6512158877
 
 --------------------------------------------------------------
 
                    Orbital Energies (a.u.)
 --------------------------------------------------------------
 
 Alpha MOs
 -- Occupied --
*******-453.912 -58.112 -58.107 -52.169 -52.169 -52.168 -52.165
-52.164 -52.163 -10.257 -10.206 -10.189  -7.846  -7.841  -5.788
 -5.785  -5.785  -5.783  -5.780  -5.779  -2.121  -2.120  -2.119
 -2.118  -2.116  -2.116  -2.116  -2.115  -2.111  -2.111  -0.827
 -0.754  -0.673  -0.652  -0.580  -0.475  -0.465  -0.435  -0.409
 -0.390  -0.367  -0.352  -0.314  -0.297  -0.276  -0.255  -0.203
 -- Virtual --
 -0.011   0.013   0.093   0.118   0.134   0.144   0.162   0.173
  0.184   0.192   0.209   0.228   0.233   0.274   0.283   0.291
  0.297   0.321   0.359   0.429   0.447   0.469   0.475   0.493
  0.533   0.543   0.575   0.600   0.606   0.620   0.684   0.708
  0.750   0.785   0.796   0.829   0.848   0.867   0.880   0.886
  0.906   0.919   0.936   0.950   1.039   1.073   1.192   1.327
  1.362   1.446   1.509   1.546   1.602   1.633   1.683   1.691
  1.737   1.792   1.826   1.866   1.929   2.036   2.054   2.057
  2.090   2.123   2.138   2.242   2.281   2.360   2.419   2.451
  2.473   2.530   2.599   2.601   2.602   2.678   2.716   2.752
  2.814   2.873   2.896   3.181   3.273   3.303   3.411   3.458
  3.521   4.038   4.169   4.183   4.216   4.248   4.254   4.266
  4.301   4.357   4.420   4.445   4.496   4.626   4.670   5.426
  5.497  89.639  89.855
 
 Beta MOs
 -- Occupied --
*******-453.910 -58.111 -58.106 -52.168 -52.166 -52.165 -52.163
-52.161 -52.161 -10.257 -10.206 -10.189  -7.842  -7.838  -5.786
 -5.783  -5.780  -5.778  -5.775  -5.774  -2.118  -2.116  -2.115
 -2.115  -2.112  -2.112  -2.110  -2.110  -2.105  -2.105  -0.821
 -0.743  -0.646  -0.635  -0.573  -0.470  -0.463  -0.433  -0.405
 -0.384  -0.365  -0.345  -0.303  -0.262  -0.231
 -- Virtual --
 -0.167  -0.115  -0.003   0.022   0.095   0.119   0.136   0.147
  0.162   0.175   0.188   0.196   0.212   0.232   0.245   0.285
  0.297   0.307   0.314   0.335   0.367   0.443   0.458   0.485
  0.501   0.526   0.548   0.556   0.587   0.614   0.616   0.658
  0.693   0.714   0.761   0.790   0.807   0.835   0.850   0.869
  0.886   0.893   0.913   0.925   0.938   0.956   1.043   1.074
  1.193   1.327   1.365   1.450   1.517   1.559   1.605   1.633
  1.683   1.692   1.740   1.792   1.826   1.867   1.929   2.036
  2.055   2.058   2.090   2.124   2.138   2.242   2.281   2.360
  2.419   2.452   2.473   2.530   2.598   2.601   2.603   2.678
  2.716   2.752   2.814   2.873   2.896   3.181   3.273   3.302
  3.411   3.458   3.521   4.039   4.179   4.194   4.221   4.260
  4.266   4.274   4.311   4.364   4.422   4.452   4.504   4.626
  4.675   5.442   5.513  89.645  89.860
 --------------------------------------------------------------
 
          Ground-State Mulliken Net Atomic Charges

     Atom                 Charge (a.u.)    Spin (a.u.)
  --------------------------------------------------------
      1 C                    -0.252497      -0.043200
      2 H                     0.152066      -0.001187
      3 C                    -0.173335       0.002402
      4 H                     0.120209       0.001217
      5 H                     0.120984      -0.001502
      6 C                    -0.327656       0.002778
      7 H                     0.113997      -0.000238
      8 H                     0.125305      -0.000450
      9 H                     0.109150       0.000164
     10 Se                    0.032848       0.992903
     11 H                    -0.049813      -0.004564
     12 Se                    0.005818       1.053386
     13 H                     0.022924      -0.001709
  --------------------------------------------------------
  Sum of atomic charges =    -0.000000
  Sum of spin   charges =     2.000000

 -----------------------------------------------------------------
                    Cartesian Multipole Moments
 -----------------------------------------------------------------
    Charge (ESU x 10^10)
                 0.0000
    Dipole Moment (Debye)
         X      -0.0024      Y       1.9154      Z       0.3252
       Tot       1.9428
    Quadrupole Moments (Debye-Ang)
        XX     -59.0518     XY       0.9980     YY     -55.0561
        XZ       0.8817     YZ      -0.4115     ZZ     -58.2427
    Octopole Moments (Debye-Ang^2)
       XXX    -113.0058    XXY     -20.2131    XYY     -38.2396
       YYY     -50.2405    XXZ      28.1299    XYZ       2.6537
       YYZ      27.4040    XZZ     -37.9080    YZZ     -15.4210
       ZZZ      81.3419
    Hexadecapole Moments (Debye-Ang^3)
      XXXX    -696.1040   XXXY    -177.3725   XXYY    -241.9591
      XYYY    -164.0704   YYYY    -787.7932   XXXZ     109.9106
      XXYZ      -9.2116   XYYZ      38.3769   YYYZ     -43.6267
      XXZZ    -168.3518   XYZZ     -60.9009   YYZZ    -181.2461
      XZZZ     115.6545   YZZZ     -45.3275   ZZZZ    -312.6692
 -----------------------------------------------------------------
 Calculating analytic gradient of the SCF energy
 Gradient of SCF Energy
            1           2           3           4           5           6
    1   0.0000831  -0.0000926   0.0000926  -0.0000032  -0.0000841   0.0000613
    2  -0.0000723   0.0000015   0.0000141   0.0000738  -0.0000074  -0.0000390
    3   0.0000476   0.0000307  -0.0000248  -0.0000971   0.0000549   0.0000155
            7           8           9          10          11          12
    1   0.0000287  -0.0000122  -0.0000187  -0.0147386   0.0147001   0.0000197
    2  -0.0000169  -0.0000002   0.0000153  -0.0223243   0.0225707   0.0000187
    3  -0.0000061  -0.0000474   0.0000115   0.0046313  -0.0045891  -0.0000754
           13
    1  -0.0000361
    2  -0.0002341
    3   0.0000482
 Max gradient component =       2.257E-02
 RMS gradient           =       6.168E-03
 Gradient time:  CPU 19.33 s  wall 1.67 s
 Geometry Optimization Parameters
   NAtoms,    NIC,     NZ,  NCons,   NDum,   NFix, NCnnct, MaxDiis
       13      90       0       1       0       0       0       0

 Cartesian Hessian Update
 Hessian Updated using BFGS Update


** CONSTRAINED OPTIMIZATION IN DELOCALIZED INTERNAL COORDINATES **
   Searching for a Minimum

   Optimization Cycle:   4

                       Coordinates (Angstroms)
     ATOM                X               Y               Z
      1  C         0.4152518559    0.9433444963   -0.6355569830
      2  H        -0.0214093001    1.4967985690   -1.4668675267
      3  C         0.7475462802    1.8384185946    0.5470524896
      4  H        -0.2017425346    2.2180645487    0.9491877653
      5  H         1.2082265312    1.2416203454    1.3411883427
      6  C         1.6533543792    3.0172583110    0.1676011410
      7  H         1.8495556670    3.6476416847    1.0401597846
      8  H         2.6155826323    2.6702570051   -0.2210219282
      9  H         1.1858251594    3.6432165946   -0.5999394770
     10  Se       -0.6393847387   -0.6957066183   -0.2559543864
     11  H        -1.7133312863   -2.3490510443    0.0803360166
     12  Se        1.8477833261   -0.2485390415   -1.2892268278
     13  H        -2.1150649715   -2.9744214453    0.2165385891
   Point Group: c1    Number of degrees of freedom:    33


   Energy is  -4921.651215888

              Constraints and their Current Values
                                        Value     Constraint
   Distance(Angs):       10  11             2.000000     2.000000
 Hessian Updated using BFGS Update

 32 Hessian modes will be used to form the next step
  Hessian Eigenvalues:
     0.011360    0.045000    0.068164    0.071100    0.076856    0.078285
     0.082630    0.083181    0.097442    0.103915    0.120405    0.132442
     0.136374    0.143153    0.146323    0.160000    0.160023    0.161182
     0.176877    0.186253    0.198666    0.200000    0.221573    0.290962
     0.304067    0.338339    0.342490    0.342558    0.343468    0.343697
     0.348465    0.544927

 Minimum Search - Taking Simple RFO Step
 Searching for Lamda that Minimizes Along All modes
 Value Taken    Lamda =  -0.00000712
 Step Taken.  Stepsize is  0.024134

                             Maximum     Tolerance    Cnvgd?
         Gradient           0.000297      0.000300     YES
         Displacement       0.013724      0.001200      NO
         Energy change     -0.000002      0.000001      NO


 New Cartesian Coordinates Obtained by Inverse Iteration

 Displacement from previous Coordinates is:  0.046793
 ----------------------------------------------------------------
             Standard Nuclear Orientation (Angstroms)
    I     Atom           X                Y                Z
 ----------------------------------------------------------------
    1      C       0.4196813162     0.9416356521    -0.6366700862
    2      H      -0.0155449944     1.4950782063    -1.4686693847
    3      C       0.7508623092     1.8356634835     0.5469782030
    4      H      -0.1989623503     2.2099914174     0.9529110090
    5      H       1.2165797477     1.2394182474     1.3385459593
    6      C       1.6500034400     3.0195716302     0.1674251632
    7      H       1.8442109230     3.6498732120     1.0404634100
    8      H       2.6133713509     2.6778954914    -0.2230749785
[...]
   H ( 13)  4.736462  5.189823  5.578954  5.494894  5.485340  7.056667
             H (  7)   H (  8)   H (  9)   Se( 10)   H ( 11)   Se( 12)
   H (  8)  1.770005
   H (  9)  1.769314  1.770419
   Se( 10)  5.170762  4.687828  4.713640
   H ( 11)  7.008997  6.654300  6.647815  2.000000
   Se( 12)  4.546094  3.211909  4.012947  2.733700  4.446795
   H ( 13)  7.727806  7.399239  7.393843  2.755157  0.755847  5.135393

 
 Applying Cartesian multipole field
    Component          Value
    ---------          -----
     (2,0,0)        1.00000E-11
     (0,2,0)        2.00000E-11
     (0,0,2)       -3.00000E-11
 Nucleus-field energy     =     0.0000000098 hartrees
 Requested basis set is 6-31G(d,p)
 There are 52 shells and 155 basis functions
 A cutoff of  1.0D-14 yielded   1186 shell pairs
 There are     10872 function pairs
 Smallest overlap matrix eigenvalue = 6.72E-04
 Guess from superposition of atomic densities
 Warning:  Energy on first SCF cycle will be non-variational
 SAD guess density has 93.936381 electrons

 -----------------------------------------------------------------------
  General SCF calculation program by
  Eric Jon Sundstrom, Paul Horn, Yuezhi Mao, Dmitri Zuev, Alec White,
  David Stuck, Shaama M.S., Shane Yost, Joonho Lee, David Small,
  Daniel Levine, Susi Lehtola, Hugh Burton, Evgeny Epifanovsky
 -----------------------------------------------------------------------
 Exchange:     0.2000 Hartree-Fock + 0.0800 Slater + 0.7200 B88
 Correlation:  0.1900 VWN1RPA + 0.8100 LYP
 Using SG-1 standard quadrature grid
 using 12 threads for integral computing
 -------------------------------------------------------
 OpenMP Integral computing Module                
 Release: version 1.0, May 2013, Q-Chem Inc. Pittsburgh 
 -------------------------------------------------------
 -------------------------------------------------------
 OpenMP BLAS3 based DFT computing Module                
 Release: version 1.0, May 2013, Q-Chem Inc. Pittsburgh 
 -------------------------------------------------------
 A unrestricted SCF calculation will be
 performed using DIIS
 SCF converges when DIIS error is below 1.0e-06
 Alpha HF Exchange    Energy = -18.86287334027436
 Beta HF Exchange     Energy = -18.86287334027436
 DFT Correlation      Energy =  -5.13845753453483
 DFT Exchange         Energy = -149.87924044102104
 One-Electron (alpha) Energy = -4035.89537177580632
 One-Electron (beta)  Energy = -4035.89537177580632
 Total Coulomb        Energy = 2718.35166624167687
 ---------------------------------------
  Cycle       Energy         DIIS error
 ---------------------------------------
    1   -4927.8719597900      1.50e-01  
 Alpha HF Exchange    Energy = -19.06847559916915
 Beta HF Exchange     Energy = -18.86023908851709
 DFT Correlation      Energy =  -5.18453258068501
 DFT Exchange         Energy = -151.02648275173772
 One-Electron (alpha) Energy = -4073.60733415789400
 One-Electron (beta)  Energy = -4016.38506645233474
 Total Coulomb        Energy = 2744.28800032818253
    2   -4921.5335681262      9.25e-03  
 Alpha HF Exchange    Energy = -18.94111392167160
 Beta HF Exchange     Energy = -18.74592776965431
 DFT Correlation      Energy =  -5.14646894263624
 DFT Exchange         Energy = -150.03938827358124
 One-Electron (alpha) Energy = -4060.28889256674438
 One-Electron (beta)  Energy = -4004.48646460579812
 Total Coulomb        Energy = 2717.80312307172380
    3   -4921.5345708324      3.40e-03  
 Alpha HF Exchange    Energy = -19.04471156246069
 Beta HF Exchange     Energy = -18.84432301385451
 DFT Correlation      Energy =  -5.17867774968029
 DFT Exchange         Energy = -150.85335075078069
 One-Electron (alpha) Energy = -4071.06940170543612
 One-Electron (beta)  Energy = -4014.01168619253849
 Total Coulomb        Energy = 2739.14969085919620
    4   -4921.5418979396      3.03e-03  
 Alpha HF Exchange    Energy = -19.00991056115053
 Beta HF Exchange     Energy = -18.80945613287700
 DFT Correlation      Energy =  -5.16514635004074
 DFT Exchange         Energy = -150.56416866370762
 One-Electron (alpha) Energy = -4067.69558907907822
 One-Electron (beta)  Energy = -4010.90071053514839
 Total Coulomb        Energy = 2732.21369608538043
    5   -4921.6207230606      1.39e-03  
 Alpha HF Exchange    Energy = -19.00480201483743
 Beta HF Exchange     Energy = -18.80431486905327
 DFT Correlation      Energy =  -5.16508170513521
 DFT Exchange         Energy = -150.52824927164448
 One-Electron (alpha) Energy = -4067.19618678535517
 One-Electron (beta)  Energy = -4010.40184592107516
 Total Coulomb        Energy = 2731.14362186727249
    6   -4921.6462965238      5.25e-04  
 Alpha HF Exchange    Energy = -19.00360646348454
 Beta HF Exchange     Energy = -18.80282543850238
 DFT Correlation      Energy =  -5.16529846018779
 DFT Exchange         Energy = -150.52013550929803
 One-Electron (alpha) Energy = -4067.04319568581241
 One-Electron (beta)  Energy = -4010.26942522904437
 Total Coulomb        Energy = 2730.84283915044944
    7   -4921.6510854599      1.06e-04  
 Alpha HF Exchange    Energy = -19.00305076307140
 Beta HF Exchange     Energy = -18.80237416177878
 DFT Correlation      Energy =  -5.16503250645398
 DFT Exchange         Energy = -150.51555472925583
 One-Electron (alpha) Energy = -4066.95594244845825
 One-Electron (beta)  Energy = -4010.18480681317260
 Total Coulomb        Energy = 2730.66494478711456
    8   -4921.6512544591      2.74e-05  
 Alpha HF Exchange    Energy = -19.00326835210968
 Beta HF Exchange     Energy = -18.80252832139233
 DFT Correlation      Energy =  -5.16504400447696
 DFT Exchange         Energy = -150.51698705453805
 One-Electron (alpha) Energy = -4066.99787832077755
 One-Electron (beta)  Energy = -4010.21498282285347
 Total Coulomb        Energy = 2730.73886373520509
    9   -4921.6512629649      6.28e-06  
 Alpha HF Exchange    Energy = -19.00330059819399
 Beta HF Exchange     Energy = -18.80254945008090
 DFT Correlation      Energy =  -5.16506009661042
 DFT Exchange         Energy = -150.51720950003454
 One-Electron (alpha) Energy = -4067.00141551601155
 One-Electron (beta)  Energy = -4010.21485651294734
 Total Coulomb        Energy = 2730.74256593297832
   10   -4921.6512635649      2.35e-06  
 Alpha HF Exchange    Energy = -19.00330221622280
 Beta HF Exchange     Energy = -18.80255365884623
 DFT Correlation      Energy =  -5.16505851156529
 DFT Exchange         Energy = -150.51722553525718
 One-Electron (alpha) Energy = -4067.00203280244978
 One-Electron (beta)  Energy = -4010.21399362081638
 Total Coulomb        Energy = 2730.74234043098522
   11   -4921.6512637382      1.06e-06  
 Alpha HF Exchange    Energy = -19.00329915503277
 Beta HF Exchange     Energy = -18.80255394435677
 DFT Correlation      Energy =  -5.16505696960620
 DFT Exchange         Energy = -150.51721090424400
 One-Electron (alpha) Energy = -4067.00192725926217
 One-Electron (beta)  Energy = -4010.21344324998381
 Total Coulomb        Energy = 2730.74166552730821
   12   -4921.6512637792      8.68e-07  Convergence criterion met
 ---------------------------------------
 SCF time:   CPU 58.54s  wall 5.00s 
<S^2> =          2.005142606
 Alpha HF Exchange    Energy = -19.00329915503277
 Beta HF Exchange     Energy = -18.80255394435677
 DFT Correlation      Energy =  -5.16505696960620
 DFT Exchange         Energy = -150.51721090424400
 One-Electron (alpha) Energy = -4067.00192725926217
 One-Electron (beta)  Energy = -4010.21344324998381
 Total Coulomb        Energy = 2730.74166552730821
 Nuclear repulsion Energy = 618.31056217600110
 SCF   energy in the final basis set =    -4921.6512637792
 Total energy in the final basis set =    -4921.6512637792
 
 --------------------------------------------------------------
 
                    Orbital Energies (a.u.)
 --------------------------------------------------------------
 
 Alpha MOs
 -- Occupied --
*******-453.912 -58.112 -58.107 -52.169 -52.169 -52.168 -52.164
-52.163 -52.163 -10.257 -10.206 -10.189  -7.846  -7.841  -5.788
 -5.786  -5.785  -5.783  -5.780  -5.779  -2.121  -2.120  -2.119
 -2.118  -2.116  -2.116  -2.116  -2.115  -2.110  -2.110  -0.827
 -0.754  -0.673  -0.652  -0.580  -0.475  -0.466  -0.435  -0.409
 -0.390  -0.367  -0.351  -0.314  -0.298  -0.276  -0.255  -0.203
 -- Virtual --
 -0.011   0.013   0.093   0.118   0.133   0.144   0.160   0.172
  0.182   0.191   0.210   0.228   0.232   0.275   0.286   0.292
  0.299   0.319   0.363   0.429   0.444   0.468   0.475   0.493
  0.532   0.543   0.575   0.599   0.607   0.619   0.685   0.708
  0.750   0.787   0.796   0.829   0.847   0.866   0.880   0.886
  0.906   0.918   0.935   0.951   1.038   1.075   1.193   1.327
  1.362   1.445   1.510   1.547   1.602   1.633   1.683   1.689
  1.737   1.790   1.826   1.866   1.929   2.036   2.054   2.057
  2.090   2.124   2.137   2.242   2.281   2.360   2.419   2.450
  2.473   2.529   2.599   2.600   2.602   2.678   2.715   2.752
  2.814   2.873   2.896   3.181   3.274   3.302   3.411   3.458
  3.521   4.036   4.170   4.183   4.217   4.248   4.255   4.266
  4.301   4.357   4.419   4.443   4.495   4.626   4.667   5.425
  5.498  89.637  89.856
 
 Beta MOs
 -- Occupied --
*******-453.910 -58.111 -58.106 -52.168 -52.166 -52.165 -52.163
-52.161 -52.160 -10.257 -10.206 -10.189  -7.842  -7.838  -5.786
 -5.783  -5.780  -5.778  -5.774  -5.774  -2.118  -2.116  -2.115
 -2.115  -2.112  -2.111  -2.110  -2.110  -2.105  -2.105  -0.821
 -0.743  -0.646  -0.635  -0.573  -0.470  -0.463  -0.433  -0.406
 -0.384  -0.365  -0.345  -0.303  -0.262  -0.231
 -- Virtual --
 -0.167  -0.115  -0.003   0.022   0.095   0.119   0.136   0.147
  0.161   0.174   0.186   0.195   0.214   0.232   0.245   0.286
  0.301   0.307   0.316   0.334   0.371   0.443   0.456   0.486
  0.500   0.527   0.547   0.555   0.587   0.614   0.616   0.657
  0.694   0.714   0.761   0.792   0.807   0.835   0.849   0.868
  0.887   0.893   0.913   0.924   0.937   0.956   1.042   1.076
  1.193   1.328   1.365   1.449   1.518   1.560   1.605   1.634
  1.683   1.690   1.740   1.790   1.826   1.867   1.929   2.036
  2.055   2.058   2.091   2.124   2.138   2.242   2.281   2.360
  2.419   2.451   2.474   2.530   2.599   2.600   2.603   2.678
  2.715   2.752   2.814   2.873   2.896   3.181   3.274   3.302
  3.411   3.458   3.521   4.038   4.179   4.195   4.222   4.260
  4.267   4.275   4.311   4.364   4.421   4.450   4.503   4.626
  4.673   5.440   5.513  89.642  89.862
 --------------------------------------------------------------
 
          Ground-State Mulliken Net Atomic Charges

     Atom                 Charge (a.u.)    Spin (a.u.)
  --------------------------------------------------------
      1 C                    -0.252174      -0.042471
      2 H                     0.152160      -0.001182
      3 C                    -0.173311       0.002439
      4 H                     0.120377       0.001286
      5 H                     0.121061      -0.001505
      6 C                    -0.327814       0.002690
      7 H                     0.114036      -0.000263
      8 H                     0.125303      -0.000426
      9 H                     0.109151       0.000146
     10 Se                    0.034812       0.989012
     11 H                    -0.050724      -0.006202
     12 Se                    0.004114       1.053275
     13 H                     0.023011       0.003202
  --------------------------------------------------------
  Sum of atomic charges =    -0.000000
  Sum of spin   charges =     2.000000

 -----------------------------------------------------------------
                    Cartesian Multipole Moments
 -----------------------------------------------------------------
    Charge (ESU x 10^10)
                 0.0000
    Dipole Moment (Debye)
         X      -0.0613      Y       1.9209      Z       0.3473
       Tot       1.9530
    Quadrupole Moments (Debye-Ang)
        XX     -59.0437     XY       1.0269     YY     -55.1943
        XZ       0.9066     YZ      -0.4153     ZZ     -58.2613
    Octopole Moments (Debye-Ang^2)
       XXX    -120.4675    XXY     -19.6073    XYY     -40.7958
       YYY     -48.5512    XXZ      28.9338    XYZ       2.6395
       YYZ      28.3096    XZZ     -40.3934    YZZ     -14.8212
       ZZZ      83.7380
    Hexadecapole Moments (Debye-Ang^3)
      XXXX    -711.9241   XXXY    -177.0002   XXYY    -245.1343
      XYYY    -163.4184   YYYY    -789.5136   XXXZ     117.0572
      XXYZ      -9.1745   XYYZ      41.0195   YYYZ     -43.7186
      XXZZ    -172.2676   XYZZ     -60.7939   YYZZ    -182.8683
      XZZZ     123.1423   YZZZ     -45.3905   ZZZZ    -320.5550
 -----------------------------------------------------------------
 Calculating analytic gradient of the SCF energy
 Gradient of SCF Energy
            1           2           3           4           5           6
    1  -0.0000630  -0.0000185   0.0000667   0.0000029  -0.0000189   0.0000042
    2   0.0000956  -0.0000070  -0.0000701   0.0000166   0.0000040   0.0000155
    3  -0.0000484   0.0000094  -0.0000174   0.0000064   0.0000091  -0.0000057
            7           8           9          10          11          12
    1  -0.0000061  -0.0000156  -0.0000254  -0.0163860   0.0165754   0.0000025
    2  -0.0000011   0.0000139   0.0000038  -0.0214491   0.0213741   0.0000354
    3  -0.0000088  -0.0000277   0.0000019   0.0052470  -0.0052133  -0.0000248
           13
    1  -0.0001182
    2  -0.0000315
    3   0.0000723
 Max gradient component =       2.145E-02
 RMS gradient           =       6.233E-03
 Gradient time:  CPU 19.36 s  wall 1.70 s
 Geometry Optimization Parameters
   NAtoms,    NIC,     NZ,  NCons,   NDum,   NFix, NCnnct, MaxDiis
       13      90       0       1       0       0       0       0

 Cartesian Hessian Update
 Hessian Updated using BFGS Update


** CONSTRAINED OPTIMIZATION IN DELOCALIZED INTERNAL COORDINATES **
   Searching for a Minimum

   Optimization Cycle:  16

                       Coordinates (Angstroms)
     ATOM                X               Y               Z
      1  C         0.4504317308    0.9227554262   -0.6453323753
      2  H         0.0001489135    1.4731090442   -1.4713222367
      3  C         0.7633923269    1.8147289458    0.5449906292
      4  H        -0.1937527812    2.1588179477    0.9602312610
      5  H         1.2501952987    1.2243557113    1.3282785612
      6  C         1.6272586127    3.0261631561    0.1710562104
      7  H         1.8062181854    3.6562810945    1.0475112256
      8  H         2.5986188644    2.7141599429   -0.2242702022
      9  H         1.1357466523    3.6419475027   -0.5897837286
     10  Se       -0.5683027356   -0.7417788391   -0.2774415872
     11  H        -1.7634426540   -2.3005732729    0.0991227561
     12  Se        1.9101776789   -0.2290315185   -1.3105627935
     13  H        -2.1844970928   -2.9120331410    0.2410192800
   Point Group: c1    Number of degrees of freedom:    33


   Energy is  -4921.651263779

              Constraints and their Current Values
                                        Value     Constraint
   Distance(Angs):       10  11             2.000000     2.000000
 Hessian Updated using BFGS Update

 32 Hessian modes will be used to form the next step
  Hessian Eigenvalues:
     0.002457    0.004451    0.027084    0.045263    0.067884    0.074682
     0.078094    0.082630    0.083186    0.093981    0.103890    0.116712
     0.127640    0.132815    0.141772    0.150065    0.160008    0.160030
     0.161045    0.166092    0.176968    0.199991    0.221288    0.290899
     0.303870    0.338314    0.342446    0.342556    0.343481    0.343701
     0.348396    0.469142

 Minimum Search - Taking Simple RFO Step
 Searching for Lamda that Minimizes Along All modes
 Value Taken    Lamda =   0.00000000
 Step Taken.  Stepsize is  0.005340

                             Maximum     Tolerance    Cnvgd?
         Gradient           0.000119      0.000300     YES
         Displacement       0.002535      0.001200      NO
         Energy change     -0.000001      0.000001     YES


                       Distance Matrix (Angstroms)
             C (  1)   H (  2)   C (  3)   H (  4)   H (  5)   C (  6)
   H (  2)  1.089910
   C (  3)  1.520010  2.182834
   H (  4)  2.126184  2.533821  1.098612
   H (  5)  2.150750  3.076078  1.095015  1.758882
   C (  6)  2.544747  2.785116  1.534166  2.165910  2.174362
   H (  7)  3.489418  3.791128  2.175161  2.499980  2.510429  1.094189
   H (  8)  2.828627  3.138055  2.183757  3.083632  2.539325  1.094153
   H (  9)  2.804772  2.602029  2.182908  2.523844  3.088173  1.095286
   Se( 10)  1.985910  2.579577  2.997589  3.175781  3.122652  4.383951
   H ( 11)  3.980616  4.451655  4.849681  4.805372  4.797704  6.314757
   Se( 12)  1.974843  2.563462  2.989172  3.909585  3.084055  3.587692
   H ( 13)  4.736462  5.189823  5.578954  5.494894  5.485340  7.056667
             H (  7)   H (  8)   H (  9)   Se( 10)   H ( 11)   Se( 12)
   H (  8)  1.770005
   H (  9)  1.769314  1.770419
   Se( 10)  5.170762  4.687828  4.713640
   H ( 11)  7.008997  6.654300  6.647815  2.000000
   Se( 12)  4.546094  3.211909  4.012947  2.733700  4.446795
   H ( 13)  7.727806  7.399239  7.393843  2.755157  0.755847  5.135393

 
 Final energy is   -4921.65126377918     


 ******************************
 **  OPTIMIZATION CONVERGED  **
 ******************************

                       Coordinates (Angstroms)
     ATOM                X               Y               Z
      1  C         0.4504317308    0.9227554262   -0.6453323753
      2  H         0.0001489135    1.4731090442   -1.4713222367
      3  C         0.7633923269    1.8147289458    0.5449906292
      4  H        -0.1937527812    2.1588179477    0.9602312610
      5  H         1.2501952987    1.2243557113    1.3282785612
      6  C         1.6272586127    3.0261631561    0.1710562104
      7  H         1.8062181854    3.6562810945    1.0475112256
      8  H         2.5986188644    2.7141599429   -0.2242702022
      9  H         1.1357466523    3.6419475027   -0.5897837286
     10  Se       -0.5683027356   -0.7417788391   -0.2774415872
     11  H        -1.7634426540   -2.3005732729    0.0991227561
     12  Se        1.9101776789   -0.2290315185   -1.3105627935
     13  H        -2.1844970928   -2.9120331410    0.2410192800

Z-matrix Print:
$molecule
0 3
Se
C  1 1.985910
H  2 1.089910 1 110.591232
C  2 1.520010 1 116.898187 3 130.423143 0
H  4 1.095015 2 109.592023 1 52.792470 0
H  4 1.098612 2 107.481690 1 -62.685460 0
C  4 1.534166 2 112.857441 1 176.360224 0
H  7 1.094153 4 111.271519 2 -61.600461 0
H  7 1.094189 4 110.584760 2 178.415286 0
H  7 1.095286 4 111.135273 2 58.700168 0
Se 2 1.974843 1 87.290957 3 -110.533298 0
H  1 2.000000 2 174.093157 3 -51.127022 0
H  12 0.755847 1 177.125846 2 -179.212769 0
$end

PES scan, value:    2.0000 energy: -4921.6512637792
------- Summary of potential scan: ------ 
    2.0000     -4921.6512637792
----------------------------------------- 
Archival summary:
1\1\hpc0248\JobtypUnspecified\ProcedureUnspecified\6-31G**\e238(3)\knomura\ThuMar1404:40:322019ThuMar1404:40:322019\0\\#,JobtypUnspecified,ProcedureUnspecified,6-31G**,\\0,3\Se\C,1,1.98591\H,2,1.08991,1,110.591\C,2,1.52001,1,116.898,3,130.423,0\H,4,1.09501,2,109.592,1,52.7925,0\H,4,1.09861,2,107.482,1,-62.6855,0\C,4,1.53417,2,112.857,1,176.36,0\H,7,1.09415,4,111.272,2,-61.6005,0\H,7,1.09419,4,110.585,2,178.415,0\H,7,1.09529,4,111.135,2,58.7002,0\Se,2,1.97484,1,87.291,3,-110.533,0\H,1,2,2,174.093,3,-51.127,0\H,12,0.755847,1,177.126,2,-179.213,0\\\@

 Total job time:  111.62s(wall), 1306.68s(cpu) 
 Thu Mar 14 04:40:32 2019

        *************************************************************
        *                                                           *
        *  Thank you very much for using Q-Chem.  Have a nice day.  *
        *                                                           *
        *************************************************************


