
Running Job 1 of 1 selenium/02/Se-H.xyz.data/inputs/bond_singlet_1.5.in
qchem selenium/02/Se-H.xyz.data/inputs/bond_singlet_1.5.in_32649.0 /staging/scratch/2868765/qchem32649/ 1
/usr/usc/qchem/5.1.1/exe/qcprog.exe_s selenium/02/Se-H.xyz.data/inputs/bond_singlet_1.5.in_32649.0 /staging/scratch/2868765/qchem32649/
Check license passed

                  Welcome to Q-Chem
     A Quantum Leap Into The Future Of Chemistry


 Q-Chem 5.1, Q-Chem, Inc., Pleasanton, CA (2018)

 Yihan Shao,  Zhengting Gan,  E. Epifanovsky,  A. T. B. Gilbert,  M. Wormit,  
 J. Kussmann,  A. W. Lange,  A. Behn,  Jia Deng,  Xintian Feng,  D. Ghosh,  
 M. Goldey,  P. R. Horn,  L. D. Jacobson,  I. Kaliman,  T. Kus,  A. Landau,  
 Jie Liu,  E. I. Proynov,  R. M. Richard,  R. P. Steele,  E. J. Sundstrom,  
 H. L. Woodcock III,  P. M. Zimmerman,  D. Zuev,  B. Albrecht,  E. Alguire,  
 S. A. Baeppler,  D. Barton,  Z. Benda,  Y. A. Bernard,  E. J. Berquist,  
 K. B. Bravaya,  H. Burton,  D. Casanova,  Chun-Min Chang,  Yunqing Chen,  
 A. Chien,  K. D. Closser,  M. P. Coons,  S. Coriani,  S. Dasgupta,  
 A. L. Dempwolff,  M. Diedenhofen,  Hainam Do,  R. G. Edgar,  Po-Tung Fang,  
 S. Faraji,  S. Fatehi,  Qingguo Feng,  K. D. Fenk,  J. Fosso-Tande,  
 Qinghui Ge,  A. Ghysels,  G. Gidofalvi,  J. Gomes,  J. Gonthier,  A. Gunina,  
 D. Hait,  M. W. D. Hanson-Heine,  P. H. P. Harbach,  A. W. Hauser,  
 J. E. Herr,  E. G. Hohenstein,  Z. C. Holden,  Kerwin Hui,  B. C. Huynh,  
 T.-C. Jagau,  Hyunjun Ji,  B. Kaduk,  K. Khistyaev,  Jaehoon Kim,  
 P. Klunzinger,  K. Koh,  D. Kosenkov,  L. Koulias,  T. Kowalczyk,  
 C. M. Krauter,  A. Kunitsa,  Ka Un Lao,  A. Laurent,  K. V. Lawler,  
 Joonho Lee,  D. Lefrancois,  S. Lehtola,  D. S. Levine,  Yi-Pei Li,  
 You-Sheng Lin,  Fenglai Liu,  E. Livshits,  A. Luenser,  P. Manohar,  
 E. Mansoor,  S. F. Manzer,  Shan-Ping Mao,  Yuezhi Mao,  N. Mardirossian,  
 A. V. Marenich,  T. Markovich,  L. A. Martinez-Martinez,  S. A. Maurer,  
 N. J. Mayhall,  S. C. McKenzie,  J.-M. Mewes,  A. F. Morrison,  
 J. W. Mullinax,  K. Nanda,  T. S. Nguyen-Beck,  R. Olivares-Amaya,  
 J. A. Parkhill,  T. M. Perrine,  F. Plasser,  P. Pokhilko,  S. Prager,  
 A. Prociuk,  E. Ramos,  D. R. Rehn,  F. Rob,  M. Schneider,  N. Sergueev,  
 S. M. Sharada,  S. Sharma,  D. W. Small,  T. Stauch,  T. Stein,  
 Yu-Chuan Su,  A. J. W. Thom,  A. Tkatchenko,  T. Tsuchimochi,  N. M. Tubman,  
 L. Vogt,  M. L. Vidal,  O. Vydrov,  M. A. Watson,  J. Wenzel,  
 M. de Wergifosse,  T. A. Wesolowski,  A. White,  J. Witte,  A. Yamada,  
 Jun Yang,  K. Yao,  S. Yeganeh,  S. R. Yost,  Zhi-Qiang You,  A. Zech,  
 Igor Ying Zhang,  Xing Zhang,  Yan Zhao,  Ying Zhu,  B. R. Brooks,  
 G. K. L. Chan,  C. J. Cramer,  M. S. Gordon,  W. J. Hehre,  A. Klamt,  
 M. W. Schmidt,  C. D. Sherrill,  D. G. Truhlar,  A. Aspuru-Guzik,  R. Baer,  
 A. T. Bell,  N. A. Besley,  Jeng-Da Chai,  A. E. DePrince, III,  
 R. A. DiStasio Jr.,  A. Dreuw,  B. D. Dunietz,  T. R. Furlani,  
 Chao-Ping Hsu,  Yousung Jung,  Jing Kong,  D. S. Lambrecht,  WanZhen Liang,  
 C. Ochsenfeld,  V. A. Rassolov,  L. V. Slipchenko,  J. E. Subotnik,  
 T. Van Voorhis,  J. M. Herbert,  A. I. Krylov,  P. M. W. Gill,  M. Head-Gordon

 Contributors to earlier versions of Q-Chem not listed above: 
 R. D. Adamson,  B. Austin,  J. Baker,  G. J. O. Beran,  K. Brandhorst,  
 S. T. Brown,  E. F. C. Byrd,  A. K. Chakraborty,  C.-L. Cheng,  
 Siu Hung Chien,  D. M. Chipman,  D. L. Crittenden,  H. Dachsel,  
 R. J. Doerksen,  A. D. Dutoi,  L. Fusti-Molnar,  W. A. Goddard III,  
 A. Golubeva-Zadorozhnaya,  S. R. Gwaltney,  G. Hawkins,  A. Heyden,  
 S. Hirata,  G. Kedziora,  F. J. Keil,  C. Kelley,  Jihan Kim,  R. A. King,  
 R. Z. Khaliullin,  P. P. Korambath,  W. Kurlancheek,  A. M. Lee,  M. S. Lee,  
 S. V. Levchenko,  Ching Yeh Lin,  D. Liotard,  R. C. Lochan,  I. Lotan,  
 P. E. Maslen,  N. Nair,  D. P. O'Neill,  D. Neuhauser,  E. Neuscamman,  
 C. M. Oana,  R. Olson,  B. Peters,  R. Peverati,  P. A. Pieniazek,  
 Y. M. Rhee,  J. Ritchie,  M. A. Rohrdanz,  E. Rosta,  N. J. Russ,  
 H. F. Schaefer III,  N. E. Schultz,  N. Shenvi,  A. C. Simmonett,  A. Sodt,  
 D. Stuck,  K. S. Thanthiriwatte,  V. Vanovschi,  Tao Wang,  A. Warshel,  
 C. F. Williams,  Q. Wu,  X. Xu,  W. Zhang

 Please cite Q-Chem as follows:
 Y. Shao et al., Mol. Phys. 113, 184-215 (2015)
 DOI: 10.1080/00268976.2014.952696

 Q-Chem 5.1.1 for Intel X86 EM64T Linux

 Parts of Q-Chem use Armadillo 8.300.2 (Tropical Shenanigans).
 http://arma.sourceforge.net/

 Q-Chem begins on Thu Mar 14 00:37:32 2019  

Host: 
0

     Scratch files written to /staging/scratch/2868765/qchem32649//
 Aug318 |scratch|qcdevops|jenkins|workspace|build_RNUM 6013   
Processing $rem in /usr/usc/qchem/5.1.1/config/preferences.
 MEM_TOTAL  2000 
Input Ideriv = 2
Curr. Ideriv = -1
Max.  Ideriv = 2

Checking the input file for inconsistencies... 	...done.

--------------------------------------------------------------
User input:
--------------------------------------------------------------

$comment
potential surface scanner
$end

$rem
JOBTYPE  PES_SCAN
UNRESTRICTED TRUE
SYM_IGNORE  TRUE
GEOM_OPT_MAX_CYCLES 400
SCF_MAX_CYCLES 400
METHOD   B3LYP
BASIS   6-31G**
PDB_PRINT 2
SCF_CONVERGENCE 6
THRESH 14
SCF_PRINT 1
$end
$molecule
0 1
C 0.034100 0.572900 -0.443500
H 0.076700 0.782000 -1.512400
C 0.317600 1.856700 0.339100
H -0.478400 2.578000 0.154400
H 0.362900 1.630300 1.404300
C 1.654900 2.445600 -0.114500
H 1.856900 3.360200 0.443000
H 2.450900 1.724300 0.070100
H 1.609600 2.672000 -1.179800
Se -1.749100 -0.095100 0.021000
H -1.828300 -1.374900 -0.867600
Se 1.377500 -0.779800 0.011600
H 1.146900 -0.923300 1.547800
$end
$scan
stre 10 11 1.500000 1.501000 0.100000
$end
--------------------------------------------------------------
 ----------------------------------------------------------------
             Standard Nuclear Orientation (Angstroms)
    I     Atom           X                Y                Z
 ----------------------------------------------------------------
    1      C       0.0341000000     0.5729000000    -0.4435000000
    2      H       0.0767000000     0.7820000000    -1.5124000000
    3      C       0.3176000000     1.8567000000     0.3391000000
    4      H      -0.4784000000     2.5780000000     0.1544000000
    5      H       0.3629000000     1.6303000000     1.4043000000
    6      C       1.6549000000     2.4456000000    -0.1145000000
    7      H       1.8569000000     3.3602000000     0.4430000000
    8      H       2.4509000000     1.7243000000     0.0701000000
    9      H       1.6096000000     2.6720000000    -1.1798000000
   10      Se     -1.7491000000    -0.0951000000     0.0210000000
   11      H      -1.8283000000    -1.3749000000    -0.8676000000
   12      Se      1.3775000000    -0.7798000000     0.0116000000
   13      H       1.1469000000    -0.9233000000     1.5478000000
 ----------------------------------------------------------------
 Nuclear Repulsion Energy =   610.2149414962 hartrees
 There are       47 alpha and       47 beta electrons
 Requested basis set is 6-31G(d,p)
 There are 52 shells and 155 basis functions

 Total QAlloc Memory Limit   2000 MB
 Mega-Array Size       188 MB
 MEM_STATIC part       192 MB
A total of 1 constraints
  
            1
    1   1.0100000
    2  10.0100000
    3  11.0100000
    4   1.5000000
    5   1.5010000
    6   0.1000000
    7   0.0000000
    8   0.0000000
    9   0.0000000
   10   0.0000000

                       Distance Matrix (Angstroms)
             C (  1)   H (  2)   C (  3)   H (  4)   H (  5)   C (  6)
   H (  2)  1.089993
   C (  3)  1.530025  2.154313
   H (  4)  2.154197  2.512364  1.089956
   H (  5)  2.154198  3.051010  1.089936  1.779936
   C (  6)  2.498447  2.685592  1.530009  2.154253  2.154236
   H (  7)  3.446378  3.693212  2.154240  2.479668  2.479655  1.090002
   H (  8)  2.725881  3.004840  2.154265  3.052328  2.479651  1.089939
   H (  9)  2.725905  2.456116  2.154306  2.479651  3.052372  1.090034
   Se( 10)  1.960048  2.540505  2.860413  2.962758  3.057952  4.249792
   H ( 11)  2.728061  2.949069  4.062542  4.300248  4.358224  5.224563
   Se( 12)  1.960009  2.540448  2.860380  3.839216  2.962703  3.239762
   H ( 13)  2.728042  3.663086  3.142784  4.103933  2.675093  3.790883
             H (  7)   H (  8)   H (  9)   Se( 10)   H ( 11)   Se( 12)
   H (  8)  1.779904
   H (  9)  1.779960  1.779936
   Se( 10)  5.012027  4.577404  4.514380
   H ( 11)  6.141624  5.366179  5.319213  1.560055
   Se( 12)  4.189932  2.725092  3.658993  3.200708  3.377024
   H ( 13)  4.480296  3.300576  4.536527  3.376959  3.858745  1.560025

 
 A cutoff of  1.0D-14 yielded   1254 shell pairs
 There are     11192 function pairs
 
 -------------------------------------------------------
 OpenMP Integral Computing Module                       
 Release: version 1.0, May 2013, Q-Chem Inc. Pittsburgh 
 -------------------------------------------------------
 Integral Job Info:
 Integral job number is                      11
 Integral operator is                         1
 short-range coefficients                     0
 long-range coefficients              100000000
 Omega coefficients                           0
 if combine SR and LR in K                    0
 Integral screening is                        0
 Integral computing path is                   2
 max size of driver memory is            800000
 size of driver memory is                593474
 size of scratch memory is             15267112
 max col of scratch BK array               1296
 max len of scratch array in speh3          155
 max len of scratch index in speh4           18
 max int batch size is                      520
 min int batch size is                       52
 fixed nKL is                                52
 max L of basis functions is                  2
 order of int derivative is                   0
 number of shells is                         52
 number of basis is                         155
 number of cartesian basis is               155
 number of contracted shell pairs          1254
 number of primitive shell pairs           5102
 maxK2 (contraction) of shell pair           36
 max number of K2 of shell pair               1
 max number of CS2 of shell pair             82
 max number of PS2 of shell pair            486
 mem total for path MDJ                  537180
 -------------------------------------------------------
 Smallest overlap matrix eigenvalue = 6.73E-04

 Scale SEOQF with 1.000000e-01/1.000000e-01/1.000000e-01

 Standard Electronic Orientation quadrupole field applied
 Nucleus-field energy     =     0.0000000142 hartrees
 Guess from superposition of atomic densities
 Warning:  Energy on first SCF cycle will be non-variational
 SAD guess density has 93.936381 electrons

 -----------------------------------------------------------------------
  General SCF calculation program by
  Eric Jon Sundstrom, Paul Horn, Yuezhi Mao, Dmitri Zuev, Alec White,
  David Stuck, Shaama M.S., Shane Yost, Joonho Lee, David Small,
  Daniel Levine, Susi Lehtola, Hugh Burton, Evgeny Epifanovsky
 -----------------------------------------------------------------------
 Exchange:     0.2000 Hartree-Fock + 0.0800 Slater + 0.7200 B88
 Correlation:  0.1900 VWN1RPA + 0.8100 LYP
 Using SG-1 standard quadrature grid
 using 12 threads for integral computing
 -------------------------------------------------------
 OpenMP Integral computing Module                
 Release: version 1.0, May 2013, Q-Chem Inc. Pittsburgh 
 -------------------------------------------------------
 -------------------------------------------------------
 OpenMP BLAS3 based DFT computing Module                
 Release: version 1.0, May 2013, Q-Chem Inc. Pittsburgh 
 -------------------------------------------------------
 A unrestricted SCF calculation will be
 performed using DIIS
 SCF converges when DIIS error is below 1.0e-06
 Alpha HF Exchange    Energy = -18.88088981603169
 Beta HF Exchange     Energy = -18.88088981603169
 DFT Correlation      Energy =  -5.14675623099071
 DFT Exchange         Energy = -149.91783501154578
 One-Electron (alpha) Energy = -4027.77226392166403
 One-Electron (beta)  Energy = -4027.77226392166403
 Total Coulomb        Energy = 2710.12536221476739
 ---------------------------------------
  Cycle       Energy         DIIS error
 ---------------------------------------
    1   -4928.0305949928      1.51e-01  
 Alpha HF Exchange    Energy = -18.97631791032201
 Beta HF Exchange     Energy = -18.97631791032202
 DFT Correlation      Energy =  -5.20098027640877
 DFT Exchange         Energy = -151.07399137078224
 One-Electron (alpha) Energy = -4038.62911529100029
 One-Electron (beta)  Energy = -4038.62911529100120
 Total Coulomb        Energy = 2739.69811555823117
    2   -4921.5727809812      9.36e-03  
 Alpha HF Exchange    Energy = -18.83771322383401
 Beta HF Exchange     Energy = -18.83771322383401
 DFT Correlation      Energy =  -5.15602290845031
 DFT Exchange         Energy = -149.96023387035302
 One-Electron (alpha) Energy = -4022.55343867430838
 One-Electron (beta)  Energy = -4022.55343867430838
 Total Coulomb        Energy = 2706.12093351881413
    3   -4921.5626855459      3.92e-03  
 Alpha HF Exchange    Energy = -18.95737727360580
 Beta HF Exchange     Energy = -18.95737727360580
 DFT Correlation      Energy =  -5.19510633503697
 DFT Exchange         Energy = -150.91481652244005
 One-Electron (alpha) Energy = -4036.28042149739986
 One-Electron (beta)  Energy = -4036.28042149739986
 Total Coulomb        Energy = 2734.75194401732506
    4   -4921.6186348718      3.03e-03  
 Alpha HF Exchange    Energy = -18.91272033010712
 Beta HF Exchange     Energy = -18.91272033010714
 DFT Correlation      Energy =  -5.17924607506018
 DFT Exchange         Energy = -150.55372884452720
 One-Electron (alpha) Energy = -4031.37034473199765
 One-Electron (beta)  Energy = -4031.37034473199856
 Total Coulomb        Energy = 2724.37553457120248
    5   -4921.7086289622      7.96e-04  
 Alpha HF Exchange    Energy = -18.90956306901649
 Beta HF Exchange     Energy = -18.90956306901650
 DFT Correlation      Energy =  -5.17954333311258
 DFT Exchange         Energy = -150.53238894285312
 One-Electron (alpha) Energy = -4031.04287574755153
 One-Electron (beta)  Energy = -4031.04287574755199
 Total Coulomb        Energy = 2723.68565718711443
    6   -4921.7162112116      9.08e-05  
 Alpha HF Exchange    Energy = -18.90863755120244
 Beta HF Exchange     Energy = -18.90863755120244
 DFT Correlation      Energy =  -5.17907677905224
 DFT Exchange         Energy = -150.52456697312135
 One-Electron (alpha) Energy = -4030.87775429454496
 One-Electron (beta)  Energy = -4030.87775429454405
 Total Coulomb        Energy = 2723.34517647613120
    7   -4921.7163094572      3.02e-05  
 Alpha HF Exchange    Energy = -18.90885283871464
 Beta HF Exchange     Energy = -18.90885283871463
 DFT Correlation      Energy =  -5.17910067692377
 DFT Exchange         Energy = -150.52619483042886
 One-Electron (alpha) Energy = -4030.92124572443527
 One-Electron (beta)  Energy = -4030.92124572443481
 Total Coulomb        Energy = 2723.43423121583055
    8   -4921.7163199074      1.02e-05  
 Alpha HF Exchange    Energy = -18.90886838031052
 Beta HF Exchange     Energy = -18.90886838031050
 DFT Correlation      Energy =  -5.17912556307716
 DFT Exchange         Energy = -150.52634504096795
 One-Electron (alpha) Energy = -4030.92167488121822
 One-Electron (beta)  Energy = -4030.92167488121640
 Total Coulomb        Energy = 2723.43529454476356
    9   -4921.7163210720      6.91e-07  Convergence criterion met
 ---------------------------------------
 SCF time:   CPU 46.26s  wall 4.00s 
<S^2> =         -0.000000000
 Alpha HF Exchange    Energy = -18.90886838031052
 Beta HF Exchange     Energy = -18.90886838031050
 DFT Correlation      Energy =  -5.17912556307716
 DFT Exchange         Energy = -150.52634504096795
 One-Electron (alpha) Energy = -4030.92167488121822
 One-Electron (beta)  Energy = -4030.92167488121640
 Total Coulomb        Energy = 2723.43529454476356
 Nuclear repulsion Energy = 610.21494151037882
 SCF   energy in the final basis set =    -4921.7163210720
 Total energy in the final basis set =    -4921.7163210720
 
 --------------------------------------------------------------
 
                    Orbital Energies (a.u.)
 --------------------------------------------------------------
 
 Alpha MOs
 -- Occupied --
*******-453.900 -58.096 -58.096 -52.153 -52.153 -52.152 -52.152
-52.149 -52.149 -10.257 -10.204 -10.181  -7.829  -7.829  -5.775
 -5.775  -5.770  -5.770  -5.761  -5.761  -2.108  -2.108  -2.108
 -2.108  -2.100  -2.100  -2.096  -2.096  -2.095  -2.095  -0.828
 -0.739  -0.688  -0.642  -0.584  -0.475  -0.441  -0.438  -0.396
 -0.374  -0.362  -0.352  -0.341  -0.305  -0.243  -0.214
 -- Virtual --
 -0.017   0.013   0.020   0.033   0.094   0.119   0.149   0.154
  0.169   0.174   0.194   0.218   0.224   0.258   0.273   0.288
  0.302   0.319   0.327   0.359   0.446   0.460   0.474   0.509
  0.514   0.560   0.588   0.617   0.624   0.631   0.663   0.680
  0.693   0.760   0.775   0.809   0.843   0.860   0.860   0.888
  0.917   0.928   0.935   0.953   0.996   1.007   1.050   1.118
  1.330   1.410   1.463   1.549   1.569   1.626   1.658   1.712
  1.786   1.830   1.882   1.970   2.035   2.048   2.058   2.061
  2.071   2.079   2.093   2.109   2.123   2.164   2.267   2.308
  2.370   2.436   2.478   2.525   2.539   2.562   2.588   2.678
  2.721   2.743   2.829   2.898   2.916   3.209   3.281   3.312
  3.408   3.472   3.538   4.192   4.267   4.275   4.323   4.346
  4.352   4.366   4.390   4.414   4.430   4.527   4.548   4.645
  5.463   5.479  89.757  89.815
 
 Beta MOs
 -- Occupied --
*******-453.900 -58.096 -58.096 -52.153 -52.153 -52.152 -52.152
-52.149 -52.149 -10.257 -10.204 -10.181  -7.829  -7.829  -5.775
 -5.775  -5.770  -5.770  -5.761  -5.761  -2.108  -2.108  -2.108
 -2.108  -2.100  -2.100  -2.096  -2.096  -2.095  -2.095  -0.828
 -0.739  -0.688  -0.642  -0.584  -0.475  -0.441  -0.438  -0.396
 -0.374  -0.362  -0.352  -0.341  -0.305  -0.243  -0.214
 -- Virtual --
 -0.017   0.013   0.020   0.033   0.094   0.119   0.149   0.154
  0.169   0.174   0.194   0.218   0.224   0.258   0.273   0.288
  0.302   0.319   0.327   0.359   0.446   0.460   0.474   0.509
  0.514   0.560   0.588   0.617   0.624   0.631   0.663   0.680
  0.693   0.760   0.775   0.809   0.843   0.860   0.860   0.888
  0.917   0.928   0.935   0.953   0.996   1.007   1.050   1.118
  1.330   1.410   1.463   1.549   1.569   1.626   1.658   1.712
  1.786   1.830   1.882   1.970   2.035   2.048   2.058   2.061
  2.071   2.079   2.093   2.109   2.123   2.164   2.267   2.308
  2.370   2.436   2.478   2.525   2.539   2.562   2.588   2.678
  2.721   2.743   2.829   2.898   2.916   3.209   3.281   3.312
  3.408   3.472   3.538   4.192   4.267   4.275   4.323   4.346
  4.352   4.366   4.390   4.414   4.430   4.527   4.548   4.645
  5.463   5.479  89.757  89.815
 --------------------------------------------------------------
 
          Ground-State Mulliken Net Atomic Charges

     Atom                 Charge (a.u.)    Spin (a.u.)
  --------------------------------------------------------
      1 C                    -0.220328      -0.000000
      2 H                     0.159612      -0.000000
      3 C                    -0.193281       0.000000
      4 H                     0.121386      -0.000000
      5 H                     0.119824      -0.000000
      6 C                    -0.327363      -0.000000
      7 H                     0.108411       0.000000
      8 H                     0.146157       0.000000
      9 H                     0.104844       0.000000
     10 Se                   -0.070353      -0.000000
     11 H                     0.057498      -0.000000
     12 Se                   -0.066420      -0.000000
     13 H                     0.060012       0.000000
  --------------------------------------------------------
  Sum of atomic charges =    -0.000000
  Sum of spin   charges =    -0.000000

 -----------------------------------------------------------------
                    Cartesian Multipole Moments
 -----------------------------------------------------------------
    Charge (ESU x 10^10)
                -0.0000
    Dipole Moment (Debye)
         X       0.4245      Y       1.0314      Z      -0.1580
       Tot       1.1265
    Quadrupole Moments (Debye-Ang)
        XX     -62.2292     XY       2.1919     YY     -56.1097
        XZ       1.3970     YZ       0.1145     ZZ     -55.0847
    Octopole Moments (Debye-Ang^2)
       XXX     -23.8544    XXY     -23.2589    XYY      -8.6946
       YYY     -43.5653    XXZ       2.6429    XYZ      -4.2942
       YYZ       1.7599    XZZ      -2.9403    YZZ     -16.6180
       ZZZ       0.3869
    Hexadecapole Moments (Debye-Ang^3)
      XXXX    -804.8391   XXXY     -46.2211   XXYY    -222.2935
      XYYY     -53.6060   YYYY    -582.5032   XXXZ      -6.3927
      XXYZ       4.1424   XYYZ       5.3532   YYYZ       3.2617
      XXZZ    -151.1909   XYZZ     -19.8092   YYZZ    -113.9473
      XZZZ      -2.4041   YZZZ      -2.7634   ZZZZ    -111.3483
 -----------------------------------------------------------------
 Calculating analytic gradient of the SCF energy
 Gradient of SCF Energy
            1           2           3           4           5           6
    1   0.0031738  -0.0044481  -0.0045263   0.0043888   0.0037936   0.0048157
    2   0.0025744   0.0063499   0.0006914  -0.0026889  -0.0013767  -0.0027679
    3  -0.0145295   0.0017621   0.0069615  -0.0016440  -0.0037336  -0.0053018
            7           8           9          10          11          12
    1  -0.0026847  -0.0029830  -0.0033400   0.0219872  -0.0076247  -0.0154924
    2  -0.0032246  -0.0025889  -0.0026569   0.0166527  -0.0236207   0.0205377
    3   0.0008600   0.0012628   0.0029615   0.0116447  -0.0146884  -0.0132841
           13
    1   0.0029403
    2  -0.0078816
    3   0.0277287
 Max gradient component =       2.773E-02
 RMS gradient           =       1.006E-02
 Gradient time:  CPU 20.50 s  wall 1.79 s
 Geometry Optimization Parameters
   NAtoms,    NIC,     NZ,  NCons,   NDum,   NFix, NCnnct, MaxDiis
       13      82       0       1       0       0       0       0


** CONSTRAINED OPTIMIZATION IN DELOCALIZED INTERNAL COORDINATES **
   Searching for a Minimum

   Optimization Cycle:   1

                       Coordinates (Angstroms)
     ATOM                X               Y               Z
      1  C         0.0341000000    0.5729000000   -0.4435000000
      2  H         0.0767000000    0.7820000000   -1.5124000000
      3  C         0.3176000000    1.8567000000    0.3391000000
      4  H        -0.4784000000    2.5780000000    0.1544000000
      5  H         0.3629000000    1.6303000000    1.4043000000
      6  C         1.6549000000    2.4456000000   -0.1145000000
      7  H         1.8569000000    3.3602000000    0.4430000000
      8  H         2.4509000000    1.7243000000    0.0701000000
      9  H         1.6096000000    2.6720000000   -1.1798000000
     10  Se       -1.7491000000   -0.0951000000    0.0210000000
     11  H        -1.8283000000   -1.3749000000   -0.8676000000
     12  Se        1.3775000000   -0.7798000000    0.0116000000
     13  H         1.1469000000   -0.9233000000    1.5478000000
   Point Group: c1    Number of degrees of freedom:    33


   Energy is  -4921.716321072

              Constraints and their Current Values
                                        Value     Constraint
   Distance(Angs):       10  11             1.560055     1.500000

 Attempting to Generate Delocalized Internal Coordinates

   Using Lagrange Multiplier Algorithm


 34 Hessian modes will be used to form the next step
  Hessian Eigenvalues:
    -0.930238    0.045000    0.045000    0.045000    0.045000    0.071290
     0.079478    0.083853    0.084996    0.085000    0.089581    0.099112
     0.108032    0.128632    0.144767    0.160000    0.160000    0.160000
     0.160000    0.160000    0.166922    0.166938    0.193769    0.208843
     0.219836    0.294211    0.294226    0.348088    0.348125    0.348134
     0.348177    0.348197    0.348201    1.074994

 Minimum Search - Taking P-RFO Step
 Searching for Lamda that Maximizes Along the Constraint modes Only
 Value Taken    Lamda =   0.00436969
 Searching for Lamda that Minimizes Along All other modes
 Value Taken    Lamda =  -0.02929146
 Calculated Step too Large.  Step scaled by  0.842152
 Step Taken.  Stepsize is  0.300000

                             Maximum     Tolerance    Cnvgd?
         Gradient            0.113487       0.000300      NO
         Displacement        0.108887       0.001200      NO
         Energy change     *********       0.000001      NO


 New Cartesian Coordinates Obtained by Inverse Iteration

 Displacement from previous Coordinates is:  0.653174
 ----------------------------------------------------------------
             Standard Nuclear Orientation (Angstroms)
    I     Atom           X                Y                Z
 ----------------------------------------------------------------
    1      C       0.0546165760     0.5084394084    -0.4186090980
    2      H       0.1048351613     0.6726534238    -1.4958154390
    3      C       0.3370970336     1.8341857838     0.3252873570
    4      H      -0.4807501777     2.5304168281     0.1098224324
    5      H       0.3569730845     1.6365505231     1.4008982319
    6      C       1.6596895802     2.4996480888    -0.1016193283
    7      H       1.8019604389     3.4362270681     0.4441203282
    8      H       2.5062599923     1.8446201034     0.1053874002
    9      H       1.6471344955     2.7240047542    -1.1722199277
   10      Se     -1.7903073012    -0.0490936941     0.0608954376
   11      H      -1.8161098704    -1.2931423590    -0.7951891127
   12      Se      1.3751399652    -0.9296103966    -0.0237483060
   13      H       1.0756610218    -0.9659995320     1.4342900245
 ----------------------------------------------------------------
 Nuclear Repulsion Energy =   599.2287023038 hartrees
 There are       47 alpha and       47 beta electrons

                       Distance Matrix (Angstroms)
             C (  1)   H (  2)   C (  3)   H (  4)   H (  5)   C (  6)
   H (  2)  1.090808
   C (  3)  1.546215  2.172445
   H (  4)  2.157371  2.524335  1.095462
   H (  5)  2.162096  3.063270  1.093798  1.779790
   C (  6)  2.577141  2.774755  1.540889  2.151078  2.167848
   H (  7)  3.517023  3.779011  2.174047  2.478511  2.498449  1.093276
   H (  8)  2.840864  3.115156  2.180306  3.064729  2.518149  1.090227
   H (  9)  2.830684  2.586782  2.179565  2.491787  3.077013  1.093928
   Se( 10)  1.986080  2.556527  2.853506  2.893304  3.041022  4.292432
   H ( 11)  2.624334  2.836417  3.958781  4.149920  4.257721  5.191096
   Se( 12)  1.991905  2.519505  2.972865  3.928608  3.106680  3.441925
   H ( 13)  2.578708  3.494740  3.101032  4.049884  2.700166  3.835469
             H (  7)   H (  8)   H (  9)   Se( 10)   H ( 11)   Se( 12)
   H (  8)  1.773130
   H (  9)  1.773073  1.773047
   Se( 10)  5.019832  4.695596  4.585483
   H ( 11)  6.082208  5.416592  5.317301  1.510365
   Se( 12)  4.411532  2.998744  3.839515  3.286720  3.303234
   H ( 13)  4.570289  3.422306  4.553747  3.307673  3.666052  1.488922

 
 Applying Cartesian multipole field
    Component          Value
    ---------          -----
     (2,0,0)        1.00000E-11
     (0,2,0)        2.00000E-11
     (0,0,2)       -3.00000E-11
 Nucleus-field energy     =     0.0000000151 hartrees
 Requested basis set is 6-31G(d,p)
 There are 52 shells and 155 basis functions
 A cutoff of  1.0D-14 yielded   1252 shell pairs
 There are     11183 function pairs
 Smallest overlap matrix eigenvalue = 6.73E-04
 Guess from superposition of atomic densities
 Warning:  Energy on first SCF cycle will be non-variational
 SAD guess density has 93.936381 electrons

 -----------------------------------------------------------------------
  General SCF calculation program by
  Eric Jon Sundstrom, Paul Horn, Yuezhi Mao, Dmitri Zuev, Alec White,
  David Stuck, Shaama M.S., Shane Yost, Joonho Lee, David Small,
  Daniel Levine, Susi Lehtola, Hugh Burton, Evgeny Epifanovsky
 -----------------------------------------------------------------------
 Exchange:     0.2000 Hartree-Fock + 0.0800 Slater + 0.7200 B88
 Correlation:  0.1900 VWN1RPA + 0.8100 LYP
 Using SG-1 standard quadrature grid
 using 12 threads for integral computing
 -------------------------------------------------------
 OpenMP Integral computing Module                
 Release: version 1.0, May 2013, Q-Chem Inc. Pittsburgh 
 -------------------------------------------------------
 -------------------------------------------------------
 OpenMP BLAS3 based DFT computing Module                
 Release: version 1.0, May 2013, Q-Chem Inc. Pittsburgh 
 -------------------------------------------------------
 A unrestricted SCF calculation will be
 performed using DIIS
 SCF converges when DIIS error is below 1.0e-06
 Alpha HF Exchange    Energy = -18.87517998153216
 Beta HF Exchange     Energy = -18.87517998153216
 DFT Correlation      Energy =  -5.14469419687771
 DFT Exchange         Energy = -149.90905314949447
 One-Electron (alpha) Energy = -4016.78570312764759
 One-Electron (beta)  Energy = -4016.78570312764759
 Total Coulomb        Energy = 2699.18724275762361
 ---------------------------------------
  Cycle       Energy         DIIS error
 ---------------------------------------
    1   -4927.9595684881      1.51e-01  
 Alpha HF Exchange    Energy = -18.97454934066903
 Beta HF Exchange     Energy = -18.97454934066906
 DFT Correlation      Energy =  -5.19854360906356
 DFT Exchange         Energy = -151.06032135153129
 One-Electron (alpha) Energy = -4027.36722719148065
 One-Electron (beta)  Energy = -4027.36722719148383
 Total Coulomb        Energy = 2728.12042057757071
    2   -4921.5932951284      9.33e-03  
 Alpha HF Exchange    Energy = -18.83964191213732
 Beta HF Exchange     Energy = -18.83964191213729
 DFT Correlation      Energy =  -5.15567559489643
 DFT Exchange         Energy = -149.97465186262139
 One-Electron (alpha) Energy = -4012.27383292542254
 One-Electron (beta)  Energy = -4012.27383292541936
 Total Coulomb        Energy = 2696.53215362265291
    3   -4921.5964211910      3.71e-03  
 Alpha HF Exchange    Energy = -18.95430404652947
 Beta HF Exchange     Energy = -18.95430404652945
 DFT Correlation      Energy =  -5.19199169552201
 DFT Exchange         Energy = -150.89009411449024
 One-Electron (alpha) Energy = -4024.76785411239234
 One-Electron (beta)  Energy = -4024.76785411239098
 Total Coulomb        Energy = 2722.65026471782448
    4   -4921.6474350911      2.82e-03  
 Alpha HF Exchange    Energy = -18.91152223807360
 Beta HF Exchange     Energy = -18.91152223807360
 DFT Correlation      Energy =  -5.17738025179235
 DFT Exchange         Energy = -150.54393647588410
 One-Electron (alpha) Energy = -4020.40805837328344
 One-Electron (beta)  Energy = -4020.40805837328298
 Total Coulomb        Energy = 2713.40980807380629
    5   -4921.7219675576      7.04e-04  
 Alpha HF Exchange    Energy = -18.90880894290511
 Beta HF Exchange     Energy = -18.90880894290508
 DFT Correlation      Energy =  -5.17771632214916
 DFT Exchange         Energy = -150.52592737406644
 One-Electron (alpha) Energy = -4020.09098088376777
 One-Electron (beta)  Energy = -4020.09098088376413
 Total Coulomb        Energy = 2712.74656902711058
    6   -4921.7279520035      9.00e-05  
 Alpha HF Exchange    Energy = -18.90780154904838
 Beta HF Exchange     Energy = -18.90780154904841
 DFT Correlation      Energy =  -5.17725775999952
 DFT Exchange         Energy = -150.51749307294435
 One-Electron (alpha) Energy = -4019.91861335004978
 One-Electron (beta)  Energy = -4019.91861335005478
 Total Coulomb        Energy = 2712.39082841044410
    7   -4921.7280499017      3.23e-05  
 Alpha HF Exchange    Energy = -18.90797397973340
 Beta HF Exchange     Energy = -18.90797397973339
 DFT Correlation      Energy =  -5.17725873212831
 DFT Exchange         Energy = -150.51877912852106
 One-Electron (alpha) Energy = -4019.95430932461386
 One-Electron (beta)  Energy = -4019.95430932461431
 Total Coulomb        Energy = 2712.46384068710086
    8   -4921.7280614633      8.18e-06  
 Alpha HF Exchange    Energy = -18.90800641201247
 Beta HF Exchange     Energy = -18.90800641201249
 DFT Correlation      Energy =  -5.17728500406736
 DFT Exchange         Energy = -150.51905594987790
 One-Electron (alpha) Energy = -4019.95864035792920
 One-Electron (beta)  Energy = -4019.95864035793193
 Total Coulomb        Energy = 2712.47286989836721
    9   -4921.7280622765      7.42e-07  Convergence criterion met
 ---------------------------------------
 SCF time:   CPU 46.07s  wall 4.00s 
<S^2> =         -0.000000000
 Alpha HF Exchange    Energy = -18.90800641201247
 Beta HF Exchange     Energy = -18.90800641201249
 DFT Correlation      Energy =  -5.17728500406736
 DFT Exchange         Energy = -150.51905594987790
 One-Electron (alpha) Energy = -4019.95864035792920
 One-Electron (beta)  Energy = -4019.95864035793193
 Total Coulomb        Energy = 2712.47286989836721
 Nuclear repulsion Energy = 599.22870231895968
 SCF   energy in the final basis set =    -4921.7280622765
 Total energy in the final basis set =    -4921.7280622765
 
 --------------------------------------------------------------
 
                    Orbital Energies (a.u.)
 --------------------------------------------------------------
 
 Alpha MOs
 -- Occupied --
*******-453.900 -58.096 -58.095 -52.154 -52.153 -52.152 -52.152
-52.150 -52.149 -10.258 -10.206 -10.184  -7.829  -7.829  -5.775
 -5.774  -5.771  -5.770  -5.761  -5.760  -2.109  -2.108  -2.108
 -2.107  -2.100  -2.099  -2.097  -2.096  -2.095  -2.094  -0.817
 -0.738  -0.692  -0.644  -0.582  -0.469  -0.438  -0.434  -0.389
 -0.375  -0.361  -0.350  -0.344  -0.312  -0.243  -0.218
 -- Virtual --
 -0.026   0.021   0.037   0.040   0.094   0.119   0.148   0.154
  0.166   0.171   0.190   0.211   0.224   0.252   0.274   0.287
  0.298   0.309   0.319   0.345   0.442   0.455   0.478   0.505
  0.517   0.555   0.587   0.603   0.622   0.632   0.664   0.671
  0.690   0.751   0.765   0.820   0.841   0.856   0.868   0.885
  0.903   0.919   0.933   0.951   1.011   1.028   1.054   1.111
  1.335   1.388   1.439   1.541   1.567   1.615   1.654   1.709
  1.774   1.820   1.867   1.949   2.030   2.044   2.062   2.067
  2.083   2.085   2.105   2.110   2.125   2.161   2.252   2.304
  2.359   2.438   2.484   2.521   2.582   2.589   2.609   2.675
  2.715   2.740   2.818   2.887   2.903   3.192   3.275   3.313
  3.408   3.465   3.528   4.178   4.269   4.273   4.317   4.338
  4.349   4.359   4.379   4.411   4.419   4.513   4.536   4.630
  5.460   5.479  89.731  89.824
 
 Beta MOs
 -- Occupied --
*******-453.900 -58.096 -58.095 -52.154 -52.153 -52.152 -52.152
-52.150 -52.149 -10.258 -10.206 -10.184  -7.829  -7.829  -5.775
 -5.774  -5.771  -5.770  -5.761  -5.760  -2.109  -2.108  -2.108
 -2.107  -2.100  -2.099  -2.097  -2.096  -2.095  -2.094  -0.817
 -0.738  -0.692  -0.644  -0.582  -0.469  -0.438  -0.434  -0.389
 -0.375  -0.361  -0.350  -0.344  -0.312  -0.243  -0.218
 -- Virtual --
 -0.026   0.021   0.037   0.040   0.094   0.119   0.148   0.154
  0.166   0.171   0.190   0.211   0.224   0.252   0.274   0.287
  0.298   0.309   0.319   0.345   0.442   0.455   0.478   0.505
  0.517   0.555   0.587   0.603   0.622   0.632   0.664   0.671
  0.690   0.751   0.765   0.820   0.841   0.856   0.868   0.885
  0.903   0.919   0.933   0.951   1.011   1.028   1.054   1.111
  1.335   1.388   1.439   1.541   1.567   1.615   1.654   1.709
  1.774   1.820   1.867   1.949   2.030   2.044   2.062   2.067
  2.083   2.085   2.105   2.110   2.125   2.161   2.252   2.304
  2.359   2.438   2.484   2.521   2.582   2.589   2.609   2.675
  2.715   2.740   2.818   2.887   2.903   3.192   3.275   3.313
  3.408   3.465   3.528   4.178   4.269   4.273   4.317   4.338
  4.349   4.359   4.379   4.411   4.419   4.513   4.536   4.630
  5.460   5.479  89.731  89.824
 --------------------------------------------------------------
 
          Ground-State Mulliken Net Atomic Charges

     Atom                 Charge (a.u.)    Spin (a.u.)
  --------------------------------------------------------
      1 C                    -0.224817      -0.000000
      2 H                     0.154017       0.000000
      3 C                    -0.192255      -0.000000
      4 H                     0.123755       0.000000
      5 H                     0.118479       0.000000
      6 C                    -0.327774      -0.000000
      7 H                     0.109862       0.000000
      8 H                     0.138690       0.000000
      9 H                     0.106162       0.000000
     10 Se                   -0.069128      -0.000000
     11 H                     0.061997       0.000000
     12 Se                   -0.063523       0.000000
     13 H                     0.064534       0.000000
  --------------------------------------------------------
  Sum of atomic charges =     0.000000
  Sum of spin   charges =    -0.000000

 -----------------------------------------------------------------
                    Cartesian Multipole Moments
 -----------------------------------------------------------------
    Charge (ESU x 10^10)
                -0.0000
    Dipole Moment (Debye)
         X       0.4374      Y       0.9742      Z      -0.1648
       Tot       1.0805
    Quadrupole Moments (Debye-Ang)
        XX     -61.7489     XY       2.1815     YY     -55.9883
        XZ       1.2025     YZ       0.2364     ZZ     -55.3736
    Octopole Moments (Debye-Ang^2)
       XXX     -23.0418    XXY     -20.8151    XYY      -6.8670
       YYY     -37.2698    XXZ       1.9704    XYZ      -4.1783
       YYZ       2.0211    XZZ      -2.3120    YZZ     -15.0287
       ZZZ      -0.4839
    Hexadecapole Moments (Debye-Ang^3)
      XXXX    -814.2845   XXXY     -33.1188   XXYY    -228.9860
      XYYY     -41.4220   YYYY    -613.7368   XXXZ       0.7042
      XXYZ       3.6949   XYYZ       6.8605   YYYZ       0.1207
      XXZZ    -153.4839   XYZZ     -15.9758   YYZZ    -119.3796
      XZZZ       4.3409   YZZZ      -4.0052   ZZZZ    -108.7044
 -----------------------------------------------------------------
 Calculating analytic gradient of the SCF energy
 Gradient of SCF Energy
            1           2           3           4           5           6
    1  -0.0000509  -0.0006666  -0.0082588   0.0024370   0.0024754   0.0057905
    2  -0.0039737   0.0029726   0.0033532   0.0006952  -0.0016906   0.0026866
    3  -0.0082468   0.0007806   0.0063969  -0.0019808  -0.0014750  -0.0017648
            7           8           9          10          11          12
    1  -0.0003557  -0.0018836  -0.0011075   0.0051553  -0.0013629  -0.0021848
    2  -0.0008070   0.0002840  -0.0008392   0.0077675  -0.0097303  -0.0004665
    3   0.0002643   0.0002405   0.0007813   0.0085694  -0.0075709  -0.0009687
           13
    1   0.0000127
    2  -0.0002519
    3   0.0049740
 Max gradient component =       9.730E-03
 RMS gradient           =       4.024E-03
 Gradient time:  CPU 20.26 s  wall 1.77 s
 Geometry Optimization Parameters
   NAtoms,    NIC,     NZ,  NCons,   NDum,   NFix, NCnnct, MaxDiis
       13      82       0       1       0       0       0       0

 Cartesian Hessian Update
 Hessian Updated using BFGS Update


** CONSTRAINED OPTIMIZATION IN DELOCALIZED INTERNAL COORDINATES **
   Searching for a Minimum

   Optimization Cycle:   2

                       Coordinates (Angstroms)
     ATOM                X               Y               Z
      1  C         0.0546165760    0.5084394084   -0.4186090980
      2  H         0.1048351613    0.6726534238   -1.4958154390
      3  C         0.3370970336    1.8341857838    0.3252873570
      4  H        -0.4807501777    2.5304168281    0.1098224324
      5  H         0.3569730845    1.6365505231    1.4008982319
      6  C         1.6596895802    2.4996480888   -0.1016193283
      7  H         1.8019604389    3.4362270681    0.4441203282
      8  H         2.5062599923    1.8446201034    0.1053874002
      9  H         1.6471344955    2.7240047542   -1.1722199277
     10  Se       -1.7903073012   -0.0490936941    0.0608954376
     11  H        -1.8161098704   -1.2931423590   -0.7951891127
     12  Se        1.3751399652   -0.9296103966   -0.0237483060
     13  H         1.0756610218   -0.9659995320    1.4342900245
   Point Group: c1    Number of degrees of freedom:    33


   Energy is  -4921.728062277

              Constraints and their Current Values
                                        Value     Constraint
   Distance(Angs):       10  11             1.510365     1.500000
 Hessian Updated using BFGS Update

   Using Lagrange Multiplier Algorithm


 29 Hessian modes will be used to form the next step
  Hessian Eigenvalues:
    -0.929472    0.044834    0.045159    0.071430    0.078843    0.083693
     0.084995    0.084999    0.088125    0.098982    0.107198    0.128532
     0.145812    0.159253    0.163884    0.166363    0.173841    0.193129
     0.213729    0.232935    0.294221    0.316398    0.347386    0.348103
     0.348134    0.348141    0.348194    0.349092    1.076068

 Minimum Search - Taking P-RFO Step
 Searching for Lamda that Maximizes Along the Constraint modes Only
 Value Taken    Lamda =   0.00018161
 Searching for Lamda that Minimizes Along All other modes
 Value Taken    Lamda =  -0.00162918
 Step Taken.  Stepsize is  0.121461

                             Maximum     Tolerance    Cnvgd?
         Gradient            0.019588       0.000300      NO
         Displacement        0.051112       0.001200      NO
         Energy change     -0.011741       0.000001      NO


 New Cartesian Coordinates Obtained by Inverse Iteration

 Displacement from previous Coordinates is:  0.152991
 ----------------------------------------------------------------
             Standard Nuclear Orientation (Angstroms)
    I     Atom           X                Y                Z
 ----------------------------------------------------------------
    1      C       0.0563819706     0.5062915317    -0.4046150586
    2      H       0.1133371591     0.6469935831    -1.4854628080
    3      C       0.3393217083     1.8299851165     0.3246462987
    4      H      -0.4908512232     2.5128901895     0.1050423096
    5      H       0.3434634059     1.6492017129     1.4053780997
    6      C       1.6562249843     2.4952775391    -0.0981206654
    7      H       1.7897889855     3.4396668474     0.4384874329
    8      H       2.5128643693     1.8519450918     0.1185367859
    9      H       1.6589254400     2.7157400667    -1.1711949473
   10      Se     -1.8132551602    -0.0217302877     0.0502163189
   11      H      -1.8109808205    -1.2758532360    -0.7727041370
   12      Se      1.3901205151    -0.9265638657    -0.0372255978
   13      H       1.0868586658    -0.9749442892     1.4005159684
 ----------------------------------------------------------------
 Nuclear Repulsion Energy =   597.1515964265 hartrees
 There are       47 alpha and       47 beta electrons

                       Distance Matrix (Angstroms)
             C (  1)   H (  2)   C (  3)   H (  4)   H (  5)   C (  6)
   H (  2)  1.091454
   C (  3)  1.537544  2.174174
   H (  4)  2.141414  2.525138  1.097166
   H (  5)  2.159800  3.068280  1.095756  1.770003
   C (  6)  2.570895  2.778736  1.534790  2.156739  2.167878
   H (  7)  3.510016  3.783001  2.169767  2.484234  2.496498  1.094376
   H (  8)  2.849347  3.127691  2.183404  3.075604  2.530487  1.093000
   H (  9)  2.835040  2.601407  2.182535  2.508280  3.083289  1.095490
   Se( 10)  1.995300  2.552892  2.852674  2.859381  3.046295  4.288896
   H ( 11)  2.607407  2.812181  3.933727  4.107038  4.235755  5.167011
   Se( 12)  1.991710  2.490713  2.972153  3.922772  3.132278  3.432713
   H ( 13)  2.552340  3.450696  3.095793  4.041338  2.727417  3.822634
             H (  7)   H (  8)   H (  9)   Se( 10)   H ( 11)   Se( 12)
   H (  8)  1.773716
   H (  9)  1.769823  1.771655
   Se( 10)  5.011382  4.714938  4.587115
   H ( 11)  6.055465  5.410459  5.303948  1.500009
   Se( 12)  4.410216  3.000821  3.824202  3.329863  3.303026
   H ( 13)  4.572571  3.415884  4.534546  3.338051  3.634681  1.470173

 
 Applying Cartesian multipole field
    Component          Value
    ---------          -----
     (2,0,0)        1.00000E-11
     (0,2,0)        2.00000E-11
     (0,0,2)       -3.00000E-11
 Nucleus-field energy     =     0.0000000153 hartrees
 Requested basis set is 6-31G(d,p)
 There are 52 shells and 155 basis functions
 A cutoff of  1.0D-14 yielded   1252 shell pairs
 There are     11174 function pairs
 Smallest overlap matrix eigenvalue = 6.73E-04
 Guess from superposition of atomic densities
 Warning:  Energy on first SCF cycle will be non-variational
 SAD guess density has 93.936381 electrons

 -----------------------------------------------------------------------
  General SCF calculation program by
  Eric Jon Sundstrom, Paul Horn, Yuezhi Mao, Dmitri Zuev, Alec White,
  David Stuck, Shaama M.S., Shane Yost, Joonho Lee, David Small,
  Daniel Levine, Susi Lehtola, Hugh Burton, Evgeny Epifanovsky
 -----------------------------------------------------------------------
 Exchange:     0.2000 Hartree-Fock + 0.0800 Slater + 0.7200 B88
 Correlation:  0.1900 VWN1RPA + 0.8100 LYP
 Using SG-1 standard quadrature grid
 using 12 threads for integral computing
 -------------------------------------------------------
 OpenMP Integral computing Module                
 Release: version 1.0, May 2013, Q-Chem Inc. Pittsburgh 
 -------------------------------------------------------
 -------------------------------------------------------
 OpenMP BLAS3 based DFT computing Module                
 Release: version 1.0, May 2013, Q-Chem Inc. Pittsburgh 
 -------------------------------------------------------
 A unrestricted SCF calculation will be
 performed using DIIS
 SCF converges when DIIS error is below 1.0e-06
 Alpha HF Exchange    Energy = -18.87671083248132
 Beta HF Exchange     Energy = -18.87671083248132
 DFT Correlation      Energy =  -5.14498962150758
 DFT Exchange         Energy = -149.91246208259815
 One-Electron (alpha) Energy = -4014.69989066284415
 One-Electron (beta)  Energy = -4014.69989066284415
 Total Coulomb        Energy = 2697.09102805242401
 ---------------------------------------
  Cycle       Energy         DIIS error
 ---------------------------------------
    1   -4927.9680302005      1.51e-01  
 Alpha HF Exchange    Energy = -18.97515660841434
 Beta HF Exchange     Energy = -18.97515660841434
 DFT Correlation      Energy =  -5.19882426955242
 DFT Exchange         Energy = -151.06475302283752
 One-Electron (alpha) Energy = -4025.24003007608053
 One-Electron (beta)  Energy = -4025.24003007607962
 Total Coulomb        Energy = 2725.94723591331058
    2   -4921.5951183063      9.33e-03  
 Alpha HF Exchange    Energy = -18.84059770328277
 Beta HF Exchange     Energy = -18.84059770328278
 DFT Correlation      Energy =  -5.15610280149181
 DFT Exchange         Energy = -149.98147689430763
 One-Electron (alpha) Energy = -4010.28339071657729
 One-Electron (beta)  Energy = -4010.28339071657820
 Total Coulomb        Energy = 2694.63583318888595
    3   -4921.5981269048      3.70e-03  
 Alpha HF Exchange    Energy = -18.95466278710854
 Beta HF Exchange     Energy = -18.95466278710858
 DFT Correlation      Energy =  -5.19227256593948
 DFT Exchange         Energy = -150.89270872778803
 One-Electron (alpha) Energy = -4022.59936567508112
 One-Electron (beta)  Energy = -4022.59936567508657
 Total Coulomb        Energy = 2720.39417177072528
    4   -4921.6472700056      2.84e-03  
 Alpha HF Exchange    Energy = -18.91240060365114
 Beta HF Exchange     Energy = -18.91240060365116
 DFT Correlation      Energy =  -5.17771531362628
 DFT Exchange         Energy = -150.55022085701395
 One-Electron (alpha) Energy = -4018.34781527603081
 One-Electron (beta)  Energy = -4018.34781527603400
 Total Coulomb        Energy = 2711.37407257364157
    5   -4921.7226989146      7.24e-04  
 Alpha HF Exchange    Energy = -18.90950079159860
 Beta HF Exchange     Energy = -18.90950079159862
 DFT Correlation      Energy =  -5.17804695111405
 DFT Exchange         Energy = -150.53086630052513
 One-Electron (alpha) Energy = -4018.01114211011554
 One-Electron (beta)  Energy = -4018.01114211011736
 Total Coulomb        Energy = 2710.66962727091141
    6   -4921.7289753424      9.08e-05  
 Alpha HF Exchange    Energy = -18.90846209414228
 Beta HF Exchange     Energy = -18.90846209414229
 DFT Correlation      Energy =  -5.17758763855698
 DFT Exchange         Energy = -150.52219196835347
 One-Electron (alpha) Energy = -4017.83497903992429
 One-Electron (beta)  Energy = -4017.83497903992429
 Total Coulomb        Energy = 2710.30599093270575
    7   -4921.7290745005      3.37e-05  
 Alpha HF Exchange    Energy = -18.90863511558712
 Beta HF Exchange     Energy = -18.90863511558711
 DFT Correlation      Energy =  -5.17758488297115
 DFT Exchange         Energy = -150.52347999346847
 One-Electron (alpha) Energy = -4017.87026745778621
 One-Electron (beta)  Energy = -4017.87026745778576
 Total Coulomb        Energy = 2710.37818663133248
    8   -4921.7290869501      7.99e-06  
 Alpha HF Exchange    Energy = -18.90867164512226
 Beta HF Exchange     Energy = -18.90867164512224
 DFT Correlation      Energy =  -5.17761201970533
 DFT Exchange         Energy = -150.52378825666921
 One-Electron (alpha) Energy = -4017.87538687615825
 One-Electron (beta)  Energy = -4017.87538687615643
 Total Coulomb        Energy = 2710.38883313524184
    9   -4921.7290877419      7.38e-07  Convergence criterion met
 ---------------------------------------
 SCF time:   CPU 45.73s  wall 4.00s 
<S^2> =          0.000000000
 Alpha HF Exchange    Energy = -18.90867164512226
 Beta HF Exchange     Energy = -18.90867164512224
 DFT Correlation      Energy =  -5.17761201970533
 DFT Exchange         Energy = -150.52378825666921
 One-Electron (alpha) Energy = -4017.87538687615825
 One-Electron (beta)  Energy = -4017.87538687615643
 Total Coulomb        Energy = 2710.38883313524184
 Nuclear repulsion Energy = 597.15159644179494
 SCF   energy in the final basis set =    -4921.7290877419
 Total energy in the final basis set =    -4921.7290877419
 
 --------------------------------------------------------------
 
                    Orbital Energies (a.u.)
 --------------------------------------------------------------
 
 Alpha MOs
 -- Occupied --
*******-453.900 -58.096 -58.095 -52.153 -52.153 -52.152 -52.152
-52.150 -52.149 -10.258 -10.206 -10.184  -7.829  -7.829  -5.775
 -5.774  -5.771  -5.770  -5.761  -5.761  -2.108  -2.108  -2.108
 -2.108  -2.100  -2.099  -2.097  -2.096  -2.095  -2.095  -0.818
 -0.738  -0.694  -0.644  -0.582  -0.468  -0.440  -0.435  -0.387
 -0.377  -0.362  -0.351  -0.342  -0.313  -0.243  -0.221
 -- Virtual --
 -0.027   0.021   0.040   0.045   0.095   0.119   0.148   0.153
  0.166   0.171   0.193   0.210   0.226   0.251   0.275   0.288
  0.297   0.306   0.318   0.345   0.442   0.456   0.479   0.504
  0.517   0.555   0.589   0.602   0.622   0.631   0.666   0.669
  0.691   0.749   0.765   0.823   0.841   0.855   0.868   0.884
  0.903   0.919   0.933   0.951   1.011   1.033   1.058   1.114
  1.337   1.382   1.438   1.538   1.566   1.616   1.659   1.702
  1.776   1.827   1.869   1.952   2.027   2.045   2.061   2.069
  2.085   2.089   2.109   2.112   2.124   2.162   2.248   2.303
  2.359   2.439   2.486   2.524   2.591   2.596   2.625   2.678
  2.718   2.748   2.817   2.881   2.901   3.188   3.273   3.310
  3.412   3.462   3.526   4.180   4.269   4.273   4.316   4.335
  4.345   4.362   4.377   4.410   4.418   4.510   4.534   4.631
  5.458   5.481  89.724  89.831
 
 Beta MOs
 -- Occupied --
*******-453.900 -58.096 -58.095 -52.153 -52.153 -52.152 -52.152
-52.150 -52.149 -10.258 -10.206 -10.184  -7.829  -7.829  -5.775
 -5.774  -5.771  -5.770  -5.761  -5.761  -2.108  -2.108  -2.108
 -2.108  -2.100  -2.099  -2.097  -2.096  -2.095  -2.095  -0.818
 -0.738  -0.694  -0.644  -0.582  -0.468  -0.440  -0.435  -0.387
 -0.377  -0.362  -0.351  -0.342  -0.313  -0.243  -0.221
 -- Virtual --
 -0.027   0.021   0.040   0.045   0.095   0.119   0.148   0.153
  0.166   0.171   0.193   0.210   0.226   0.251   0.275   0.288
  0.297   0.306   0.318   0.345   0.442   0.456   0.479   0.504
  0.517   0.555   0.589   0.602   0.622   0.631   0.666   0.669
  0.691   0.749   0.765   0.823   0.841   0.855   0.868   0.884
  0.903   0.919   0.933   0.951   1.011   1.033   1.058   1.114
  1.337   1.382   1.438   1.538   1.566   1.616   1.659   1.702
  1.776   1.827   1.869   1.952   2.027   2.045   2.061   2.069
  2.085   2.089   2.109   2.112   2.124   2.162   2.248   2.303
  2.359   2.439   2.486   2.524   2.591   2.596   2.625   2.678
  2.718   2.748   2.817   2.881   2.901   3.188   3.273   3.310
  3.412   3.462   3.526   4.180   4.269   4.273   4.316   4.335
  4.345   4.362   4.377   4.410   4.418   4.510   4.534   4.631
  5.458   5.481  89.724  89.831
 --------------------------------------------------------------
 
          Ground-State Mulliken Net Atomic Charges

     Atom                 Charge (a.u.)    Spin (a.u.)
  --------------------------------------------------------
      1 C                    -0.223809      -0.000000
      2 H                     0.152901       0.000000
      3 C                    -0.190586       0.000000
      4 H                     0.123188      -0.000000
      5 H                     0.118556      -0.000000
      6 C                    -0.327337      -0.000000
      7 H                     0.109434       0.000000
      8 H                     0.138161       0.000000
      9 H                     0.106240       0.000000
     10 Se                   -0.070497      -0.000000
     11 H                     0.063630      -0.000000
     12 Se                   -0.065859       0.000000
     13 H                     0.065978       0.000000
  --------------------------------------------------------
  Sum of atomic charges =     0.000000
  Sum of spin   charges =    -0.000000

 -----------------------------------------------------------------
                    Cartesian Multipole Moments
 -----------------------------------------------------------------
    Charge (ESU x 10^10)
                 0.0000
    Dipole Moment (Debye)
         X       0.4529      Y       0.9406      Z      -0.1360
       Tot       1.0528
    Quadrupole Moments (Debye-Ang)
        XX     -61.5459     XY       2.1397     YY     -55.9912
        XZ       1.1600     YZ       0.2512     ZZ     -55.5479
    Octopole Moments (Debye-Ang^2)
       XXX     -22.5860    XXY     -21.1880    XYY      -6.6872
       YYY     -38.9286    XXZ       2.2467    XYZ      -4.3171
       YYZ       2.5834    XZZ      -1.9743    YZZ     -15.5684
       ZZZ       0.5627
    Hexadecapole Moments (Debye-Ang^3)
      XXXX    -824.5812   XXXY     -30.2379   XXYY    -230.4602
      XYYY     -37.8723   YYYY    -611.8090   XXXZ       1.0493
      XXYZ       3.2997   XYYZ       6.5311   YYYZ      -1.1766
      XXZZ    -155.9779   XYZZ     -14.7143   YYZZ    -119.0262
      XZZZ       4.2980   YZZZ      -4.9214   ZZZZ    -108.0100
 -----------------------------------------------------------------
 Calculating analytic gradient of the SCF energy
 Gradient of SCF Energy
            1           2           3           4           5           6
    1   0.0005612   0.0003392  -0.0044576   0.0005452   0.0012636   0.0017006
    2  -0.0008575   0.0005079   0.0017040  -0.0002729  -0.0009060   0.0001714
    3  -0.0031139   0.0001581   0.0032744  -0.0012651  -0.0003249  -0.0007411
            7           8           9          10          11          12
    1  -0.0002798   0.0000684  -0.0001875   0.0000886   0.0002421  -0.0002217
    2  -0.0002185  -0.0002490  -0.0001243   0.0070830  -0.0070439  -0.0007463
    3   0.0002359   0.0000497   0.0000469   0.0062914  -0.0052790   0.0025428
           13
    1   0.0003378
    2   0.0009520
    3  -0.0018750
 Max gradient component =       7.083E-03
 RMS gradient           =       2.438E-03
 Gradient time:  CPU 19.84 s  wall 1.79 s
 Geometry Optimization Parameters
   NAtoms,    NIC,     NZ,  NCons,   NDum,   NFix, NCnnct, MaxDiis
       13      82       0       1       0       0       0       0

 Cartesian Hessian Update
 Hessian Updated using BFGS Update


** CONSTRAINED OPTIMIZATION IN DELOCALIZED INTERNAL COORDINATES **
   Searching for a Minimum

   Optimization Cycle:   3

                       Coordinates (Angstroms)
     ATOM                X               Y               Z
      1  C         0.0563819706    0.5062915317   -0.4046150586
      2  H         0.1133371591    0.6469935831   -1.4854628080
      3  C         0.3393217083    1.8299851165    0.3246462987
      4  H        -0.4908512232    2.5128901895    0.1050423096
      5  H         0.3434634059    1.6492017129    1.4053780997
      6  C         1.6562249843    2.4952775391   -0.0981206654
      7  H         1.7897889855    3.4396668474    0.4384874329
      8  H         2.5128643693    1.8519450918    0.1185367859
      9  H         1.6589254400    2.7157400667   -1.1711949473
     10  Se       -1.8132551602   -0.0217302877    0.0502163189
     11  H        -1.8109808205   -1.2758532360   -0.7727041370
     12  Se        1.3901205151   -0.9265638657   -0.0372255978
     13  H         1.0868586658   -0.9749442892    1.4005159684
   Point Group: c1    Number of degrees of freedom:    33


   Energy is  -4921.729087742

              Constraints and their Current Values
                                        Value     Constraint
   Distance(Angs):       10  11             1.500009     1.500000
 Hessian Updated using BFGS Update

   Using Lagrange Multiplier Algorithm


 31 Hessian modes will be used to form the next step
  Hessian Eigenvalues:
    -0.927199    0.039189    0.045060    0.045242    0.062763    0.072141
     0.083887    0.084476    0.084999    0.085068    0.099371    0.105861
     0.129504    0.151178    0.157863    0.160239    0.165619    0.168093
     0.188393    0.205875    0.226740    0.230047    0.294942    0.313685
     0.347265    0.348111    0.348140    0.348159    0.348194    0.350065
     1.079045

 Minimum Search - Taking P-RFO Step
 Searching for Lamda that Maximizes Along the Constraint modes Only
 Value Taken    Lamda =   0.00000038
 Searching for Lamda that Minimizes Along All other modes
 Value Taken    Lamda =  -0.00028614
 Step Taken.  Stepsize is  0.071112

                             Maximum     Tolerance    Cnvgd?
         Gradient            0.002314       0.000300      NO
         Displacement        0.034894       0.001200      NO
         Energy change     -0.001025       0.000001      NO


 New Cartesian Coordinates Obtained by Inverse Iteration

 Displacement from previous Coordinates is:  0.117489
 ----------------------------------------------------------------
             Standard Nuclear Orientation (Angstroms)
    I     Atom           X                Y                Z
 ----------------------------------------------------------------
    1      C       0.0588466893     0.5044282808    -0.3954712640
    2      H       0.1175213205     0.6358454647    -1.4776542702
    3      C       0.3463752954     1.8308102715     0.3226362730
    4      H      -0.4888836191     2.5089744102     0.1029114631
    5      H       0.3410137791     1.6620631141     1.4059558258
    6      C       1.6559929688     2.5039634124    -0.0985161115
    7      H       1.7818316264     3.4536213449     0.4315346677
    8      H       2.5193313633     1.8714333045     0.1234707476
    9      H       1.6631479238     2.7207769891    -1.1727174568
   10      Se     -1.8208815342    -0.0105857247     0.0402080609
   11      H      -1.8166769505    -1.2772894513    -0.7631872285
   12      Se      1.3879217931    -0.9368138847    -0.0434706237
   13      H       1.0866593439    -1.0183275315     1.3977999165
 ----------------------------------------------------------------
 Nuclear Repulsion Energy =   595.9231649224 hartrees
 There are       47 alpha and       47 beta electrons

                       Distance Matrix (Angstroms)
             C (  1)   H (  2)   C (  3)   H (  4)   H (  5)   C (  6)
   H (  2)  1.091711
   C (  3)  1.535461  2.172869
   H (  4)  2.136960  2.524783  1.098109
   H (  5)  2.159832  3.068921  1.096397  1.761793
   C (  6)  2.576276  2.785459  1.531536  2.154320  2.168272
   H (  7)  3.514307  3.788772  2.169311  2.481229  2.497025  1.094824
   H (  8)  2.862165  3.139900  2.182442  3.075100  2.536468  1.093035
   H (  9)  2.844309  2.613214  2.182204  2.510643  3.085202  1.095887
   Se( 10)  1.997106  2.545424  2.857885  2.850672  3.055620  4.293118
   H ( 11)  2.612914  2.812769  3.939301  4.104748  4.242712  5.176784
   Se( 12)  1.991864  2.478721  2.979697  3.926485  3.154523  3.451643
   H ( 13)  2.567295  3.455974  3.133941  4.074424  2.782184  3.869061
             H (  7)   H (  8)   H (  9)   Se( 10)   H ( 11)   Se( 12)
   H (  8)  1.772605
   H (  9)  1.767702  1.770463
   Se( 10)  5.013323  4.731424  4.590206
   H ( 11)  6.062849  5.431536  5.316148  1.500000
   Se( 12)  4.433590  3.032195  3.837827  3.340856  3.302025
   H ( 13)  4.627662  3.468023  4.573926  3.363390  3.628538  1.474674

 
 Applying Cartesian multipole field
    Component          Value
    ---------          -----
     (2,0,0)        1.00000E-11
     (0,2,0)        2.00000E-11
     (0,0,2)       -3.00000E-11
 Nucleus-field energy     =     0.0000000154 hartrees
 Requested basis set is 6-31G(d,p)
 There are 52 shells and 155 basis functions
 A cutoff of  1.0D-14 yielded   1252 shell pairs
 There are     11174 function pairs
 Smallest overlap matrix eigenvalue = 6.73E-04
 Guess from superposition of atomic densities
 Warning:  Energy on first SCF cycle will be non-variational
 SAD guess density has 93.936381 electrons

 -----------------------------------------------------------------------
  General SCF calculation program by
  Eric Jon Sundstrom, Paul Horn, Yuezhi Mao, Dmitri Zuev, Alec White,
  David Stuck, Shaama M.S., Shane Yost, Joonho Lee, David Small,
  Daniel Levine, Susi Lehtola, Hugh Burton, Evgeny Epifanovsky
 -----------------------------------------------------------------------
 Exchange:     0.2000 Hartree-Fock + 0.0800 Slater + 0.7200 B88
 Correlation:  0.1900 VWN1RPA + 0.8100 LYP
 Using SG-1 standard quadrature grid
 using 12 threads for integral computing
 -------------------------------------------------------
 OpenMP Integral computing Module                
 Release: version 1.0, May 2013, Q-Chem Inc. Pittsburgh 
 -------------------------------------------------------
 -------------------------------------------------------
 OpenMP BLAS3 based DFT computing Module                
 Release: version 1.0, May 2013, Q-Chem Inc. Pittsburgh 
 -------------------------------------------------------
 A unrestricted SCF calculation will be
 performed using DIIS
 SCF converges when DIIS error is below 1.0e-06
 Alpha HF Exchange    Energy = -18.87649176385113
 Beta HF Exchange     Energy = -18.87649176385113
 DFT Correlation      Energy =  -5.14477011277970
 DFT Exchange         Energy = -149.91202979210985
 One-Electron (alpha) Energy = -4013.47436061039934
 One-Electron (beta)  Energy = -4013.47436061039934
 Total Coulomb        Energy = 2695.87182495763045
 ---------------------------------------
  Cycle       Energy         DIIS error
 ---------------------------------------
    1   -4927.9635147580      1.51e-01  
 Alpha HF Exchange    Energy = -18.97495095036984
 Beta HF Exchange     Energy = -18.97495095036982
 DFT Correlation      Energy =  -5.19862872155098
 DFT Exchange         Energy = -151.06343844025170
 One-Electron (alpha) Energy = -4024.00287836552252
 One-Electron (beta)  Energy = -4024.00287836552025
 Total Coulomb        Energy = 2724.69930316860746
    2   -4921.5952576872      9.33e-03  
 Alpha HF Exchange    Energy = -18.84037834485439
 Beta HF Exchange     Energy = -18.84037834485439
 DFT Correlation      Energy =  -5.15584041274292
 DFT Exchange         Energy = -149.98003851216285
 One-Electron (alpha) Energy = -4009.04768337296582
 One-Electron (beta)  Energy = -4009.04768337296537
 Total Coulomb        Energy = 2693.39100126832727
    3   -4921.5978361544      3.71e-03  
 Alpha HF Exchange    Energy = -18.95449367645542
 Beta HF Exchange     Energy = -18.95449367645542
 DFT Correlation      Energy =  -5.19209894058848
 DFT Exchange         Energy = -150.89175099680278
 One-Electron (alpha) Energy = -4021.36664414610777
 One-Electron (beta)  Energy = -4021.36664414610732
 Total Coulomb        Energy = 2719.15619882354031
    4   -4921.6467618212      2.84e-03  
 Alpha HF Exchange    Energy = -18.91224091515873
 Beta HF Exchange     Energy = -18.91224091515873
 DFT Correlation      Energy =  -5.17749837901851
 DFT Exchange         Energy = -150.54926415616274
 One-Electron (alpha) Energy = -4017.11697195835131
 One-Electron (beta)  Energy = -4017.11697195835131
 Total Coulomb        Energy = 2710.13923916945259
    5   -4921.7227841750      7.29e-04  
 Alpha HF Exchange    Energy = -18.90930176678620
 Beta HF Exchange     Energy = -18.90930176678621
 DFT Correlation      Energy =  -5.17782802005596
 DFT Exchange         Energy = -150.52962973712749
 One-Electron (alpha) Energy = -4016.77689776289844
 One-Electron (beta)  Energy = -4016.77689776289981
 Total Coulomb        Energy = 2709.42754356053092
    6   -4921.7291483182      9.09e-05  
 Alpha HF Exchange    Energy = -18.90825736466135
 Beta HF Exchange     Energy = -18.90825736466133
 DFT Correlation      Energy =  -5.17736713060979
 DFT Exchange         Energy = -150.52090921564701
 One-Electron (alpha) Energy = -4016.59985314148162
 One-Electron (beta)  Energy = -4016.59985314147980
 Total Coulomb        Energy = 2709.06208467762326
    7   -4921.7292477431      3.40e-05  
 Alpha HF Exchange    Energy = -18.90843253632158
 Beta HF Exchange     Energy = -18.90843253632161
 DFT Correlation      Energy =  -5.17736458859189
 DFT Exchange         Energy = -150.52221412748781
 One-Electron (alpha) Energy = -4016.63546777400552
 One-Electron (beta)  Energy = -4016.63546777400825
 Total Coulomb        Energy = 2709.13495407307391
    8   -4921.7292603259      8.01e-06  
 Alpha HF Exchange    Energy = -18.90846970069660
 Beta HF Exchange     Energy = -18.90846970069660
 DFT Correlation      Energy =  -5.17739200090095
 DFT Exchange         Energy = -150.52252749828514
 One-Electron (alpha) Energy = -4016.64066511957890
 One-Electron (beta)  Energy = -4016.64066511957890
 Total Coulomb        Energy = 2709.14576307907191
    9   -4921.7292611229      7.34e-07  Convergence criterion met
 ---------------------------------------
 SCF time:   CPU 45.17s  wall 4.00s 
<S^2> =          0.000000000
 Alpha HF Exchange    Energy = -18.90846970069660
 Beta HF Exchange     Energy = -18.90846970069660
 DFT Correlation      Energy =  -5.17739200090095
 DFT Exchange         Energy = -150.52252749828514
 One-Electron (alpha) Energy = -4016.64066511957890
 One-Electron (beta)  Energy = -4016.64066511957890
 Total Coulomb        Energy = 2709.14576307907191
 Nuclear repulsion Energy = 595.92316493778560
 SCF   energy in the final basis set =    -4921.7292611229
 Total energy in the final basis set =    -4921.7292611229
 
 --------------------------------------------------------------
 
                    Orbital Energies (a.u.)
 --------------------------------------------------------------
 
 Alpha MOs
 -- Occupied --
*******-453.900 -58.096 -58.096 -52.154 -52.153 -52.153 -52.152
-52.150 -52.149 -10.258 -10.206 -10.184  -7.829  -7.829  -5.775
 -5.774  -5.771  -5.770  -5.761  -5.761  -2.109  -2.108  -2.108
 -2.108  -2.100  -2.099  -2.097  -2.096  -2.095  -2.095  -0.818
 -0.738  -0.694  -0.645  -0.582  -0.467  -0.440  -0.435  -0.387
 -0.376  -0.362  -0.352  -0.341  -0.312  -0.242  -0.221
 -- Virtual --
 -0.027   0.021   0.039   0.044   0.094   0.119   0.148   0.152
  0.166   0.171   0.194   0.210   0.227   0.250   0.275   0.289
  0.298   0.306   0.317   0.343   0.443   0.456   0.480   0.503
  0.517   0.555   0.588   0.600   0.623   0.630   0.666   0.668
  0.693   0.747   0.764   0.823   0.840   0.854   0.868   0.883
  0.905   0.919   0.934   0.948   1.009   1.032   1.054   1.115
  1.338   1.379   1.435   1.538   1.566   1.614   1.660   1.701
  1.776   1.830   1.869   1.950   2.027   2.046   2.061   2.069
  2.086   2.088   2.110   2.112   2.124   2.159   2.246   2.303
  2.356   2.439   2.488   2.525   2.592   2.596   2.623   2.678
  2.718   2.752   2.817   2.880   2.900   3.186   3.273   3.310
  3.413   3.461   3.527   4.179   4.269   4.272   4.314   4.334
  4.344   4.362   4.376   4.408   4.417   4.510   4.534   4.631
  5.457   5.480  89.722  89.829
 
 Beta MOs
 -- Occupied --
*******-453.900 -58.096 -58.096 -52.154 -52.153 -52.153 -52.152
-52.150 -52.149 -10.258 -10.206 -10.184  -7.829  -7.829  -5.775
 -5.774  -5.771  -5.770  -5.761  -5.761  -2.109  -2.108  -2.108
 -2.108  -2.100  -2.099  -2.097  -2.096  -2.095  -2.095  -0.818
 -0.738  -0.694  -0.645  -0.582  -0.467  -0.440  -0.435  -0.387
 -0.376  -0.362  -0.352  -0.341  -0.312  -0.242  -0.221
 -- Virtual --
 -0.027   0.021   0.039   0.044   0.094   0.119   0.148   0.152
  0.166   0.171   0.194   0.210   0.227   0.250   0.275   0.289
  0.298   0.306   0.317   0.343   0.443   0.456   0.480   0.503
  0.517   0.555   0.588   0.600   0.623   0.630   0.666   0.668
  0.693   0.747   0.764   0.823   0.840   0.854   0.868   0.883
  0.905   0.919   0.934   0.948   1.009   1.032   1.054   1.115
  1.338   1.379   1.435   1.538   1.566   1.614   1.660   1.701
  1.776   1.830   1.869   1.950   2.027   2.046   2.061   2.069
  2.086   2.088   2.110   2.112   2.124   2.159   2.246   2.303
  2.356   2.439   2.488   2.525   2.592   2.596   2.623   2.678
  2.718   2.752   2.817   2.880   2.900   3.186   3.273   3.310
  3.413   3.461   3.527   4.179   4.269   4.272   4.314   4.334
  4.344   4.362   4.376   4.408   4.417   4.510   4.534   4.631
  5.457   5.480  89.722  89.829
 --------------------------------------------------------------
 
          Ground-State Mulliken Net Atomic Charges

     Atom                 Charge (a.u.)    Spin (a.u.)
  --------------------------------------------------------
      1 C                    -0.223590       0.000000
      2 H                     0.152713      -0.000000
      3 C                    -0.189633      -0.000000
      4 H                     0.122686       0.000000
      5 H                     0.118831       0.000000
      6 C                    -0.327136       0.000000
      7 H                     0.109847       0.000000
      8 H                     0.137497       0.000000
      9 H                     0.106421      -0.000000
     10 Se                   -0.070839       0.000000
     11 H                     0.064131      -0.000000
     12 Se                   -0.066624       0.000000
     13 H                     0.065696      -0.000000
  --------------------------------------------------------
  Sum of atomic charges =     0.000000
  Sum of spin   charges =     0.000000

 -----------------------------------------------------------------
                    Cartesian Multipole Moments
 -----------------------------------------------------------------
    Charge (ESU x 10^10)
                 0.0000
    Dipole Moment (Debye)
         X       0.4595      Y       0.9264      Z      -0.1205
       Tot       1.0411
    Quadrupole Moments (Debye-Ang)
        XX     -61.5070     XY       2.1770     YY     -55.8756
        XZ       1.1359     YZ       0.2024     ZZ     -55.6667
    Octopole Moments (Debye-Ang^2)
       XXX     -22.2697    XXY     -21.1160    XYY      -6.3755
       YYY     -38.9713    XXZ       2.3574    XYZ      -4.4125
       YYZ       3.0577    XZZ      -1.7721    YZZ     -15.6721
       ZZZ       1.3605
    Hexadecapole Moments (Debye-Ang^3)
      XXXX    -826.3112   XXXY     -28.7990   XXYY    -231.2631
      XYYY     -36.2874   YYYY    -615.5624   XXXZ       0.6846
      XXYZ       3.2613   XYYZ       6.3788   YYYZ      -1.6175
      XXZZ    -156.7699   XYZZ     -14.2452   YYZZ    -119.7855
      XZZZ       3.7271   YZZZ      -5.2342   ZZZZ    -107.8778
 -----------------------------------------------------------------
 Calculating analytic gradient of the SCF energy
 Gradient of SCF Energy
            1           2           3           4           5           6
    1   0.0001289   0.0001919  -0.0009271   0.0000740   0.0003371  -0.0000606
    2   0.0002696  -0.0001689   0.0006882  -0.0002571  -0.0003214  -0.0000660
    3  -0.0005664   0.0000641   0.0007351  -0.0006200  -0.0000243   0.0002582
            7           8           9          10          11          12
    1   0.0000766   0.0000597   0.0000790  -0.0004280  -0.0000255   0.0002896
    2   0.0001778  -0.0000023   0.0001763   0.0072119  -0.0073867  -0.0009502
    3   0.0000379  -0.0000426  -0.0000648   0.0049483  -0.0048213   0.0003244
           13
    1   0.0002045
    2   0.0006288
    3  -0.0002285
 Max gradient component =       7.387E-03
 RMS gradient           =       2.021E-03
 Gradient time:  CPU 19.93 s  wall 1.79 s
 Geometry Optimization Parameters
   NAtoms,    NIC,     NZ,  NCons,   NDum,   NFix, NCnnct, MaxDiis
       13      82       0       1       0       0       0       0

 Cartesian Hessian Update
 Hessian Updated using BFGS Update


** CONSTRAINED OPTIMIZATION IN DELOCALIZED INTERNAL COORDINATES **
   Searching for a Minimum

   Optimization Cycle:   4

                       Coordinates (Angstroms)
     ATOM                X               Y               Z
      1  C         0.0588466893    0.5044282808   -0.3954712640
      2  H         0.1175213205    0.6358454647   -1.4776542702
      3  C         0.3463752954    1.8308102715    0.3226362730
      4  H        -0.4888836191    2.5089744102    0.1029114631
      5  H         0.3410137791    1.6620631141    1.4059558258
      6  C         1.6559929688    2.5039634124   -0.0985161115
      7  H         1.7818316264    3.4536213449    0.4315346677
      8  H         2.5193313633    1.8714333045    0.1234707476
      9  H         1.6631479238    2.7207769891   -1.1727174568
     10  Se       -1.8208815342   -0.0105857247    0.0402080609
     11  H        -1.8166769505   -1.2772894513   -0.7631872285
     12  Se        1.3879217931   -0.9368138847   -0.0434706237
     13  H         1.0866593439   -1.0183275315    1.3977999165
   Point Group: c1    Number of degrees of freedom:    33


   Energy is  -4921.729261123

              Constraints and their Current Values
                                        Value     Constraint
   Distance(Angs):       10  11             1.500000     1.500000
 Hessian Updated using BFGS Update

 31 Hessian modes will be used to form the next step
  Hessian Eigenvalues:
     0.028033    0.045001    0.045190    0.045369    0.063770    0.072302
     0.084101    0.084842    0.085002    0.085107    0.099475    0.107291
     0.129455    0.151337    0.157617    0.160151    0.161444    0.167338
     0.171527    0.189848    0.200534    0.220941    0.244843    0.294726
     0.313715    0.347376    0.348106    0.348142    0.348185    0.348378
     0.350380

 Minimum Search - Taking Simple RFO Step
 Searching for Lamda that Minimizes Along All modes
 Value Taken    Lamda =  -0.00005636
 Step Taken.  Stepsize is  0.039124

                             Maximum     Tolerance    Cnvgd?
         Gradient           0.000960      0.000300      NO
         Displacement       0.020820      0.001200      NO
         Energy change     -0.000173      0.000001      NO


 New Cartesian Coordinates Obtained by Inverse Iteration

 Displacement from previous Coordinates is:  0.066201
 ----------------------------------------------------------------
             Standard Nuclear Orientation (Angstroms)
    I     Atom           X                Y                Z
 ----------------------------------------------------------------
    1      C       0.0594885609     0.5065071787    -0.3900434993
    2      H       0.1197806411     0.6380267775    -1.4723325248
    3      C       0.3480744070     1.8331421027     0.3243429616
    4      H      -0.4880875684     2.5115982575     0.1066600088
    5      H       0.3400700841     1.6708272621     1.4087245950
    6      C       1.6553542722     2.5053951493    -0.1011329543
    7      H       1.7800855154     3.4575042929     0.4243703169
    8      H       2.5201793530     1.8756031721     0.1225903466
    9      H       1.6606645055     2.7171974472    -1.1762893349
   10      Se     -1.8208095066    -0.0085212590     0.0360380934
   11      H      -1.8062345086    -1.2789895190    -0.7612686078
   12      Se      1.3865257183    -0.9352112549    -0.0435179614
   13      H       1.0771085260    -1.0441796071     1.3953585602
 ----------------------------------------------------------------
 Nuclear Repulsion Energy =   596.1021804196 hartrees
 There are       47 alpha and       47 beta electrons

                       Distance Matrix (Angstroms)
             C (  1)   H (  2)   C (  3)   H (  4)   H (  5)   C (  6)
   H (  2)  1.091917
   C (  3)  1.534141  2.169899
   H (  4)  2.137041  2.524478  1.098570
   H (  5)  2.161003  3.068500  1.096492  1.757303
   C (  6)  2.574065  2.779431  1.530338  2.153499  2.169365
   H (  7)  3.511710  3.782003  2.167767  2.477960  2.496961  1.094634
   H (  8)  2.862205  3.136445  2.181868  3.074803  2.539478  1.092983
   H (  9)  2.840616  2.604787  2.180904  2.511049  3.085637  1.095833
   Se( 10)  1.995575  2.541475  2.859878  2.851690  3.061679  4.292121
   H ( 11)  2.608971  2.808932  3.937634  4.106016  4.244633  5.171068
   Se( 12)  1.989889  2.474112  2.979511  3.926477  3.161568  3.451574
   H ( 13)  2.574459  3.459761  3.155558  4.093182  2.813302  3.895297
             H (  7)   H (  8)   H (  9)   Se( 10)   H ( 11)   Se( 12)
   H (  8)  1.772349
   H (  9)  1.767605  1.770349
   Se( 10)  5.013041  4.733033  4.584751
   H ( 11)  6.058201  5.426833  5.306707  1.500000
   Se( 12)  4.435060  3.035365  3.833851  3.339473  3.290451
   H ( 13)  4.658557  3.496788  4.593677  3.364264  3.608302  1.475798

 
 Applying Cartesian multipole field
    Component          Value
    ---------          -----
     (2,0,0)        1.00000E-11
     (0,2,0)        2.00000E-11
     (0,0,2)       -3.00000E-11
 Nucleus-field energy     =     0.0000000154 hartrees
 Requested basis set is 6-31G(d,p)
 There are 52 shells and 155 basis functions
 A cutoff of  1.0D-14 yielded   1251 shell pairs
 There are     11171 function pairs
 Smallest overlap matrix eigenvalue = 6.73E-04
 Guess from superposition of atomic densities
 Warning:  Energy on first SCF cycle will be non-variational
 SAD guess density has 93.936381 electrons

 -----------------------------------------------------------------------
  General SCF calculation program by
  Eric Jon Sundstrom, Paul Horn, Yuezhi Mao, Dmitri Zuev, Alec White,
  David Stuck, Shaama M.S., Shane Yost, Joonho Lee, David Small,
  Daniel Levine, Susi Lehtola, Hugh Burton, Evgeny Epifanovsky
 -----------------------------------------------------------------------
 Exchange:     0.2000 Hartree-Fock + 0.0800 Slater + 0.7200 B88
 Correlation:  0.1900 VWN1RPA + 0.8100 LYP
 Using SG-1 standard quadrature grid
 using 12 threads for integral computing
 -------------------------------------------------------
 OpenMP Integral computing Module                
 Release: version 1.0, May 2013, Q-Chem Inc. Pittsburgh 
[...]
   10      Se     -1.7981932389    -0.0172516310     0.0487513680
   11      H      -1.7833082121    -1.2866425845    -0.7502636819
   12      Se      1.4107785115    -0.9200349335    -0.0196381206
   13      H       0.9603996872    -1.1417362772     1.3680786827
 ----------------------------------------------------------------
 Nuclear Repulsion Energy =   596.5741466531 hartrees
 There are       47 alpha and       47 beta electrons

                       Distance Matrix (Angstroms)
             C (  1)   H (  2)   C (  3)   H (  4)   H (  5)   C (  6)
   H (  2)  1.091815
   C (  3)  1.534641  2.170437
   H (  4)  2.140189  2.532041  1.098560
   H (  5)  2.161365  3.068424  1.096234  1.758894
   C (  6)  2.570615  2.770352  1.530900  2.154065  2.169117
   H (  7)  3.509549  3.771927  2.168598  2.473646  2.503485  1.094545
   H (  8)  2.862578  3.132695  2.181258  3.074373  2.531021  1.093123
   H (  9)  2.829079  2.585738  2.180703  2.516422  3.085175  1.095827
   Se( 10)  1.993015  2.540754  2.859256  2.851941  3.068854  4.288455
   H ( 11)  2.611592  2.811251  3.940758  4.109805  4.252964  5.169679
   Se( 12)  1.992336  2.482915  2.976679  3.926576  3.145612  3.451896
   H ( 13)  2.566377  3.449117  3.216000  4.124700  2.881758  4.012327
             H (  7)   H (  8)   H (  9)   Se( 10)   H ( 11)   Se( 12)
   H (  8)  1.772168
   H (  9)  1.767863  1.771775
   Se( 10)  5.011877  4.731913  4.572414
   H ( 11)  6.058526  5.430802  5.293293  1.500000
   Se( 12)  4.436852  3.038687  3.830317  3.334246  3.297030
   H ( 13)  4.793867  3.646302  4.682867  3.258055  3.469338  1.475720

 
 Applying Cartesian multipole field
    Component          Value
    ---------          -----
     (2,0,0)        1.00000E-11
     (0,2,0)        2.00000E-11
     (0,0,2)       -3.00000E-11
 Nucleus-field energy     =     0.0000000154 hartrees
 Requested basis set is 6-31G(d,p)
 There are 52 shells and 155 basis functions
 A cutoff of  1.0D-14 yielded   1249 shell pairs
 There are     11174 function pairs
 Smallest overlap matrix eigenvalue = 6.73E-04
 Guess from superposition of atomic densities
 Warning:  Energy on first SCF cycle will be non-variational
 SAD guess density has 93.936381 electrons

 -----------------------------------------------------------------------
  General SCF calculation program by
  Eric Jon Sundstrom, Paul Horn, Yuezhi Mao, Dmitri Zuev, Alec White,
  David Stuck, Shaama M.S., Shane Yost, Joonho Lee, David Small,
  Daniel Levine, Susi Lehtola, Hugh Burton, Evgeny Epifanovsky
 -----------------------------------------------------------------------
 Exchange:     0.2000 Hartree-Fock + 0.0800 Slater + 0.7200 B88
 Correlation:  0.1900 VWN1RPA + 0.8100 LYP
 Using SG-1 standard quadrature grid
 using 12 threads for integral computing
 -------------------------------------------------------
 OpenMP Integral computing Module                
 Release: version 1.0, May 2013, Q-Chem Inc. Pittsburgh 
 -------------------------------------------------------
 -------------------------------------------------------
 OpenMP BLAS3 based DFT computing Module                
 Release: version 1.0, May 2013, Q-Chem Inc. Pittsburgh 
 -------------------------------------------------------
 A unrestricted SCF calculation will be
 performed using DIIS
 SCF converges when DIIS error is below 1.0e-06
 Alpha HF Exchange    Energy = -18.87693345121948
 Beta HF Exchange     Energy = -18.87693345121948
 DFT Correlation      Energy =  -5.14491529421218
 DFT Exchange         Energy = -149.91293513705335
 One-Electron (alpha) Energy = -4014.12383976587125
 One-Electron (beta)  Energy = -4014.12383976587125
 Total Coulomb        Energy = 2696.51571303723358
 ---------------------------------------
  Cycle       Energy         DIIS error
 ---------------------------------------
    1   -4927.9695371597      1.51e-01  
 Alpha HF Exchange    Energy = -18.97512329666082
 Beta HF Exchange     Energy = -18.97512329666083
 DFT Correlation      Energy =  -5.19877031026417
 DFT Exchange         Energy = -151.06457652535954
 One-Electron (alpha) Energy = -4024.63473601978330
 One-Electron (beta)  Energy = -4024.63473601978467
 Total Coulomb        Energy = 2725.31351041012749
    2   -4921.5954083899      9.33e-03  
 Alpha HF Exchange    Energy = -18.84050772863153
 Beta HF Exchange     Energy = -18.84050772863153
 DFT Correlation      Energy =  -5.15594158458161
 DFT Exchange         Energy = -149.98082569893336
 One-Electron (alpha) Energy = -4009.69491707106636
 One-Electron (beta)  Energy = -4009.69491707106590
 Total Coulomb        Energy = 2694.03656430503634
    3   -4921.5969059094      3.72e-03  
 Alpha HF Exchange    Energy = -18.95465396475907
 Beta HF Exchange     Energy = -18.95465396475909
 DFT Correlation      Energy =  -5.19230077088229
 DFT Exchange         Energy = -150.89286848478974
 One-Electron (alpha) Energy = -4022.00802314352859
 One-Electron (beta)  Energy = -4022.00802314352995
 Total Coulomb        Energy = 2719.79115841800149
    4   -4921.6452183858      2.86e-03  
 Alpha HF Exchange    Energy = -18.91248890052519
 Beta HF Exchange     Energy = -18.91248890052518
 DFT Correlation      Energy =  -5.17764597880717
 DFT Exchange         Energy = -150.55099925680139
 One-Electron (alpha) Energy = -4017.76324432437514
 One-Electron (beta)  Energy = -4017.76324432437286
 Total Coulomb        Energy = 2710.78318384251543
    5   -4921.7227811744      7.38e-04  
 Alpha HF Exchange    Energy = -18.90945507808546
 Beta HF Exchange     Energy = -18.90945507808547
 DFT Correlation      Energy =  -5.17796761597587
 DFT Exchange         Energy = -150.53063058270274
 One-Electron (alpha) Energy = -4017.41867890419280
 One-Electron (beta)  Energy = -4017.41867890419371
 Total Coulomb        Energy = 2710.06144470046092
    6   -4921.7292747943      9.15e-05  
 Alpha HF Exchange    Energy = -18.90840094792564
 Beta HF Exchange     Energy = -18.90840094792562
 DFT Correlation      Energy =  -5.17750680439922
 DFT Exchange         Energy = -150.52183367345191
 One-Electron (alpha) Energy = -4017.24121300315119
 One-Electron (beta)  Energy = -4017.24121300315028
 Total Coulomb        Energy = 2709.69504653182321
    7   -4921.7293751797      3.44e-05  
 Alpha HF Exchange    Energy = -18.90858045494668
 Beta HF Exchange     Energy = -18.90858045494668
 DFT Correlation      Energy =  -5.17750400657610
 DFT Exchange         Energy = -150.52317268826923
 One-Electron (alpha) Energy = -4017.27690502364112
 One-Electron (beta)  Energy = -4017.27690502363839
 Total Coulomb        Energy = 2709.76811300242798
    8   -4921.7293879811      8.06e-06  
 Alpha HF Exchange    Energy = -18.90861838804938
 Beta HF Exchange     Energy = -18.90861838804938
 DFT Correlation      Energy =  -5.17753180395884
 DFT Exchange         Energy = -150.52349267778550
 One-Electron (alpha) Energy = -4017.28217736517536
 One-Electron (beta)  Energy = -4017.28217736517672
 Total Coulomb        Energy = 2709.77908053444389
    9   -4921.7293887853      7.50e-07  Convergence criterion met
 ---------------------------------------
 SCF time:   CPU 44.89s  wall 4.00s 
<S^2> =         -0.000000000
 Alpha HF Exchange    Energy = -18.90861838804938
 Beta HF Exchange     Energy = -18.90861838804938
 DFT Correlation      Energy =  -5.17753180395884
 DFT Exchange         Energy = -150.52349267778550
 One-Electron (alpha) Energy = -4017.28217736517536
 One-Electron (beta)  Energy = -4017.28217736517672
 Total Coulomb        Energy = 2709.77908053444389
 Nuclear repulsion Energy = 596.57414666847694
 SCF   energy in the final basis set =    -4921.7293887853
 Total energy in the final basis set =    -4921.7293887853
 
 --------------------------------------------------------------
 
                    Orbital Energies (a.u.)
 --------------------------------------------------------------
 
 Alpha MOs
 -- Occupied --
*******-453.900 -58.097 -58.096 -52.154 -52.153 -52.153 -52.152
-52.151 -52.150 -10.258 -10.205 -10.184  -7.830  -7.829  -5.776
 -5.775  -5.772  -5.771  -5.762  -5.761  -2.109  -2.109  -2.108
 -2.108  -2.100  -2.100  -2.097  -2.097  -2.096  -2.095  -0.818
 -0.739  -0.694  -0.645  -0.582  -0.467  -0.440  -0.435  -0.386
 -0.377  -0.363  -0.352  -0.341  -0.311  -0.242  -0.222
 -- Virtual --
 -0.028   0.021   0.037   0.045   0.095   0.119   0.147   0.152
  0.166   0.171   0.194   0.211   0.229   0.245   0.276   0.287
  0.299   0.304   0.317   0.343   0.444   0.455   0.484   0.500
  0.515   0.554   0.588   0.603   0.624   0.631   0.665   0.668
  0.696   0.750   0.764   0.823   0.837   0.855   0.868   0.884
  0.907   0.919   0.934   0.946   1.009   1.032   1.052   1.120
  1.339   1.381   1.437   1.536   1.563   1.612   1.661   1.702
  1.777   1.831   1.871   1.951   2.025   2.045   2.062   2.068
  2.085   2.087   2.109   2.112   2.134   2.162   2.248   2.302
  2.356   2.439   2.488   2.525   2.593   2.596   2.624   2.679
  2.718   2.753   2.818   2.880   2.901   3.187   3.273   3.310
  3.412   3.462   3.528   4.181   4.267   4.273   4.313   4.333
  4.345   4.362   4.376   4.407   4.418   4.510   4.534   4.633
  5.455   5.479  89.717  89.829
 
 Beta MOs
 -- Occupied --
*******-453.900 -58.097 -58.096 -52.154 -52.153 -52.153 -52.152
-52.151 -52.150 -10.258 -10.205 -10.184  -7.830  -7.829  -5.776
 -5.775  -5.772  -5.771  -5.762  -5.761  -2.109  -2.109  -2.108
 -2.108  -2.100  -2.100  -2.097  -2.097  -2.096  -2.095  -0.818
 -0.739  -0.694  -0.645  -0.582  -0.467  -0.440  -0.435  -0.386
 -0.377  -0.363  -0.352  -0.341  -0.311  -0.242  -0.222
 -- Virtual --
 -0.028   0.021   0.037   0.045   0.095   0.119   0.147   0.152
  0.166   0.171   0.194   0.211   0.229   0.245   0.276   0.287
  0.299   0.304   0.317   0.343   0.444   0.455   0.484   0.500
  0.515   0.554   0.588   0.603   0.624   0.631   0.665   0.668
  0.696   0.750   0.764   0.823   0.837   0.855   0.868   0.884
  0.907   0.919   0.934   0.946   1.009   1.032   1.052   1.120
  1.339   1.381   1.437   1.536   1.563   1.612   1.661   1.702
  1.777   1.831   1.871   1.951   2.025   2.045   2.062   2.068
  2.085   2.087   2.109   2.112   2.134   2.162   2.248   2.302
  2.356   2.439   2.488   2.525   2.593   2.596   2.624   2.679
  2.718   2.753   2.818   2.880   2.901   3.187   3.273   3.310
  3.412   3.462   3.528   4.181   4.267   4.273   4.313   4.333
  4.345   4.362   4.376   4.407   4.418   4.510   4.534   4.633
  5.455   5.479  89.717  89.829
 --------------------------------------------------------------
 
          Ground-State Mulliken Net Atomic Charges

     Atom                 Charge (a.u.)    Spin (a.u.)
  --------------------------------------------------------
      1 C                    -0.224740      -0.000000
      2 H                     0.152801      -0.000000
      3 C                    -0.186886      -0.000000
      4 H                     0.121172       0.000000
      5 H                     0.119851      -0.000000
      6 C                    -0.328446       0.000000
      7 H                     0.110366      -0.000000
      8 H                     0.137362      -0.000000
      9 H                     0.105842      -0.000000
     10 Se                   -0.071415      -0.000000
     11 H                     0.065339      -0.000000
     12 Se                   -0.070394      -0.000000
     13 H                     0.069147       0.000000
  --------------------------------------------------------
  Sum of atomic charges =    -0.000000
  Sum of spin   charges =    -0.000000

 -----------------------------------------------------------------
                    Cartesian Multipole Moments
 -----------------------------------------------------------------
    Charge (ESU x 10^10)
                -0.0000
    Dipole Moment (Debye)
         X       0.3567      Y       0.8771      Z      -0.1385
       Tot       0.9569
    Quadrupole Moments (Debye-Ang)
        XX     -61.4972     XY       2.2757     YY     -55.6243
        XZ       0.7674     YZ      -0.0937     ZZ     -55.9316
    Octopole Moments (Debye-Ang^2)
       XXX     -24.9941    XXY     -21.0650    XYY      -7.3863
       YYY     -40.3590    XXZ       0.7958    XYZ      -4.4735
       YYZ       3.2268    XZZ      -3.1116    YZZ     -15.8428
       ZZZ      -0.3481
    Hexadecapole Moments (Debye-Ang^3)
      XXXX    -820.9864   XXXY     -30.8502   XXYY    -231.5000
      XYYY     -37.8482   YYYY    -617.9449   XXXZ      -1.6091
      XXYZ       3.8749   XYYZ       7.0783   YYYZ      -0.4640
      XXZZ    -156.5412   XYZZ     -14.5949   YYZZ    -120.5225
      XZZZ       3.4727   YZZZ      -3.7465   ZZZZ    -108.2405
 -----------------------------------------------------------------
 Calculating analytic gradient of the SCF energy
 Gradient of SCF Energy
            1           2           3           4           5           6
    1   0.0000721  -0.0000153  -0.0000313  -0.0000318  -0.0000245  -0.0000877
    2   0.0000581  -0.0000421   0.0000435  -0.0000280  -0.0000425  -0.0000169
    3  -0.0000374   0.0000041   0.0000473  -0.0000523  -0.0000163   0.0000414
            7           8           9          10          11          12
    1  -0.0000828  -0.0000150  -0.0000164  -0.0000877   0.0001769   0.0000797
    2   0.0000636   0.0000769   0.0000245   0.0072686  -0.0074270  -0.0000052
    3  -0.0000204   0.0000280  -0.0000070   0.0046223  -0.0046332   0.0000199
           13
    1   0.0000638
    2   0.0000264
    3   0.0000035
 Max gradient component =       7.427E-03
 RMS gradient           =       1.967E-03
 Gradient time:  CPU 20.10 s  wall 1.77 s
 Geometry Optimization Parameters
   NAtoms,    NIC,     NZ,  NCons,   NDum,   NFix, NCnnct, MaxDiis
       13      82       0       1       0       0       0       0

 Cartesian Hessian Update
 Hessian Updated using BFGS Update


** CONSTRAINED OPTIMIZATION IN DELOCALIZED INTERNAL COORDINATES **
   Searching for a Minimum

   Optimization Cycle:  12

                       Coordinates (Angstroms)
     ATOM                X               Y               Z
      1  C         0.0741447818    0.5120519161   -0.3828720141
      2  H         0.1325956881    0.6423888564   -1.4653024092
      3  C         0.3561606515    1.8415210011    0.3299409939
      4  H        -0.4871809973    2.5144090815    0.1229830000
      5  H         0.3655934669    1.6775975001    1.4138083622
      6  C         1.6538602496    2.5220144688   -0.1134106036
      7  H         1.7725517157    3.4822439877    0.3983503786
      8  H         2.5258667576    1.9034748851    0.1144749669
      9  H         1.6489309385    2.7188637293   -1.1914009230
     10  Se       -1.7981932389   -0.0172516310    0.0487513680
     11  H        -1.7833082121   -1.2866425845   -0.7502636819
     12  Se        1.4107785115   -0.9200349335   -0.0196381206
     13  H         0.9603996872   -1.1417362772    1.3680786827
   Point Group: c1    Number of degrees of freedom:    33


   Energy is  -4921.729388785

              Constraints and their Current Values
                                        Value     Constraint
   Distance(Angs):       10  11             1.500000     1.500000
 Hessian Updated using BFGS Update

 32 Hessian modes will be used to form the next step
  Hessian Eigenvalues:
     0.005702    0.013664    0.038609    0.045100    0.056589    0.070538
     0.083776    0.084961    0.085021    0.085324    0.099045    0.107069
     0.129553    0.156795    0.159012    0.160116    0.161457    0.165280
     0.167969    0.188839    0.195223    0.205737    0.234768    0.242565
     0.296803    0.319675    0.347384    0.347721    0.348125    0.348213
     0.348387    0.350468

 Minimum Search - Taking Simple RFO Step
 Searching for Lamda that Minimizes Along All modes
 Value Taken    Lamda =   0.00000000
 Step Taken.  Stepsize is  0.004177

                             Maximum     Tolerance    Cnvgd?
         Gradient           0.000047      0.000300     YES
         Displacement       0.001980      0.001200      NO
         Energy change     -0.000001      0.000001     YES


                       Distance Matrix (Angstroms)
             C (  1)   H (  2)   C (  3)   H (  4)   H (  5)   C (  6)
   H (  2)  1.091815
   C (  3)  1.534641  2.170437
   H (  4)  2.140189  2.532041  1.098560
   H (  5)  2.161365  3.068424  1.096234  1.758894
   C (  6)  2.570615  2.770352  1.530900  2.154065  2.169117
   H (  7)  3.509549  3.771927  2.168598  2.473646  2.503485  1.094545
   H (  8)  2.862578  3.132695  2.181258  3.074373  2.531021  1.093123
   H (  9)  2.829079  2.585738  2.180703  2.516422  3.085175  1.095827
   Se( 10)  1.993015  2.540754  2.859256  2.851941  3.068854  4.288455
   H ( 11)  2.611592  2.811251  3.940758  4.109805  4.252964  5.169679
   Se( 12)  1.992336  2.482915  2.976679  3.926576  3.145612  3.451896
   H ( 13)  2.566377  3.449117  3.216000  4.124700  2.881758  4.012327
             H (  7)   H (  8)   H (  9)   Se( 10)   H ( 11)   Se( 12)
   H (  8)  1.772168
   H (  9)  1.767863  1.771775
   Se( 10)  5.011877  4.731913  4.572414
   H ( 11)  6.058526  5.430802  5.293293  1.500000
   Se( 12)  4.436852  3.038687  3.830317  3.334246  3.297030
   H ( 13)  4.793867  3.646302  4.682867  3.258055  3.469338  1.475720

 
 Final energy is   -4921.72938878527     


 ******************************
 **  OPTIMIZATION CONVERGED  **
 ******************************

                       Coordinates (Angstroms)
     ATOM                X               Y               Z
      1  C         0.0741447818    0.5120519161   -0.3828720141
      2  H         0.1325956881    0.6423888564   -1.4653024092
      3  C         0.3561606515    1.8415210011    0.3299409939
      4  H        -0.4871809973    2.5144090815    0.1229830000
      5  H         0.3655934669    1.6775975001    1.4138083622
      6  C         1.6538602496    2.5220144688   -0.1134106036
      7  H         1.7725517157    3.4822439877    0.3983503786
      8  H         2.5258667576    1.9034748851    0.1144749669
      9  H         1.6489309385    2.7188637293   -1.1914009230
     10  Se       -1.7981932389   -0.0172516310    0.0487513680
     11  H        -1.7833082121   -1.2866425845   -0.7502636819
     12  Se        1.4107785115   -0.9200349335   -0.0196381206
     13  H         0.9603996872   -1.1417362772    1.3680786827

Z-matrix Print:
$molecule
0 1
Se
H  1 1.475720
C  1 1.992336 2 94.282854
H  3 1.091815 1 103.334738 2 -168.060766 0
C  3 1.534641 1 114.502316 2 71.925610 0
H  5 1.096234 3 109.346593 1 -59.874490 0
H  5 1.098560 3 107.580805 1 -175.183969 0
C  5 1.530900 3 113.974910 1 63.967395 0
H  8 1.093123 5 111.365039 3 -62.356744 0
H  8 1.094545 5 110.271818 3 177.502346 0
H  8 1.095827 5 111.156942 3 58.219901 0
Se 3 1.993015 1 113.570920 2 -52.205760 0
H  12 1.500000 3 95.742973 1 -52.287618 0
$end

PES scan, value:    1.5000 energy: -4921.7293887853
------- Summary of potential scan: ------ 
    1.5000     -4921.7293887853
----------------------------------------- 
Archival summary:
1\1\hpc0248\JobtypUnspecified\ProcedureUnspecified\6-31G**\e238\knomura\ThuMar1400:38:452019ThuMar1400:38:452019\0\\#,JobtypUnspecified,ProcedureUnspecified,6-31G**,\\0,1\Se\H,1,1.47572\C,1,1.99234,2,94.2829\H,3,1.09181,1,103.335,2,-168.061,0\C,3,1.53464,1,114.502,2,71.9256,0\H,5,1.09623,3,109.347,1,-59.8745,0\H,5,1.09856,3,107.581,1,-175.184,0\C,5,1.5309,3,113.975,1,63.9674,0\H,8,1.09312,5,111.365,3,-62.3567,0\H,8,1.09454,5,110.272,3,177.502,0\H,8,1.09583,5,111.157,3,58.2199,0\Se,3,1.99302,1,113.571,2,-52.2058,0\H,12,1.5,3,95.743,1,-52.2876,0\\\@

 Total job time:  73.51s(wall), 856.54s(cpu) 
 Thu Mar 14 00:38:45 2019

        *************************************************************
        *                                                           *
        *  Thank you very much for using Q-Chem.  Have a nice day.  *
        *                                                           *
        *************************************************************


