
Running Job 1 of 1 selenium/02/Se-H.xyz.data/inputs/bond_singlet_4.2.in
qchem selenium/02/Se-H.xyz.data/inputs/bond_singlet_4.2.in_1745.0 /staging/scratch/2868765/qchem1745/ 1
/usr/usc/qchem/5.1.1/exe/qcprog.exe_s selenium/02/Se-H.xyz.data/inputs/bond_singlet_4.2.in_1745.0 /staging/scratch/2868765/qchem1745/
Check license passed

                  Welcome to Q-Chem
     A Quantum Leap Into The Future Of Chemistry


 Q-Chem 5.1, Q-Chem, Inc., Pleasanton, CA (2018)

 Yihan Shao,  Zhengting Gan,  E. Epifanovsky,  A. T. B. Gilbert,  M. Wormit,  
 J. Kussmann,  A. W. Lange,  A. Behn,  Jia Deng,  Xintian Feng,  D. Ghosh,  
 M. Goldey,  P. R. Horn,  L. D. Jacobson,  I. Kaliman,  T. Kus,  A. Landau,  
 Jie Liu,  E. I. Proynov,  R. M. Richard,  R. P. Steele,  E. J. Sundstrom,  
 H. L. Woodcock III,  P. M. Zimmerman,  D. Zuev,  B. Albrecht,  E. Alguire,  
 S. A. Baeppler,  D. Barton,  Z. Benda,  Y. A. Bernard,  E. J. Berquist,  
 K. B. Bravaya,  H. Burton,  D. Casanova,  Chun-Min Chang,  Yunqing Chen,  
 A. Chien,  K. D. Closser,  M. P. Coons,  S. Coriani,  S. Dasgupta,  
 A. L. Dempwolff,  M. Diedenhofen,  Hainam Do,  R. G. Edgar,  Po-Tung Fang,  
 S. Faraji,  S. Fatehi,  Qingguo Feng,  K. D. Fenk,  J. Fosso-Tande,  
 Qinghui Ge,  A. Ghysels,  G. Gidofalvi,  J. Gomes,  J. Gonthier,  A. Gunina,  
 D. Hait,  M. W. D. Hanson-Heine,  P. H. P. Harbach,  A. W. Hauser,  
 J. E. Herr,  E. G. Hohenstein,  Z. C. Holden,  Kerwin Hui,  B. C. Huynh,  
 T.-C. Jagau,  Hyunjun Ji,  B. Kaduk,  K. Khistyaev,  Jaehoon Kim,  
 P. Klunzinger,  K. Koh,  D. Kosenkov,  L. Koulias,  T. Kowalczyk,  
 C. M. Krauter,  A. Kunitsa,  Ka Un Lao,  A. Laurent,  K. V. Lawler,  
 Joonho Lee,  D. Lefrancois,  S. Lehtola,  D. S. Levine,  Yi-Pei Li,  
 You-Sheng Lin,  Fenglai Liu,  E. Livshits,  A. Luenser,  P. Manohar,  
 E. Mansoor,  S. F. Manzer,  Shan-Ping Mao,  Yuezhi Mao,  N. Mardirossian,  
 A. V. Marenich,  T. Markovich,  L. A. Martinez-Martinez,  S. A. Maurer,  
 N. J. Mayhall,  S. C. McKenzie,  J.-M. Mewes,  A. F. Morrison,  
 J. W. Mullinax,  K. Nanda,  T. S. Nguyen-Beck,  R. Olivares-Amaya,  
 J. A. Parkhill,  T. M. Perrine,  F. Plasser,  P. Pokhilko,  S. Prager,  
 A. Prociuk,  E. Ramos,  D. R. Rehn,  F. Rob,  M. Schneider,  N. Sergueev,  
 S. M. Sharada,  S. Sharma,  D. W. Small,  T. Stauch,  T. Stein,  
 Yu-Chuan Su,  A. J. W. Thom,  A. Tkatchenko,  T. Tsuchimochi,  N. M. Tubman,  
 L. Vogt,  M. L. Vidal,  O. Vydrov,  M. A. Watson,  J. Wenzel,  
 M. de Wergifosse,  T. A. Wesolowski,  A. White,  J. Witte,  A. Yamada,  
 Jun Yang,  K. Yao,  S. Yeganeh,  S. R. Yost,  Zhi-Qiang You,  A. Zech,  
 Igor Ying Zhang,  Xing Zhang,  Yan Zhao,  Ying Zhu,  B. R. Brooks,  
 G. K. L. Chan,  C. J. Cramer,  M. S. Gordon,  W. J. Hehre,  A. Klamt,  
 M. W. Schmidt,  C. D. Sherrill,  D. G. Truhlar,  A. Aspuru-Guzik,  R. Baer,  
 A. T. Bell,  N. A. Besley,  Jeng-Da Chai,  A. E. DePrince, III,  
 R. A. DiStasio Jr.,  A. Dreuw,  B. D. Dunietz,  T. R. Furlani,  
 Chao-Ping Hsu,  Yousung Jung,  Jing Kong,  D. S. Lambrecht,  WanZhen Liang,  
 C. Ochsenfeld,  V. A. Rassolov,  L. V. Slipchenko,  J. E. Subotnik,  
 T. Van Voorhis,  J. M. Herbert,  A. I. Krylov,  P. M. W. Gill,  M. Head-Gordon

 Contributors to earlier versions of Q-Chem not listed above: 
 R. D. Adamson,  B. Austin,  J. Baker,  G. J. O. Beran,  K. Brandhorst,  
 S. T. Brown,  E. F. C. Byrd,  A. K. Chakraborty,  C.-L. Cheng,  
 Siu Hung Chien,  D. M. Chipman,  D. L. Crittenden,  H. Dachsel,  
 R. J. Doerksen,  A. D. Dutoi,  L. Fusti-Molnar,  W. A. Goddard III,  
 A. Golubeva-Zadorozhnaya,  S. R. Gwaltney,  G. Hawkins,  A. Heyden,  
 S. Hirata,  G. Kedziora,  F. J. Keil,  C. Kelley,  Jihan Kim,  R. A. King,  
 R. Z. Khaliullin,  P. P. Korambath,  W. Kurlancheek,  A. M. Lee,  M. S. Lee,  
 S. V. Levchenko,  Ching Yeh Lin,  D. Liotard,  R. C. Lochan,  I. Lotan,  
 P. E. Maslen,  N. Nair,  D. P. O'Neill,  D. Neuhauser,  E. Neuscamman,  
 C. M. Oana,  R. Olson,  B. Peters,  R. Peverati,  P. A. Pieniazek,  
 Y. M. Rhee,  J. Ritchie,  M. A. Rohrdanz,  E. Rosta,  N. J. Russ,  
 H. F. Schaefer III,  N. E. Schultz,  N. Shenvi,  A. C. Simmonett,  A. Sodt,  
 D. Stuck,  K. S. Thanthiriwatte,  V. Vanovschi,  Tao Wang,  A. Warshel,  
 C. F. Williams,  Q. Wu,  X. Xu,  W. Zhang

 Please cite Q-Chem as follows:
 Y. Shao et al., Mol. Phys. 113, 184-215 (2015)
 DOI: 10.1080/00268976.2014.952696

 Q-Chem 5.1.1 for Intel X86 EM64T Linux

 Parts of Q-Chem use Armadillo 8.300.2 (Tropical Shenanigans).
 http://arma.sourceforge.net/

 Q-Chem begins on Thu Mar 14 01:19:44 2019  

Host: 
0

     Scratch files written to /staging/scratch/2868765/qchem1745//
 Aug318 |scratch|qcdevops|jenkins|workspace|build_RNUM 6013   
Processing $rem in /usr/usc/qchem/5.1.1/config/preferences.
 MEM_TOTAL  2000 
Input Ideriv = 2
Curr. Ideriv = -1
Max.  Ideriv = 2

Checking the input file for inconsistencies... 	...done.

--------------------------------------------------------------
User input:
--------------------------------------------------------------

$comment
potential surface scanner
$end

$rem
JOBTYPE  PES_SCAN
UNRESTRICTED TRUE
SYM_IGNORE  TRUE
GEOM_OPT_MAX_CYCLES 400
SCF_MAX_CYCLES 400
METHOD   B3LYP
BASIS   6-31G**
PDB_PRINT 2
SCF_CONVERGENCE 6
THRESH 14
SCF_PRINT 1
$end
$molecule
0 1
C 0.313987 1.114360 -1.086410
H -1.165210 -0.165831 -2.643627
C 0.394702 2.063373 0.094285
H 0.071819 3.047856 -0.276780
H -0.360753 1.770796 0.835974
C 1.763100 2.192489 0.764431
H 1.702427 2.908782 1.589806
H 2.095151 1.231485 1.166376
H 2.518580 2.538604 0.056535
Se -1.498867 0.595174 -1.430324
H -0.009460 -1.792438 1.551450
Se 1.701190 0.564394 -2.069166
H -0.694456 -1.620137 1.320953
$end
$scan
stre 10 11 4.200000 4.201000 0.100000
$end
--------------------------------------------------------------
 ----------------------------------------------------------------
             Standard Nuclear Orientation (Angstroms)
    I     Atom           X                Y                Z
 ----------------------------------------------------------------
    1      C       0.3139870000     1.1143600000    -1.0864100000
    2      H      -1.1652100000    -0.1658310000    -2.6436270000
    3      C       0.3947020000     2.0633730000     0.0942850000
    4      H       0.0718190000     3.0478560000    -0.2767800000
    5      H      -0.3607530000     1.7707960000     0.8359740000
    6      C       1.7631000000     2.1924890000     0.7644310000
    7      H       1.7024270000     2.9087820000     1.5898060000
    8      H       2.0951510000     1.2314850000     1.1663760000
    9      H       2.5185800000     2.5386040000     0.0565350000
   10      Se     -1.4988670000     0.5951740000    -1.4303240000
   11      H      -0.0094600000    -1.7924380000     1.5514500000
   12      Se      1.7011900000     0.5643940000    -2.0691660000
   13      H      -0.6944560000    -1.6201370000     1.3209530000
 ----------------------------------------------------------------
 Nuclear Repulsion Energy =   594.5060034017 hartrees
 There are       47 alpha and       47 beta electrons
 Requested basis set is 6-31G(d,p)
 There are 52 shells and 155 basis functions

 Total QAlloc Memory Limit   2000 MB
 Mega-Array Size       188 MB
 MEM_STATIC part       192 MB
A total of 1 constraints
  
            1
    1   1.0100000
    2  10.0100000
    3  11.0100000
    4   4.2000000
    5   4.2010000
    6   0.1000000
    7   0.0000000
    8   0.0000000
    9   0.0000000
   10   0.0000000

                       Distance Matrix (Angstroms)
             C (  1)   H (  2)   C (  3)   H (  4)   H (  5)   C (  6)
   H (  2)  2.500367
   C (  3)  1.516964  3.859901
   H (  4)  2.110107  4.178515  1.100522
   H (  5)  2.140501  4.062671  1.098370  1.748205
   C (  6)  2.586098  5.074597  1.529143  2.162453  2.166494
   H (  7)  3.508539  5.966451  2.159038  2.482412  2.473861  1.094532
   H (  8)  2.874249  5.205629  2.175533  3.078275  2.536038  1.093319
   H (  9)  2.862695  5.308027  2.176724  2.521324  3.080197  1.091633
   Se( 10)  1.916839  1.470564  2.840008  3.132629  2.795263  4.243677
   H ( 11)  3.938578  4.645458  4.141733  5.174696  3.651294  4.431818
   Se( 12)  1.786786  3.013218  2.938430  3.469161  3.761230  3.268608
   H ( 13)  3.780189  4.249060  4.032273  4.993004  3.441655  4.570056
             H (  7)   H (  8)   H (  9)   Se( 10)   H ( 11)   Se( 12)
   H (  8)  1.773936
   H (  9)  1.775967  1.766239
   Se( 10)  4.972147  4.479365  4.703993
   H ( 11)  5.003349  3.704292  5.232942  4.100000
   Se( 12)  4.345599  3.327003  3.014007  3.263347  4.646487
   H ( 13)  5.131124  3.992186  5.405320  3.622734  0.742991  4.690864

 
 A cutoff of  1.0D-14 yielded   1201 shell pairs
 There are     10856 function pairs
 
 -------------------------------------------------------
 OpenMP Integral Computing Module                       
 Release: version 1.0, May 2013, Q-Chem Inc. Pittsburgh 
 -------------------------------------------------------
 Integral Job Info:
 Integral job number is                      11
 Integral operator is                         1
 short-range coefficients                     0
 long-range coefficients              100000000
 Omega coefficients                           0
 if combine SR and LR in K                    0
 Integral screening is                        0
 Integral computing path is                   2
 max size of driver memory is            800000
 size of driver memory is                593474
 size of scratch memory is             15267112
 max col of scratch BK array               1296
 max len of scratch array in speh3          155
 max len of scratch index in speh4           18
 max int batch size is                      520
 min int batch size is                       52
 fixed nKL is                                52
 max L of basis functions is                  2
 order of int derivative is                   0
 number of shells is                         52
 number of basis is                         155
 number of cartesian basis is               155
 number of contracted shell pairs          1201
 number of primitive shell pairs           4775
 maxK2 (contraction) of shell pair           36
 max number of K2 of shell pair               1
 max number of CS2 of shell pair             82
 max number of PS2 of shell pair            462
 mem total for path MDJ                  535932
 -------------------------------------------------------
 Smallest overlap matrix eigenvalue = 6.75E-04

 Scale SEOQF with 1.000000e-01/1.000000e-01/1.000000e-01

 Standard Electronic Orientation quadrupole field applied
 Nucleus-field energy     =    -0.0000000098 hartrees
 Guess from superposition of atomic densities
 Warning:  Energy on first SCF cycle will be non-variational
 SAD guess density has 93.936381 electrons

 -----------------------------------------------------------------------
  General SCF calculation program by
  Eric Jon Sundstrom, Paul Horn, Yuezhi Mao, Dmitri Zuev, Alec White,
  David Stuck, Shaama M.S., Shane Yost, Joonho Lee, David Small,
  Daniel Levine, Susi Lehtola, Hugh Burton, Evgeny Epifanovsky
 -----------------------------------------------------------------------
 Exchange:     0.2000 Hartree-Fock + 0.0800 Slater + 0.7200 B88
 Correlation:  0.1900 VWN1RPA + 0.8100 LYP
 Using SG-1 standard quadrature grid
 using 12 threads for integral computing
 -------------------------------------------------------
 OpenMP Integral computing Module                
 Release: version 1.0, May 2013, Q-Chem Inc. Pittsburgh 
 -------------------------------------------------------
 -------------------------------------------------------
 OpenMP BLAS3 based DFT computing Module                
 Release: version 1.0, May 2013, Q-Chem Inc. Pittsburgh 
 -------------------------------------------------------
 A unrestricted SCF calculation will be
 performed using DIIS
 SCF converges when DIIS error is below 1.0e-06
 Alpha HF Exchange    Energy = -18.85985768095208
 Beta HF Exchange     Energy = -18.85985768095208
 DFT Correlation      Energy =  -5.13280129369531
 DFT Exchange         Energy = -149.88101143052873
 One-Electron (alpha) Energy = -4012.04754282492331
 One-Electron (beta)  Energy = -4012.04754282492331
 Total Coulomb        Energy = 2694.48670178406110
 ---------------------------------------
  Cycle       Energy         DIIS error
 ---------------------------------------
    1   -4927.8359085600      1.51e-01  
 Alpha HF Exchange    Energy = -18.96552006551205
 Beta HF Exchange     Energy = -18.96552006551204
 DFT Correlation      Energy =  -5.18556543559516
 DFT Exchange         Energy = -151.01074335329699
 One-Electron (alpha) Energy = -4021.86433071560350
 One-Electron (beta)  Energy = -4021.86433071560350
 Total Coulomb        Energy = 2721.79393357446088
    2   -4921.5560733847      9.32e-03  
 Alpha HF Exchange    Energy = -18.84133649255071
 Beta HF Exchange     Energy = -18.84133649255070
 DFT Correlation      Energy =  -5.15081836914931
 DFT Exchange         Energy = -150.02345962250450
 One-Electron (alpha) Energy = -4008.63213416753979
 One-Electron (beta)  Energy = -4008.63213416753933
 Total Coulomb        Energy = 2694.09054049998031
    3   -4921.5246754199      4.02e-03  
 Alpha HF Exchange    Energy = -18.93861275512062
 Beta HF Exchange     Energy = -18.93861275512065
 DFT Correlation      Energy =  -5.17356608192133
 DFT Exchange         Energy = -150.76682842937367
 One-Electron (alpha) Energy = -4018.26949013964395
 One-Electron (beta)  Energy = -4018.26949013964668
 Total Coulomb        Energy = 2714.33183660086252
    4   -4921.5187603081      3.80e-03  
 Alpha HF Exchange    Energy = -18.91317098504117
 Beta HF Exchange     Energy = -18.91317098504116
 DFT Correlation      Energy =  -5.17167853808302
 DFT Exchange         Energy = -150.59444548984490
 One-Electron (alpha) Energy = -4016.40731954730654
 One-Electron (beta)  Energy = -4016.40731954730518
 Total Coulomb        Energy = 2710.24443621551518
    5   -4921.6566654852      1.58e-03  
 Alpha HF Exchange    Energy = -18.90177100989922
 Beta HF Exchange     Energy = -18.90177100989921
 DFT Correlation      Energy =  -5.16658834830081
 DFT Exchange         Energy = -150.49402294642141
 One-Electron (alpha) Energy = -4015.21307173183277
 One-Electron (beta)  Energy = -4015.21307173183095
 Total Coulomb        Energy = 2707.69525856718792
    6   -4921.6890348191      2.31e-04  
 Alpha HF Exchange    Energy = -18.90051838148131
 Beta HF Exchange     Energy = -18.90051838148130
 DFT Correlation      Energy =  -5.16662823445703
 DFT Exchange         Energy = -150.48624718241510
 One-Electron (alpha) Energy = -4014.97406671669296
 One-Electron (beta)  Energy = -4014.97406671669114
 Total Coulomb        Energy = 2707.20649493386236
    7   -4921.6895472874      1.20e-04  
 Alpha HF Exchange    Energy = -18.90089333213712
 Beta HF Exchange     Energy = -18.90089333213714
 DFT Correlation      Energy =  -5.16651063711199
 DFT Exchange         Energy = -150.48836903191739
 One-Electron (alpha) Energy = -4015.01362525462400
 One-Electron (beta)  Energy = -4015.01362525462673
 Total Coulomb        Energy = 2707.28822663705205
    8   -4921.6896868136      2.39e-05  
 Alpha HF Exchange    Energy = -18.90102161482402
 Beta HF Exchange     Energy = -18.90102161482403
 DFT Correlation      Energy =  -5.16655860919722
 DFT Exchange         Energy = -150.48937334918548
 One-Electron (alpha) Energy = -4015.04492517318295
 One-Electron (beta)  Energy = -4015.04492517318204
 Total Coulomb        Energy = 2707.35212521444282
    9   -4921.6896969280      8.37e-06  
 Alpha HF Exchange    Energy = -18.90101531440359
 Beta HF Exchange     Energy = -18.90101531440360
 DFT Correlation      Energy =  -5.16657120816883
 DFT Exchange         Energy = -150.48932320578211
 One-Electron (alpha) Energy = -4015.04217241685456
 One-Electron (beta)  Energy = -4015.04217241685546
 Total Coulomb        Energy = 2707.34656868008642
   10   -4921.6896978045      1.38e-06  
 Alpha HF Exchange    Energy = -18.90101923624911
 Beta HF Exchange     Energy = -18.90101923624909
 DFT Correlation      Energy =  -5.16657108270969
 DFT Exchange         Energy = -150.48935152713207
 One-Electron (alpha) Energy = -4015.04243787832547
 One-Electron (beta)  Energy = -4015.04243787832274
 Total Coulomb        Energy = 2707.34713561872195
   11   -4921.6896978284      3.35e-07  Convergence criterion met
 ---------------------------------------
 SCF time:   CPU 53.49s  wall 5.00s 
<S^2> =          0.000000000
 Alpha HF Exchange    Energy = -18.90101923624911
 Beta HF Exchange     Energy = -18.90101923624909
 DFT Correlation      Energy =  -5.16657108270969
 DFT Exchange         Energy = -150.48935152713207
 One-Electron (alpha) Energy = -4015.04243787832547
 One-Electron (beta)  Energy = -4015.04243787832274
 Total Coulomb        Energy = 2707.34713561872195
 Nuclear repulsion Energy = 594.50600339191340
 SCF   energy in the final basis set =    -4921.6896978284
 Total energy in the final basis set =    -4921.6896978284
 
 --------------------------------------------------------------
 
                    Orbital Energies (a.u.)
 --------------------------------------------------------------
 
 Alpha MOs
 -- Occupied --
*******-453.879 -58.123 -58.074 -52.180 -52.179 -52.177 -52.132
-52.131 -52.128 -10.289 -10.219 -10.186  -7.856  -7.808  -5.802
 -5.797  -5.790  -5.753  -5.749  -5.740  -2.135  -2.134  -2.128
 -2.124  -2.124  -2.087  -2.086  -2.079  -2.076  -2.074  -0.831
 -0.753  -0.697  -0.652  -0.527  -0.470  -0.449  -0.431  -0.418
 -0.381  -0.370  -0.364  -0.339  -0.306  -0.241  -0.214
 -- Virtual --
 -0.085  -0.023   0.041   0.071   0.092   0.096   0.140   0.150
  0.162   0.178   0.180   0.193   0.221   0.235   0.269   0.276
  0.292   0.319   0.338   0.354   0.445   0.487   0.504   0.515
  0.528   0.558   0.574   0.581   0.606   0.617   0.621   0.649
  0.678   0.693   0.771   0.813   0.830   0.850   0.859   0.880
  0.904   0.919   0.951   0.975   0.980   1.043   1.058   1.073
  1.202   1.329   1.449   1.527   1.588   1.602   1.654   1.676
  1.686   1.758   1.784   1.837   1.875   1.903   2.032   2.043
  2.058   2.066   2.099   2.104   2.156   2.200   2.239   2.295
  2.379   2.385   2.431   2.565   2.601   2.617   2.620   2.663
  2.674   2.738   2.814   2.870   2.897   3.192   3.277   3.370
  3.450   3.516   4.058   4.155   4.243   4.257   4.260   4.269
  4.331   4.350   4.354   4.385   4.436   4.482   4.496   4.605
  5.429   5.472  89.707  89.725
 
 Beta MOs
 -- Occupied --
*******-453.879 -58.123 -58.074 -52.180 -52.179 -52.177 -52.132
-52.131 -52.128 -10.289 -10.219 -10.186  -7.856  -7.808  -5.802
 -5.797  -5.790  -5.753  -5.749  -5.740  -2.135  -2.134  -2.128
 -2.124  -2.124  -2.087  -2.086  -2.079  -2.076  -2.074  -0.831
 -0.753  -0.697  -0.652  -0.527  -0.470  -0.449  -0.431  -0.418
 -0.381  -0.370  -0.364  -0.339  -0.306  -0.241  -0.214
 -- Virtual --
 -0.085  -0.023   0.041   0.071   0.092   0.096   0.140   0.150
  0.162   0.178   0.180   0.193   0.221   0.235   0.269   0.276
  0.292   0.319   0.338   0.354   0.445   0.487   0.504   0.515
  0.528   0.558   0.574   0.581   0.606   0.617   0.621   0.649
  0.678   0.693   0.771   0.813   0.830   0.850   0.859   0.880
  0.904   0.919   0.951   0.975   0.980   1.043   1.058   1.073
  1.202   1.329   1.449   1.527   1.588   1.602   1.654   1.676
  1.686   1.758   1.784   1.837   1.875   1.903   2.032   2.043
  2.058   2.066   2.099   2.104   2.156   2.200   2.239   2.295
  2.379   2.385   2.431   2.565   2.601   2.617   2.620   2.663
  2.674   2.738   2.814   2.870   2.897   3.192   3.277   3.370
  3.450   3.516   4.058   4.155   4.243   4.257   4.260   4.269
  4.331   4.350   4.354   4.385   4.436   4.482   4.496   4.605
  5.429   5.472  89.707  89.725
 --------------------------------------------------------------
 
          Ground-State Mulliken Net Atomic Charges

     Atom                 Charge (a.u.)    Spin (a.u.)
  --------------------------------------------------------
      1 C                    -0.032313      -0.000000
      2 H                     0.091777      -0.000000
      3 C                    -0.225426       0.000000
      4 H                     0.151038       0.000000
      5 H                     0.129858      -0.000000
      6 C                    -0.315242       0.000000
      7 H                     0.103997      -0.000000
      8 H                     0.126081       0.000000
      9 H                     0.141684       0.000000
     10 Se                    0.020544      -0.000000
     11 H                    -0.004647      -0.000000
     12 Se                   -0.192144       0.000000
     13 H                     0.004791       0.000000
  --------------------------------------------------------
  Sum of atomic charges =     0.000000
  Sum of spin   charges =    -0.000000

 -----------------------------------------------------------------
                    Cartesian Multipole Moments
 -----------------------------------------------------------------
    Charge (ESU x 10^10)
                -0.0000
    Dipole Moment (Debye)
         X      -1.3679      Y       0.8295      Z       1.1937
       Tot       1.9960
    Quadrupole Moments (Debye-Ang)
        XX     -59.8848     XY       0.1466     YY     -55.5196
        XZ       4.0806     YZ       2.7167     ZZ     -59.0396
    Octopole Moments (Debye-Ang^2)
       XXX     -64.5513    XXY     -59.0480    XYY     -17.4096
       YYY    -151.2586    XXZ      62.9769    XYZ      -1.0484
       YYZ      65.6609    XZZ     -27.8276    YZZ     -58.5590
       ZZZ     186.2520
    Hexadecapole Moments (Debye-Ang^3)
      XXXX    -805.5501   XXXY    -118.1365   XXYY    -241.4933
      XYYY    -110.9938   YYYY    -593.2262   XXXZ      49.9984
      XXYZ      44.8106   XYYZ      16.0237   YYYZ     104.2119
      XXZZ    -272.9359   XYZZ     -35.1585   YYZZ    -257.9230
      XZZZ      66.9746   YZZZ     112.1941   ZZZZ    -894.4374
 -----------------------------------------------------------------
 Calculating analytic gradient of the SCF energy
 Gradient of SCF Energy
            1           2           3           4           5           6
    1  -0.0001639  -0.0001065  -0.0002192   0.0000712   0.0000611   0.0002417
    2  -0.0002070  -0.0000091   0.0001163   0.0000313  -0.0000450  -0.0000824
    3  -0.0001387   0.0000785   0.0001787   0.0000524  -0.0000820  -0.0002425
            7           8           9          10          11          12
    1   0.0001344  -0.0000996  -0.0000528   0.0002552   0.0000042  -0.0000321
    2   0.0000048  -0.0000027   0.0000013  -0.0001013   0.0002096   0.0000876
    3  -0.0000094   0.0001289  -0.0000479   0.0003027  -0.0003278  -0.0000234
           13
    1  -0.0000938
    2  -0.0000034
    3   0.0001305
 Max gradient component =       3.278E-04
 RMS gradient           =       1.385E-04
 Gradient time:  CPU 19.26 s  wall 1.68 s
 Geometry Optimization Parameters
   NAtoms,    NIC,     NZ,  NCons,   NDum,   NFix, NCnnct, MaxDiis
       13     136       0       1       0       0       0       0


** CONSTRAINED OPTIMIZATION IN DELOCALIZED INTERNAL COORDINATES **
   Searching for a Minimum

   Optimization Cycle:   1

                       Coordinates (Angstroms)
     ATOM                X               Y               Z
      1  C         0.3139870000    1.1143600000   -1.0864100000
      2  H        -1.1652100000   -0.1658310000   -2.6436270000
      3  C         0.3947020000    2.0633730000    0.0942850000
      4  H         0.0718190000    3.0478560000   -0.2767800000
      5  H        -0.3607530000    1.7707960000    0.8359740000
      6  C         1.7631000000    2.1924890000    0.7644310000
      7  H         1.7024270000    2.9087820000    1.5898060000
      8  H         2.0951510000    1.2314850000    1.1663760000
      9  H         2.5185800000    2.5386040000    0.0565350000
     10  Se       -1.4988670000    0.5951740000   -1.4303240000
     11  H        -0.0094600000   -1.7924380000    1.5514500000
     12  Se        1.7011900000    0.5643940000   -2.0691660000
     13  H        -0.6944560000   -1.6201370000    1.3209530000
   Point Group: c1    Number of degrees of freedom:    33


   Energy is  -4921.689697828

              Constraints and their Current Values
                                        Value     Constraint
   Distance(Angs):       10  11             4.100000     4.200000

 Attempting to Generate Delocalized Internal Coordinates

   Using Lagrange Multiplier Algorithm


 34 Hessian modes will be used to form the next step
  Hessian Eigenvalues:
    -0.997568    0.010112    0.027337    0.041763    0.045159    0.048498
     0.056641    0.060769    0.066376    0.067784    0.071548    0.076901
     0.080248    0.083283    0.088098    0.091369    0.102329    0.115967
     0.124004    0.126041    0.128977    0.151150    0.176754    0.182255
     0.263709    0.271859    0.274276    0.280395    0.284158    0.325772
     0.336244    0.342941    0.346246    1.002438

 Minimum Search - Taking P-RFO Step
 Searching for Lamda that Maximizes Along the Constraint modes Only
 Value Taken    Lamda =   0.01756570


 ********************************************
 ** ERROR IN DETERMINING Lamda IN CONFormD **
 ********************************************


 ** Scaling Hessian by  3.474396 **


 34 Hessian modes will be used to form the next step
  Hessian Eigenvalues:
    -0.991576    0.035131    0.094980    0.145102    0.156901    0.168502
     0.196794    0.211134    0.230616    0.235507    0.248587    0.267183
     0.278815    0.289360    0.306088    0.317453    0.355533    0.402916
     0.430838    0.437915    0.448117    0.525156    0.614112    0.633224
     0.916231    0.944545    0.952944    0.974205    0.987278    1.008495
     1.131861    1.168245    1.191513    1.202996

 Minimum Search - Taking P-RFO Step
 Searching for Lamda that Maximizes Along the Constraint modes Only
 Value Taken    Lamda =   0.01777294
 Searching for Lamda that Minimizes Along All other modes
 Value Taken    Lamda =  -0.01732461
 Step Taken.  Stepsize is  0.185715

                             Maximum     Tolerance    Cnvgd?
         Gradient            0.188973       0.000300      NO
         Displacement        0.185713       0.001200      NO
         Energy change     *********       0.000001      NO


 New Cartesian Coordinates Obtained by Inverse Iteration

 Displacement from previous Coordinates is:  0.186765
 ----------------------------------------------------------------
             Standard Nuclear Orientation (Angstroms)
    I     Atom           X                Y                Z
 ----------------------------------------------------------------
    1      C       0.3102213547     1.1101626476    -1.0944464590
    2      H      -1.1868105653    -0.1404703135    -2.6792031088
    3      C       0.3966078629     2.0559280850     0.0900028961
    4      H       0.0774007800     3.0392779873    -0.2872046371
    5      H      -0.3586279397     1.7628571134     0.8343946864
    6      C       1.7616137853     2.1899682119     0.7726621573
    7      H       1.6911379516     2.9093383899     1.5945613503
    8      H       2.1015613187     1.2358302578     1.1850972562
    9      H       2.5195621575     2.5367367788     0.0677010874
   10      Se     -1.5165883686     0.6211131681    -1.4651854058
   11      H       0.0299829381    -1.8055708852     1.5917467182
   12      Se      1.6950476027     0.5505334170    -2.0751081529
   13      H      -0.6888988778    -1.6167978581     1.3384846116
 ----------------------------------------------------------------
 Nuclear Repulsion Energy =   592.7286447540 hartrees
 There are       47 alpha and       47 beta electrons

                       Distance Matrix (Angstroms)
             C (  1)   H (  2)   C (  3)   H (  4)   H (  5)   C (  6)
   H (  2)  2.513293
   C (  3)  1.518175  3.872968
   H (  4)  2.104122  4.175007  1.100525
   H (  5)  2.143315  4.080920  1.100178  1.754240
   C (  6)  2.599734  5.102894  1.532068  2.163612  2.163714
   H (  7)  3.517773  5.987402  2.160512  2.482353  2.468565  1.094522
   H (  8)  2.901898  5.257415  2.186014  3.085016  2.540331  1.093639
   H (  9)  2.875220  5.333865  2.176835  2.518463  3.077448  1.091652
   Se( 10)  1.927135  1.470579  2.852652  3.126653  2.816473  4.268006
   H ( 11)  3.974377  4.742801  4.159426  5.196659  3.668553  4.431002
   Se( 12)  1.786792  3.024487  2.939365  3.465145  3.761983  3.286636
   H ( 13)  3.788629  4.309208  4.028144  4.990904  3.432966  4.562525
             H (  7)   H (  8)   H (  9)   Se( 10)   H ( 11)   Se( 12)
   H (  8)  1.771084
   H (  9)  1.776632  1.765122
   Se( 10)  4.988741  4.526906  4.723332
   H ( 11)  4.998981  3.702286  5.232242  4.198275
   Se( 12)  4.362390  3.356162  3.035862  3.269800  4.665779
   H ( 13)  5.120162  3.993455  5.400089  3.681560  0.785218  4.693947

 
 Applying Cartesian multipole field
    Component          Value
    ---------          -----
     (2,0,0)        1.00000E-11
     (0,2,0)        2.00000E-11
     (0,0,2)       -3.00000E-11
 Nucleus-field energy     =    -0.0000000103 hartrees
 Requested basis set is 6-31G(d,p)
 There are 52 shells and 155 basis functions
 A cutoff of  1.0D-14 yielded   1196 shell pairs
 There are     10818 function pairs
 Smallest overlap matrix eigenvalue = 6.75E-04
 Guess from superposition of atomic densities
 Warning:  Energy on first SCF cycle will be non-variational
 SAD guess density has 93.936381 electrons

 -----------------------------------------------------------------------
  General SCF calculation program by
  Eric Jon Sundstrom, Paul Horn, Yuezhi Mao, Dmitri Zuev, Alec White,
  David Stuck, Shaama M.S., Shane Yost, Joonho Lee, David Small,
  Daniel Levine, Susi Lehtola, Hugh Burton, Evgeny Epifanovsky
 -----------------------------------------------------------------------
 Exchange:     0.2000 Hartree-Fock + 0.0800 Slater + 0.7200 B88
 Correlation:  0.1900 VWN1RPA + 0.8100 LYP
 Using SG-1 standard quadrature grid
 using 12 threads for integral computing
 -------------------------------------------------------
 OpenMP Integral computing Module                
 Release: version 1.0, May 2013, Q-Chem Inc. Pittsburgh 
 -------------------------------------------------------
 -------------------------------------------------------
 OpenMP BLAS3 based DFT computing Module                
 Release: version 1.0, May 2013, Q-Chem Inc. Pittsburgh 
 -------------------------------------------------------
 A unrestricted SCF calculation will be
 performed using DIIS
 SCF converges when DIIS error is below 1.0e-06
 Alpha HF Exchange    Energy = -18.85706421413902
 Beta HF Exchange     Energy = -18.85706421413902
 DFT Correlation      Energy =  -5.13193788876540
 DFT Exchange         Energy = -149.87488498652118
 One-Electron (alpha) Energy = -4010.29498780748236
 One-Electron (beta)  Energy = -4010.29498780748236
 Total Coulomb        Energy = 2692.76438222883871
 ---------------------------------------
  Cycle       Energy         DIIS error
 ---------------------------------------
    1   -4927.8178999460      1.51e-01  
 Alpha HF Exchange    Energy = -18.96309145215243
 Beta HF Exchange     Energy = -18.96309145215239
 DFT Correlation      Energy =  -5.18442541706135
 DFT Exchange         Energy = -150.99304949592576
 One-Electron (alpha) Energy = -4020.09590320716825
 One-Electron (beta)  Energy = -4020.09590320716643
 Total Coulomb        Energy = 2720.01118305978707
    2   -4921.5556364281      9.32e-03  
 Alpha HF Exchange    Energy = -18.83949740704730
 Beta HF Exchange     Energy = -18.83949740704728
 DFT Correlation      Energy =  -5.14993827499030
 DFT Exchange         Energy = -150.01101303489844
 One-Electron (alpha) Energy = -4006.88310634214849
 One-Electron (beta)  Energy = -4006.88310634214622
 Total Coulomb        Energy = 2692.35559680783354
    3   -4921.5219172567      4.05e-03  
 Alpha HF Exchange    Energy = -18.93641453764560
 Beta HF Exchange     Energy = -18.93641453764559
 DFT Correlation      Energy =  -5.17226973534176
 DFT Exchange         Energy = -150.74967669240797
 One-Electron (alpha) Energy = -4016.47863731079997
 One-Electron (beta)  Energy = -4016.47863731079815
 Total Coulomb        Energy = 2712.51236430869676
    4   -4921.5110410722      3.86e-03  
 Alpha HF Exchange    Energy = -18.91136789290294
 Beta HF Exchange     Energy = -18.91136789290293
 DFT Correlation      Energy =  -5.17077362202527
 DFT Exchange         Energy = -150.58222642322076
 One-Electron (alpha) Energy = -4014.67134457831526
 One-Electron (beta)  Energy = -4014.67134457831480
 Total Coulomb        Energy = 2708.53555709830835
    5   -4921.6542231456      1.61e-03  
 Alpha HF Exchange    Energy = -18.89963629441544
 Beta HF Exchange     Energy = -18.89963629441543
 DFT Correlation      Energy =  -5.16555071576549
 DFT Exchange         Energy = -150.47890255561549
 One-Electron (alpha) Energy = -4013.45135054765797
 One-Electron (beta)  Energy = -4013.45135054765797
 Total Coulomb        Energy = 2705.92985461790158
    6   -4921.6879275939      2.24e-04  
 Alpha HF Exchange    Energy = -18.89837607039816
 Beta HF Exchange     Energy = -18.89837607039815
 DFT Correlation      Energy =  -5.16556841760409
 DFT Exchange         Energy = -150.47099697958794
 One-Electron (alpha) Energy = -4013.20459292865826
 One-Electron (beta)  Energy = -4013.20459292865735
 Total Coulomb        Energy = 2705.42546206091811
    7   -4921.6883965906      1.21e-04  
 Alpha HF Exchange    Energy = -18.89878551373969
 Beta HF Exchange     Energy = -18.89878551373969
 DFT Correlation      Energy =  -5.16546162791709
 DFT Exchange         Energy = -150.47340333711298
 One-Electron (alpha) Energy = -4013.25164012240703
 One-Electron (beta)  Energy = -4013.25164012240703
 Total Coulomb        Energy = 2705.52253650224247
    8   -4921.6885349913      2.40e-05  
 Alpha HF Exchange    Energy = -18.89890467599716
 Beta HF Exchange     Energy = -18.89890467599715
 DFT Correlation      Energy =  -5.16550916080335
 DFT Exchange         Energy = -150.47433589284597
 One-Electron (alpha) Energy = -4013.28163382605771
 One-Electron (beta)  Energy = -4013.28163382605635
 Total Coulomb        Energy = 2705.58373209743104
    9   -4921.6885452166      8.37e-06  
 Alpha HF Exchange    Energy = -18.89889813912677
 Beta HF Exchange     Energy = -18.89889813912674
 DFT Correlation      Energy =  -5.16552125618873
 DFT Exchange         Energy = -150.47428394306860
 One-Electron (alpha) Energy = -4013.27880332291306
 One-Electron (beta)  Energy = -4013.27880332290943
 Total Coulomb        Energy = 2705.57801726774005
   10   -4921.6885461119      1.41e-06  
 Alpha HF Exchange    Energy = -18.89890220766108
 Beta HF Exchange     Energy = -18.89890220766107
 DFT Correlation      Energy =  -5.16552113366650
 DFT Exchange         Energy = -150.47431357343186
 One-Electron (alpha) Energy = -4013.27913471147076
 One-Electron (beta)  Energy = -4013.27913471146894
 Total Coulomb        Energy = 2705.57871766541211
   11   -4921.6885461362      3.40e-07  Convergence criterion met
 ---------------------------------------
 SCF time:   CPU 52.74s  wall 4.00s 
<S^2> =          0.000000000
 Alpha HF Exchange    Energy = -18.89890220766108
 Beta HF Exchange     Energy = -18.89890220766107
 DFT Correlation      Energy =  -5.16552113366650
 DFT Exchange         Energy = -150.47431357343186
 One-Electron (alpha) Energy = -4013.27913471147076
 One-Electron (beta)  Energy = -4013.27913471146894
 Total Coulomb        Energy = 2705.57871766541211
 Nuclear repulsion Energy = 592.72864474373750
 SCF   energy in the final basis set =    -4921.6885461362
 Total energy in the final basis set =    -4921.6885461362
 
 --------------------------------------------------------------
 
                    Orbital Energies (a.u.)
 --------------------------------------------------------------
 
 Alpha MOs
 -- Occupied --
*******-453.880 -58.122 -58.075 -52.180 -52.178 -52.177 -52.132
-52.132 -52.129 -10.290 -10.219 -10.187  -7.856  -7.808  -5.801
 -5.796  -5.789  -5.753  -5.750  -5.741  -2.134  -2.134  -2.128
 -2.124  -2.123  -2.087  -2.086  -2.079  -2.076  -2.075  -0.830
 -0.752  -0.697  -0.652  -0.527  -0.470  -0.448  -0.422  -0.417
 -0.382  -0.370  -0.365  -0.338  -0.305  -0.241  -0.214
 -- Virtual --
 -0.085  -0.024   0.039   0.070   0.084   0.094   0.139   0.150
  0.162   0.177   0.180   0.192   0.220   0.234   0.268   0.276
  0.291   0.318   0.337   0.353   0.445   0.488   0.504   0.515
  0.528   0.558   0.574   0.580   0.605   0.616   0.629   0.650
  0.677   0.692   0.768   0.813   0.828   0.850   0.858   0.878
  0.903   0.919   0.950   0.974   0.978   1.026   1.054   1.060
  1.201   1.328   1.448   1.525   1.587   1.601   1.652   1.682
  1.689   1.758   1.780   1.833   1.878   1.898   2.032   2.043
  2.058   2.066   2.099   2.104   2.153   2.195   2.238   2.295
  2.303   2.378   2.430   2.564   2.570   2.573   2.601   2.662
  2.671   2.737   2.811   2.869   2.897   3.190   3.276   3.369
  3.449   3.514   3.971   4.056   4.243   4.256   4.259   4.268
  4.331   4.349   4.353   4.383   4.435   4.482   4.497   4.604
  5.430   5.471  89.708  89.722
 
 Beta MOs
 -- Occupied --
*******-453.880 -58.122 -58.075 -52.180 -52.178 -52.177 -52.132
-52.132 -52.129 -10.290 -10.219 -10.187  -7.856  -7.808  -5.801
 -5.796  -5.789  -5.753  -5.750  -5.741  -2.134  -2.134  -2.128
 -2.124  -2.123  -2.087  -2.086  -2.079  -2.076  -2.075  -0.830
 -0.752  -0.697  -0.652  -0.527  -0.470  -0.448  -0.422  -0.417
 -0.382  -0.370  -0.365  -0.338  -0.305  -0.241  -0.214
 -- Virtual --
 -0.085  -0.024   0.039   0.070   0.084   0.094   0.139   0.150
  0.162   0.177   0.180   0.192   0.220   0.234   0.268   0.276
  0.291   0.318   0.337   0.353   0.445   0.488   0.504   0.515
  0.528   0.558   0.574   0.580   0.605   0.616   0.629   0.650
  0.677   0.692   0.768   0.813   0.828   0.850   0.858   0.878
  0.903   0.919   0.950   0.974   0.978   1.026   1.054   1.060
  1.201   1.328   1.448   1.525   1.587   1.601   1.652   1.682
  1.689   1.758   1.780   1.833   1.878   1.898   2.032   2.043
  2.058   2.066   2.099   2.104   2.153   2.195   2.238   2.295
  2.303   2.378   2.430   2.564   2.570   2.573   2.601   2.662
  2.671   2.737   2.811   2.869   2.897   3.190   3.276   3.369
  3.449   3.514   3.971   4.056   4.243   4.256   4.259   4.268
  4.331   4.349   4.353   4.383   4.435   4.482   4.497   4.604
  5.430   5.471  89.708  89.722
 --------------------------------------------------------------
 
          Ground-State Mulliken Net Atomic Charges

     Atom                 Charge (a.u.)    Spin (a.u.)
  --------------------------------------------------------
      1 C                    -0.033694      -0.000000
      2 H                     0.091589      -0.000000
      3 C                    -0.224764       0.000000
      4 H                     0.151321      -0.000000
      5 H                     0.130240       0.000000
      6 C                    -0.315288       0.000000
      7 H                     0.104720      -0.000000
      8 H                     0.126272      -0.000000
      9 H                     0.140858      -0.000000
     10 Se                    0.018346       0.000000
     11 H                    -0.004517       0.000000
     12 Se                   -0.189828       0.000000
     13 H                     0.004745      -0.000000
  --------------------------------------------------------
  Sum of atomic charges =     0.000000
  Sum of spin   charges =     0.000000

 -----------------------------------------------------------------
                    Cartesian Multipole Moments
 -----------------------------------------------------------------
    Charge (ESU x 10^10)
                 0.0000
    Dipole Moment (Debye)
         X      -1.3233      Y       0.8529      Z       1.1868
       Tot       1.9715
    Quadrupole Moments (Debye-Ang)
        XX     -59.8898     XY       0.1806     YY     -55.5948
        XZ       4.1018     YZ       2.6772     ZZ     -58.9536
    Octopole Moments (Debye-Ang^2)
       XXX     -63.1165    XXY     -59.0157    XYY     -16.6541
       YYY    -151.5900    XXZ      63.5082    XYZ      -1.1318
       YYZ      66.4174    XZZ     -27.3795    YZZ     -58.5819
       ZZZ     187.8277
    Hexadecapole Moments (Debye-Ang^3)
      XXXX    -808.9241   XXXY    -113.5421   XXYY    -242.1998
      XYYY    -106.0717   YYYY    -594.7439   XXXZ      45.2836
      XXYZ      45.4988   XYYZ      13.9189   YYYZ     106.8007
      XXZZ    -275.3346   XYZZ     -33.4522   YYZZ    -261.0923
      XZZZ      62.8859   YZZZ     114.8324   ZZZZ    -910.1654
 -----------------------------------------------------------------
 Calculating analytic gradient of the SCF energy
 Gradient of SCF Energy
            1           2           3           4           5           6
    1   0.0005854  -0.0006117   0.0004798   0.0003287   0.0000178   0.0003089
    2   0.0002670  -0.0002376   0.0013148  -0.0001195  -0.0006441   0.0002742
    3   0.0005158  -0.0000957  -0.0014098  -0.0007805   0.0012903   0.0015469
            7           8           9          10          11          12
    1   0.0003218   0.0008013  -0.0003292  -0.0020817   0.0242770   0.0002286
    2  -0.0002412   0.0003348  -0.0001836  -0.0009073  -0.0062050  -0.0000179
    3   0.0002797   0.0007379  -0.0002014  -0.0010917   0.0082628  -0.0006556
           13
    1  -0.0243270
    2   0.0063654
    3  -0.0083986
 Max gradient component =       2.433E-02
 RMS gradient           =       6.030E-03
 Gradient time:  CPU 19.08 s  wall 1.66 s
 Geometry Optimization Parameters
   NAtoms,    NIC,     NZ,  NCons,   NDum,   NFix, NCnnct, MaxDiis
       13     136       0       1       0       0       0       0

 Cartesian Hessian Update
 Hessian Updated using BFGS Update


** CONSTRAINED OPTIMIZATION IN DELOCALIZED INTERNAL COORDINATES **
   Searching for a Minimum

   Optimization Cycle:   2

                       Coordinates (Angstroms)
     ATOM                X               Y               Z
      1  C         0.3102213547    1.1101626476   -1.0944464590
      2  H        -1.1868105653   -0.1404703135   -2.6792031088
      3  C         0.3966078629    2.0559280850    0.0900028961
      4  H         0.0774007800    3.0392779873   -0.2872046371
      5  H        -0.3586279397    1.7628571134    0.8343946864
      6  C         1.7616137853    2.1899682119    0.7726621573
      7  H         1.6911379516    2.9093383899    1.5945613503
      8  H         2.1015613187    1.2358302578    1.1850972562
      9  H         2.5195621575    2.5367367788    0.0677010874
     10  Se       -1.5165883686    0.6211131681   -1.4651854058
     11  H         0.0299829381   -1.8055708852    1.5917467182
     12  Se        1.6950476027    0.5505334170   -2.0751081529
     13  H        -0.6888988778   -1.6167978581    1.3384846116
   Point Group: c1    Number of degrees of freedom:    33


   Energy is  -4921.688546136

              Constraints and their Current Values
                                        Value     Constraint
   Distance(Angs):       10  11             4.198275     4.200000
 Hessian Updated using BFGS Update

   Using Lagrange Multiplier Algorithm


 34 Hessian modes will be used to form the next step
  Hessian Eigenvalues:
    -0.969930    0.035162    0.094993    0.145395    0.156891    0.168503
     0.196798    0.211132    0.230661    0.235578    0.248623    0.267246
     0.279073    0.289380    0.306097    0.318236    0.359810    0.402969
     0.430817    0.437982    0.448215    0.525569    0.617037    0.633231
     0.927130    0.944561    0.962187    0.985185    0.993863    1.129771
     1.168223    1.188143    1.191585    1.203178

 Minimum Search - Taking P-RFO Step
 Searching for Lamda that Maximizes Along the Constraint modes Only
 Value Taken    Lamda =   0.00006739
 Searching for Lamda that Minimizes Along All other modes
 Value Taken    Lamda =  -0.00045223
 Step Taken.  Stepsize is  0.023331

                             Maximum     Tolerance    Cnvgd?
         Gradient            0.018229       0.000300      NO
         Displacement        0.017944       0.001200      NO
         Energy change      0.001152       0.000001      NO


 New Cartesian Coordinates Obtained by Inverse Iteration

 Displacement from previous Coordinates is:  0.020423
 ----------------------------------------------------------------
             Standard Nuclear Orientation (Angstroms)
    I     Atom           X                Y                Z
 ----------------------------------------------------------------
    1      C       0.3103633607     1.1107358678    -1.0939291605
    2      H      -1.1832138860    -0.1373078127    -2.6798672259
    3      C       0.3956374054     2.0557542478     0.0904580792
    4      H       0.0758588358     3.0392688988    -0.2857611576
    5      H      -0.3591821984     1.7628172134     0.8348873486
    6      C       1.7610666932     2.1893444681     0.7706992098
    7      H       1.6914001924     2.9087862858     1.5925678597
    8      H       2.1002571281     1.2347304840     1.1825725505
    9      H       2.5187475434     2.5359869504     0.0652697719
   10      Se     -1.5151067500     0.6231699885    -1.4658424626
   11      H       0.0263421811    -1.8065658334     1.5936215271
   12      Se      1.6956870908     0.5515465658    -2.0736595234
   13      H      -0.6856475966    -1.6193603242     1.3424861833
 ----------------------------------------------------------------
 Nuclear Repulsion Energy =   592.9968589529 hartrees
 There are       47 alpha and       47 beta electrons

                       Distance Matrix (Angstroms)
             C (  1)   H (  2)   C (  3)   H (  4)   H (  5)   C (  6)
   H (  2)  2.510694
   C (  3)  1.517598  3.870012
   H (  4)  2.104131  4.172247  1.100500
   H (  5)  2.143323  4.079584  1.099882  1.753409
   C (  6)  2.597071  5.097892  1.531330  2.162962  2.163678
   H (  7)  3.515326  5.982959  2.159398  2.480951  2.468241  1.094494
   H (  8)  2.898543  5.251867  2.184610  3.083918  2.539410  1.093608
   H (  9)  2.872637  5.327926  2.176891  2.518774  3.077756  1.091729
   Se( 10)  1.925716  1.470488  2.850493  3.124307  2.815726  4.264778
   H ( 11)  3.976713  4.744697  4.160937  5.197754  3.669442  4.433257
   Se( 12)  1.786529  3.021602  2.938737  3.465427  3.761557  3.282839
   H ( 13)  3.792306  4.315481  4.030288  4.993386  3.435602  4.562848
             H (  7)   H (  8)   H (  9)   Se( 10)   H ( 11)   Se( 12)
   H (  8)  1.771362
   H (  9)  1.776548  1.765437
   Se( 10)  4.985940  4.523159  4.719656
   H ( 11)  5.000696  3.703993  5.235046  4.200000
   Se( 12)  4.358649  3.351636  3.031576  3.268603  4.668657
   H ( 13)  5.120255  3.991575  5.400587  3.688313  0.777846  4.696131

 
 Applying Cartesian multipole field
    Component          Value
    ---------          -----
     (2,0,0)        1.00000E-11
     (0,2,0)        2.00000E-11
     (0,0,2)       -3.00000E-11
 Nucleus-field energy     =    -0.0000000103 hartrees
 Requested basis set is 6-31G(d,p)
 There are 52 shells and 155 basis functions
 A cutoff of  1.0D-14 yielded   1196 shell pairs
 There are     10820 function pairs
 Smallest overlap matrix eigenvalue = 6.75E-04
 Guess from superposition of atomic densities
 Warning:  Energy on first SCF cycle will be non-variational
 SAD guess density has 93.936381 electrons

 -----------------------------------------------------------------------
  General SCF calculation program by
  Eric Jon Sundstrom, Paul Horn, Yuezhi Mao, Dmitri Zuev, Alec White,
  David Stuck, Shaama M.S., Shane Yost, Joonho Lee, David Small,
  Daniel Levine, Susi Lehtola, Hugh Burton, Evgeny Epifanovsky
 -----------------------------------------------------------------------
 Exchange:     0.2000 Hartree-Fock + 0.0800 Slater + 0.7200 B88
 Correlation:  0.1900 VWN1RPA + 0.8100 LYP
 Using SG-1 standard quadrature grid
 using 12 threads for integral computing
 -------------------------------------------------------
 OpenMP Integral computing Module                
 Release: version 1.0, May 2013, Q-Chem Inc. Pittsburgh 
 -------------------------------------------------------
 -------------------------------------------------------
 OpenMP BLAS3 based DFT computing Module                
 Release: version 1.0, May 2013, Q-Chem Inc. Pittsburgh 
 -------------------------------------------------------
 A unrestricted SCF calculation will be
 performed using DIIS
 SCF converges when DIIS error is below 1.0e-06
 Alpha HF Exchange    Energy = -18.85760556713928
 Beta HF Exchange     Energy = -18.85760556713928
 DFT Correlation      Energy =  -5.13208135028215
 DFT Exchange         Energy = -149.87607010678522
 One-Electron (alpha) Energy = -4010.55886111631207
 One-Electron (beta)  Energy = -4010.55886111631207
 Total Coulomb        Energy = 2693.02254162058443
 ---------------------------------------
  Cycle       Energy         DIIS error
 ---------------------------------------
    1   -4927.8216842608      1.51e-01  
 Alpha HF Exchange    Energy = -18.96354043433589
 Beta HF Exchange     Energy = -18.96354043433589
 DFT Correlation      Energy =  -5.18462830020718
 DFT Exchange         Energy = -150.99632412046040
 One-Electron (alpha) Energy = -4020.36427072270635
 One-Electron (beta)  Energy = -4020.36427072270681
 Total Coulomb        Energy = 2720.28382553360598
    2   -4921.5558902585      9.32e-03  
 Alpha HF Exchange    Energy = -18.83981904011380
 Beta HF Exchange     Energy = -18.83981904011380
 DFT Correlation      Energy =  -5.15007930042923
 DFT Exchange         Energy = -150.01316115560124
 One-Electron (alpha) Energy = -4007.14529600843662
 One-Electron (beta)  Energy = -4007.14529600843662
 Total Coulomb        Energy = 2692.61378907906692
    3   -4921.5228225314      4.04e-03  
 Alpha HF Exchange    Energy = -18.93682748969597
 Beta HF Exchange     Energy = -18.93682748969598
 DFT Correlation      Energy =  -5.17250285490190
 DFT Exchange         Energy = -150.75292471824221
 One-Electron (alpha) Energy = -4016.75236219004682
 One-Electron (beta)  Energy = -4016.75236219004682
 Total Coulomb        Energy = 2712.79388026721199
    4   -4921.5130677228      3.85e-03  
 Alpha HF Exchange    Energy = -18.91168674324320
 Beta HF Exchange     Energy = -18.91168674324321
 DFT Correlation      Energy =  -5.17092476114204
 DFT Exchange         Energy = -150.58436763207476
 One-Electron (alpha) Energy = -4014.93115156969225
 One-Electron (beta)  Energy = -4014.93115156969225
 Total Coulomb        Energy = 2708.78928238547678
    5   -4921.6548276910      1.60e-03  
 Alpha HF Exchange    Energy = -18.90003061990546
 Beta HF Exchange     Energy = -18.90003061990546
 DFT Correlation      Energy =  -5.16573054718033
 DFT Exchange         Energy = -150.48169653007432
 One-Electron (alpha) Energy = -4013.71771456808347
 One-Electron (beta)  Energy = -4013.71771456808210
 Total Coulomb        Energy = 2706.19776755765633
    6   -4921.6882909529      2.25e-04  
 Alpha HF Exchange    Energy = -18.89877001626513
 Beta HF Exchange     Energy = -18.89877001626515
 DFT Correlation      Energy =  -5.16575076244217
 DFT Exchange         Energy = -150.47379453366642
 One-Electron (alpha) Energy = -4013.47225624291514
 One-Electron (beta)  Energy = -4013.47225624291741
 Total Coulomb        Energy = 2705.69597339193660
    7   -4921.6887654799      1.21e-04  
 Alpha HF Exchange    Energy = -18.89917117378280
 Beta HF Exchange     Energy = -18.89917117378280
 DFT Correlation      Energy =  -5.16564173661544
 DFT Exchange         Energy = -150.47613519017386
 One-Electron (alpha) Energy = -4013.51768733086283
 One-Electron (beta)  Energy = -4013.51768733086010
 Total Coulomb        Energy = 2705.78973151485434
    8   -4921.6889034786      2.39e-05  
 Alpha HF Exchange    Energy = -18.89929200787586
 Beta HF Exchange     Energy = -18.89929200787587
 DFT Correlation      Energy =  -5.16568933906070
 DFT Exchange         Energy = -150.47708099433191
 One-Electron (alpha) Energy = -4013.54790016624383
 One-Electron (beta)  Energy = -4013.54790016624611
 Total Coulomb        Energy = 2705.85138209420620
    9   -4921.6889136448      8.36e-06  
 Alpha HF Exchange    Energy = -18.89928553439564
 Beta HF Exchange     Energy = -18.89928553439563
 DFT Correlation      Energy =  -5.16570150503795
 DFT Exchange         Energy = -150.47702949914844
 One-Electron (alpha) Energy = -4013.54509047063266
 One-Electron (beta)  Energy = -4013.54509047063084
 Total Coulomb        Energy = 2705.84570953720458
   10   -4921.6889145344      1.40e-06  
 Alpha HF Exchange    Energy = -18.89928957783331
 Beta HF Exchange     Energy = -18.89928957783336
 DFT Correlation      Energy =  -5.16570138900052
 DFT Exchange         Energy = -150.47705891005194
 One-Electron (alpha) Energy = -4013.54540929386894
 One-Electron (beta)  Energy = -4013.54540929387304
 Total Coulomb        Energy = 2705.84638454137303
   11   -4921.6889145585      3.37e-07  Convergence criterion met
 ---------------------------------------
 SCF time:   CPU 52.01s  wall 4.00s 
<S^2> =          0.000000000
 Alpha HF Exchange    Energy = -18.89928957783331
 Beta HF Exchange     Energy = -18.89928957783336
 DFT Correlation      Energy =  -5.16570138900052
 DFT Exchange         Energy = -150.47705891005194
 One-Electron (alpha) Energy = -4013.54540929386894
 One-Electron (beta)  Energy = -4013.54540929387304
 Total Coulomb        Energy = 2705.84638454137303
 Nuclear repulsion Energy = 592.99685894262666
 SCF   energy in the final basis set =    -4921.6889145585
 Total energy in the final basis set =    -4921.6889145585
 
 --------------------------------------------------------------
 
                    Orbital Energies (a.u.)
 --------------------------------------------------------------
 
 Alpha MOs
 -- Occupied --
*******-453.880 -58.122 -58.075 -52.180 -52.178 -52.177 -52.132
-52.132 -52.129 -10.290 -10.219 -10.187  -7.856  -7.808  -5.801
 -5.796  -5.790  -5.753  -5.750  -5.741  -2.134  -2.134  -2.128
 -2.124  -2.123  -2.087  -2.086  -2.079  -2.076  -2.075  -0.830
 -0.752  -0.697  -0.652  -0.527  -0.470  -0.449  -0.424  -0.417
 -0.382  -0.370  -0.365  -0.338  -0.305  -0.241  -0.214
 -- Virtual --
 -0.085  -0.024   0.039   0.071   0.085   0.094   0.139   0.150
  0.162   0.177   0.180   0.192   0.220   0.234   0.268   0.276
  0.292   0.318   0.337   0.353   0.445   0.488   0.504   0.515
  0.528   0.558   0.574   0.581   0.606   0.616   0.626   0.649
  0.677   0.692   0.769   0.814   0.829   0.850   0.858   0.878
  0.903   0.919   0.950   0.974   0.978   1.030   1.055   1.061
  1.201   1.328   1.448   1.525   1.587   1.601   1.653   1.680
  1.688   1.759   1.780   1.834   1.879   1.899   2.032   2.043
  2.058   2.066   2.099   2.104   2.154   2.196   2.238   2.295
  2.317   2.379   2.431   2.565   2.578   2.581   2.601   2.662
  2.672   2.737   2.812   2.869   2.897   3.190   3.276   3.369
  3.449   3.515   4.000   4.057   4.243   4.257   4.259   4.268
  4.331   4.349   4.353   4.383   4.435   4.482   4.497   4.604
  5.429   5.471  89.708  89.723
 
 Beta MOs
 -- Occupied --
*******-453.880 -58.122 -58.075 -52.180 -52.178 -52.177 -52.132
-52.132 -52.129 -10.290 -10.219 -10.187  -7.856  -7.808  -5.801
 -5.796  -5.790  -5.753  -5.750  -5.741  -2.134  -2.134  -2.128
 -2.124  -2.123  -2.087  -2.086  -2.079  -2.076  -2.075  -0.830
 -0.752  -0.697  -0.652  -0.527  -0.470  -0.449  -0.424  -0.417
 -0.382  -0.370  -0.365  -0.338  -0.305  -0.241  -0.214
 -- Virtual --
 -0.085  -0.024   0.039   0.071   0.085   0.094   0.139   0.150
  0.162   0.177   0.180   0.192   0.220   0.234   0.268   0.276
  0.292   0.318   0.337   0.353   0.445   0.488   0.504   0.515
  0.528   0.558   0.574   0.581   0.606   0.616   0.626   0.649
  0.677   0.692   0.769   0.814   0.829   0.850   0.858   0.878
  0.903   0.919   0.950   0.974   0.978   1.030   1.055   1.061
  1.201   1.328   1.448   1.525   1.587   1.601   1.653   1.680
  1.688   1.759   1.780   1.834   1.879   1.899   2.032   2.043
  2.058   2.066   2.099   2.104   2.154   2.196   2.238   2.295
  2.317   2.379   2.431   2.565   2.578   2.581   2.601   2.662
  2.672   2.737   2.812   2.869   2.897   3.190   3.276   3.369
  3.449   3.515   4.000   4.057   4.243   4.257   4.259   4.268
  4.331   4.349   4.353   4.383   4.435   4.482   4.497   4.604
  5.429   5.471  89.708  89.723
 --------------------------------------------------------------
 
          Ground-State Mulliken Net Atomic Charges

     Atom                 Charge (a.u.)    Spin (a.u.)
  --------------------------------------------------------
      1 C                    -0.033428       0.000000
      2 H                     0.091635      -0.000000
      3 C                    -0.224918       0.000000
      4 H                     0.151305      -0.000000
      5 H                     0.130315      -0.000000
      6 C                    -0.315266       0.000000
      7 H                     0.104550      -0.000000
      8 H                     0.126258       0.000000
      9 H                     0.140924      -0.000000
     10 Se                    0.018525       0.000000
     11 H                    -0.004440      -0.000000
     12 Se                   -0.190125       0.000000
     13 H                     0.004666       0.000000
  --------------------------------------------------------
  Sum of atomic charges =     0.000000
  Sum of spin   charges =     0.000000

 -----------------------------------------------------------------
                    Cartesian Multipole Moments
 -----------------------------------------------------------------
    Charge (ESU x 10^10)
                -0.0000
    Dipole Moment (Debye)
         X      -1.3282      Y       0.8530      Z       1.1856
       Tot       1.9742
    Quadrupole Moments (Debye-Ang)
        XX     -59.8913     XY       0.1688     YY     -55.5883
        XZ       4.0947     YZ       2.6689     ZZ     -58.9450
    Octopole Moments (Debye-Ang^2)
       XXX     -63.2320    XXY     -59.0593    XYY     -16.7107
       YYY    -151.7946    XXZ      63.4948    XYZ      -1.1264
       YYZ      66.4156    XZZ     -27.4351    YZZ     -58.6409
       ZZZ     187.8058
    Hexadecapole Moments (Debye-Ang^3)
      XXXX    -808.4813   XXXY    -113.4900   XXYY    -242.1698
      XYYY    -105.9870   YYYY    -594.9393   XXXZ      45.3730
      XXYZ      45.5468   XYYZ      13.9112   YYYZ     107.1415
      XXZZ    -275.2075   XYZZ     -33.4648   YYZZ    -261.0604
      XZZZ      63.0077   YZZZ     115.1090   ZZZZ    -909.4916
 -----------------------------------------------------------------
 Calculating analytic gradient of the SCF energy
 Gradient of SCF Energy
            1           2           3           4           5           6
    1   0.0006625  -0.0005076   0.0002965   0.0003212   0.0000767   0.0001838
    2   0.0001634  -0.0001650   0.0010621  -0.0001327  -0.0005029   0.0001300
    3   0.0005195  -0.0000178  -0.0011853  -0.0006962   0.0011391   0.0011582
            7           8           9          10          11          12
    1   0.0002300   0.0006880  -0.0002396  -0.0017464   0.0204983   0.0000823
    2  -0.0002226   0.0002929  -0.0001309  -0.0007337  -0.0052220   0.0000803
    3   0.0001959   0.0006852  -0.0002035  -0.0009492   0.0069439  -0.0005117
           13
    1  -0.0205459
    2   0.0053811
    3  -0.0070782
 Max gradient component =       2.055E-02
 RMS gradient           =       5.089E-03
 Gradient time:  CPU 18.92 s  wall 1.60 s
 Geometry Optimization Parameters
   NAtoms,    NIC,     NZ,  NCons,   NDum,   NFix, NCnnct, MaxDiis
       13     136       0       1       0       0       0       0

 Cartesian Hessian Update
 Hessian Updated using BFGS Update


** CONSTRAINED OPTIMIZATION IN DELOCALIZED INTERNAL COORDINATES **
   Searching for a Minimum

   Optimization Cycle:   3

                       Coordinates (Angstroms)
     ATOM                X               Y               Z
      1  C         0.3103633607    1.1107358678   -1.0939291605
      2  H        -1.1832138860   -0.1373078127   -2.6798672259
      3  C         0.3956374054    2.0557542478    0.0904580792
      4  H         0.0758588358    3.0392688988   -0.2857611576
      5  H        -0.3591821984    1.7628172134    0.8348873486
      6  C         1.7610666932    2.1893444681    0.7706992098
      7  H         1.6914001924    2.9087862858    1.5925678597
      8  H         2.1002571281    1.2347304840    1.1825725505
      9  H         2.5187475434    2.5359869504    0.0652697719
     10  Se       -1.5151067500    0.6231699885   -1.4658424626
     11  H         0.0263421811   -1.8065658334    1.5936215271
     12  Se        1.6956870908    0.5515465658   -2.0736595234
     13  H        -0.6856475966   -1.6193603242    1.3424861833
   Point Group: c1    Number of degrees of freedom:    33


   Energy is  -4921.688914558

              Constraints and their Current Values
                                        Value     Constraint
   Distance(Angs):       10  11             4.200000     4.200000
 Hessian Updated using BFGS Update

 32 Hessian modes will be used to form the next step
  Hessian Eigenvalues:
     0.034219    0.094480    0.124880    0.156560    0.168336    0.180740
     0.199144    0.211390    0.231422    0.239691    0.249474    0.267896
     0.282850    0.289603    0.306148    0.324343    0.402753    0.418467
     0.431223    0.440848    0.450650    0.528673    0.629974    0.633308
     0.931898    0.944897    0.964623    0.986060    1.131310    1.168262
     1.191535    1.203034

 Minimum Search - Taking Simple RFO Step
 Searching for Lamda that Minimizes Along All modes
 Value Taken    Lamda =  -0.00176917
 Step Taken.  Stepsize is  0.110990

                             Maximum     Tolerance    Cnvgd?
         Gradient           0.015391      0.000300      NO
         Displacement       0.086381      0.001200      NO
         Energy change     -0.000368      0.000001      NO


 New Cartesian Coordinates Obtained by Inverse Iteration

 Displacement from previous Coordinates is:  0.097009
 ----------------------------------------------------------------
             Standard Nuclear Orientation (Angstroms)
    I     Atom           X                Y                Z
 ----------------------------------------------------------------
    1      C       0.3111681785     1.1139340664    -1.0914328637
    2      H      -1.1653517195    -0.1252304393    -2.6806028673
    3      C       0.3910962333     2.0558888927     0.0928340229
    4      H       0.0679587460     3.0404493501    -0.2776188215
    5      H      -0.3620386228     1.7632649422     0.8369156140
    6      C       1.7588665470     2.1872099027     0.7612674475
    7      H       1.6945134466     2.9063786571     1.5837586934
    8      H       2.0935897783     1.2294656978     1.1689402025
    9      H       2.5150023329     2.5332349696     0.0535229068
   10      Se     -1.5069033241     0.6303460273    -1.4663458638
   11      H       0.0055680744    -1.8102906813     1.5988985965
   12      Se      1.6992941549     0.5563453022    -2.0666565543
   13      H      -0.6705538256    -1.6320896875     1.3600224870
 ----------------------------------------------------------------
 Nuclear Repulsion Energy =   594.3012241263 hartrees
 There are       47 alpha and       47 beta electrons

                       Distance Matrix (Angstroms)
             C (  1)   H (  2)   C (  3)   H (  4)   H (  5)   C (  6)
   H (  2)  2.498220
   C (  3)  1.515307  3.856393
   H (  4)  2.105447  4.161360  1.100460
   H (  5)  2.143214  4.072427  1.098407  1.748795
   C (  6)  2.584618  5.073944  1.528020  2.160202  2.164184
   H (  7)  3.504733  5.962739  2.155246  2.475557  2.468581  1.094457
   H (  8)  2.880913  5.222536  2.177031  3.078210  2.534816  1.093394
   H (  9)  2.860459  5.299801  2.177242  2.520901  3.079598  1.091960
   Se( 10)  1.918281  1.470365  2.840003  3.114781  2.810558  4.248687
   H ( 11)  3.985269  4.746010  4.167038  5.201431  3.672336  4.444738
   Se( 12)  1.785738  3.007935  2.936565  3.468816  3.759851  3.265030
   H ( 13)  3.809732  4.340749  4.041541  5.005986  3.449240  4.565922
             H (  7)   H (  8)   H (  9)   Se( 10)   H ( 11)   Se( 12)
   H (  8)  1.772956
   H (  9)  1.775967  1.766793
   Se( 10)  4.973181  4.501914  4.701778
   H ( 11)  5.009964  3.712791  5.248968  4.200000
   Se( 12)  4.341453  3.328310  3.011417  3.262752  4.680381
   H ( 13)  5.122626  3.983152  5.404132  3.715704  0.738890  4.706119

 
 Applying Cartesian multipole field
    Component          Value
    ---------          -----
     (2,0,0)        1.00000E-11
     (0,2,0)        2.00000E-11
     (0,0,2)       -3.00000E-11
 Nucleus-field energy     =    -0.0000000102 hartrees
 Requested basis set is 6-31G(d,p)
 There are 52 shells and 155 basis functions
 A cutoff of  1.0D-14 yielded   1197 shell pairs
 There are     10838 function pairs
 Smallest overlap matrix eigenvalue = 6.75E-04
 Guess from superposition of atomic densities
 Warning:  Energy on first SCF cycle will be non-variational
 SAD guess density has 93.936381 electrons

 -----------------------------------------------------------------------
  General SCF calculation program by
  Eric Jon Sundstrom, Paul Horn, Yuezhi Mao, Dmitri Zuev, Alec White,
  David Stuck, Shaama M.S., Shane Yost, Joonho Lee, David Small,
  Daniel Levine, Susi Lehtola, Hugh Burton, Evgeny Epifanovsky
 -----------------------------------------------------------------------
 Exchange:     0.2000 Hartree-Fock + 0.0800 Slater + 0.7200 B88
 Correlation:  0.1900 VWN1RPA + 0.8100 LYP
 Using SG-1 standard quadrature grid
 using 12 threads for integral computing
 -------------------------------------------------------
 OpenMP Integral computing Module                
 Release: version 1.0, May 2013, Q-Chem Inc. Pittsburgh 
 -------------------------------------------------------
 -------------------------------------------------------
 OpenMP BLAS3 based DFT computing Module                
 Release: version 1.0, May 2013, Q-Chem Inc. Pittsburgh 
 -------------------------------------------------------
 A unrestricted SCF calculation will be
 performed using DIIS
 SCF converges when DIIS error is below 1.0e-06
 Alpha HF Exchange    Energy = -18.86023935458764
 Beta HF Exchange     Energy = -18.86023935458764
 DFT Correlation      Energy =  -5.13277979238654
 DFT Exchange         Energy = -149.88188756314122
 One-Electron (alpha) Energy = -4011.83976994295381
 One-Electron (beta)  Energy = -4011.83976994295381
 Total Coulomb        Energy = 2694.27545581928143
 ---------------------------------------
  Cycle       Energy         DIIS error
 ---------------------------------------
    1   -4927.8380060152      1.51e-01  
 Alpha HF Exchange    Energy = -18.96584447488174
 Beta HF Exchange     Energy = -18.96584447488173
 DFT Correlation      Energy =  -5.18563381065535
 DFT Exchange         Energy = -151.01315712984993
 One-Electron (alpha) Energy = -4021.66596689745438
 One-Electron (beta)  Energy = -4021.66596689745529
 Total Coulomb        Energy = 2721.60515180115181
    2   -4921.5560377679      9.32e-03  
 Alpha HF Exchange    Energy = -18.84149550948618
 Beta HF Exchange     Energy = -18.84149550948619
 DFT Correlation      Energy =  -5.15079446017609
 DFT Exchange         Energy = -150.02450913181087
 One-Electron (alpha) Energy = -4008.41848213004096
 One-Electron (beta)  Energy = -4008.41848213004187
 Total Coulomb        Energy = 2693.86839940451273
    3   -4921.5256353504      4.02e-03  
 Alpha HF Exchange    Energy = -18.93891596757448
 Beta HF Exchange     Energy = -18.93891596757447
 DFT Correlation      Energy =  -5.17363661429312
 DFT Exchange         Energy = -150.76924739213189
 One-Electron (alpha) Energy = -4018.07720540361288
 One-Electron (beta)  Energy = -4018.07720540361242
 Total Coulomb        Energy = 2714.15313162527946
    4   -4921.5207710074      3.78e-03  
 Alpha HF Exchange    Energy = -18.91335833243442
 Beta HF Exchange     Energy = -18.91335833243444
 DFT Correlation      Energy =  -5.17168414508300
 DFT Exchange         Energy = -150.59573103570727
 One-Electron (alpha) Energy = -4016.19466406141782
 One-Electron (beta)  Energy = -4016.19466406141828
 Total Coulomb        Energy = 2710.02545038414837
    5   -4921.6567854682      1.58e-03  
 Alpha HF Exchange    Energy = -18.90203628359071
 Beta HF Exchange     Energy = -18.90203628359070
 DFT Correlation      Energy =  -5.16662016769364
 DFT Exchange         Energy = -150.49596621386925
 One-Electron (alpha) Energy = -4015.00960966541379
 One-Electron (beta)  Energy = -4015.00960966541243
 Total Coulomb        Energy = 2707.49558538267775
    6   -4921.6890687808      2.29e-04  
 Alpha HF Exchange    Energy = -18.90077952046229
 Beta HF Exchange     Energy = -18.90077952046227
 DFT Correlation      Energy =  -5.16665529025791
 DFT Exchange         Energy = -150.48813659768012
 One-Electron (alpha) Energy = -4014.77089940907854
 One-Electron (beta)  Energy = -4014.77089940907626
 Total Coulomb        Energy = 2707.00735088023248
    7   -4921.6895747507      1.19e-04  
 Alpha HF Exchange    Energy = -18.90114371604625
 Beta HF Exchange     Energy = -18.90114371604625
 DFT Correlation      Energy =  -5.16653597933814
 DFT Exchange         Energy = -150.49018120131515
 One-Electron (alpha) Energy = -4014.80895794672870
 One-Electron (beta)  Energy = -4014.80895794672870
 Total Coulomb        Energy = 2707.08598457439757
    8   -4921.6897118157      2.37e-05  
 Alpha HF Exchange    Energy = -18.90127248927467
 Beta HF Exchange     Energy = -18.90127248927466
 DFT Correlation      Energy =  -5.16658396172353
 DFT Exchange         Energy = -150.49118967470872
 One-Electron (alpha) Energy = -4014.84024086941372
 One-Electron (beta)  Energy = -4014.84024086941508
 Total Coulomb        Energy = 2707.14985449034066
    9   -4921.6897217474      8.33e-06  
 Alpha HF Exchange    Energy = -18.90126630322213
 Beta HF Exchange     Energy = -18.90126630322210
 DFT Correlation      Energy =  -5.16659649738204
 DFT Exchange         Energy = -150.49114031646729
 One-Electron (alpha) Energy = -4014.83752052595219
 One-Electron (beta)  Energy = -4014.83752052595082
 Total Coulomb        Energy = 2707.14436374259867
   10   -4921.6897226135      1.36e-06  
 Alpha HF Exchange    Energy = -18.90127021222900
 Beta HF Exchange     Energy = -18.90127021222900
 DFT Correlation      Energy =  -5.16659639198373
 DFT Exchange         Energy = -150.49116855921912
 One-Electron (alpha) Energy = -4014.83777787268218
 One-Electron (beta)  Energy = -4014.83777787268264
 Total Coulomb        Energy = 2707.14491436839353
   11   -4921.6897226365      3.30e-07  Convergence criterion met
 ---------------------------------------
 SCF time:   CPU 51.32s  wall 5.00s 
<S^2> =          0.000000000
 Alpha HF Exchange    Energy = -18.90127021222900
 Beta HF Exchange     Energy = -18.90127021222900
 DFT Correlation      Energy =  -5.16659639198373
 DFT Exchange         Energy = -150.49116855921912
 One-Electron (alpha) Energy = -4014.83777787268218
 One-Electron (beta)  Energy = -4014.83777787268264
 Total Coulomb        Energy = 2707.14491436839353
 Nuclear repulsion Energy = 594.30122411610034
 SCF   energy in the final basis set =    -4921.6897226365
 Total energy in the final basis set =    -4921.6897226365
 
 --------------------------------------------------------------
 
                    Orbital Energies (a.u.)
 --------------------------------------------------------------
 
 Alpha MOs
 -- Occupied --
*******-453.879 -58.122 -58.075 -52.180 -52.178 -52.177 -52.132
-52.131 -52.129 -10.289 -10.219 -10.186  -7.856  -7.808  -5.801
 -5.797  -5.790  -5.753  -5.749  -5.740  -2.134  -2.134  -2.128
 -2.124  -2.123  -2.087  -2.086  -2.079  -2.076  -2.074  -0.831
 -0.753  -0.697  -0.652  -0.527  -0.470  -0.449  -0.432  -0.418
 -0.381  -0.370  -0.364  -0.339  -0.306  -0.241  -0.214
 -- Virtual --
 -0.085  -0.024   0.041   0.071   0.092   0.097   0.140   0.150
  0.162   0.178   0.181   0.193   0.221   0.235   0.268   0.276
  0.292   0.318   0.338   0.354   0.445   0.488   0.504   0.515
  0.528   0.558   0.574   0.582   0.606   0.612   0.619   0.649
  0.678   0.693   0.771   0.814   0.831   0.849   0.859   0.880
  0.905   0.920   0.951   0.975   0.980   1.043   1.058   1.074
  1.202   1.329   1.449   1.528   1.589   1.602   1.653   1.675
  1.682   1.760   1.782   1.836   1.878   1.902   2.032   2.043
  2.057   2.066   2.100   2.105   2.155   2.201   2.239   2.295
  2.381   2.392   2.433   2.566   2.601   2.621   2.623   2.663
  2.675   2.739   2.814   2.870   2.898   3.192   3.277   3.370
  3.450   3.516   4.058   4.175   4.243   4.257   4.260   4.269
  4.331   4.350   4.354   4.385   4.437   4.482   4.496   4.606
  5.429   5.472  89.707  89.725
 
 Beta MOs
 -- Occupied --
*******-453.879 -58.122 -58.075 -52.180 -52.178 -52.177 -52.132
-52.131 -52.129 -10.289 -10.219 -10.186  -7.856  -7.808  -5.801
 -5.797  -5.790  -5.753  -5.749  -5.740  -2.134  -2.134  -2.128
 -2.124  -2.123  -2.087  -2.086  -2.079  -2.076  -2.074  -0.831
 -0.753  -0.697  -0.652  -0.527  -0.470  -0.449  -0.432  -0.418
 -0.381  -0.370  -0.364  -0.339  -0.306  -0.241  -0.214
 -- Virtual --
 -0.085  -0.024   0.041   0.071   0.092   0.097   0.140   0.150
  0.162   0.178   0.181   0.193   0.221   0.235   0.268   0.276
  0.292   0.318   0.338   0.354   0.445   0.488   0.504   0.515
  0.528   0.558   0.574   0.582   0.606   0.612   0.619   0.649
  0.678   0.693   0.771   0.814   0.831   0.849   0.859   0.880
  0.905   0.920   0.951   0.975   0.980   1.043   1.058   1.074
  1.202   1.329   1.449   1.528   1.589   1.602   1.653   1.675
  1.682   1.760   1.782   1.836   1.878   1.902   2.032   2.043
  2.057   2.066   2.100   2.105   2.155   2.201   2.239   2.295
  2.381   2.392   2.433   2.566   2.601   2.621   2.623   2.663
  2.675   2.739   2.814   2.870   2.898   3.192   3.277   3.370
  3.450   3.516   4.058   4.175   4.243   4.257   4.260   4.269
  4.331   4.350   4.354   4.385   4.437   4.482   4.496   4.606
  5.429   5.472  89.707  89.725
 --------------------------------------------------------------
 
          Ground-State Mulliken Net Atomic Charges

     Atom                 Charge (a.u.)    Spin (a.u.)
  --------------------------------------------------------
      1 C                    -0.032236      -0.000000
      2 H                     0.091869       0.000000
      3 C                    -0.225682      -0.000000
      4 H                     0.151150       0.000000
      5 H                     0.130637      -0.000000
      6 C                    -0.315199       0.000000
      7 H                     0.103734      -0.000000
      8 H                     0.126212      -0.000000
      9 H                     0.141322      -0.000000
     10 Se                    0.019671      -0.000000
     11 H                    -0.004096       0.000000
     12 Se                   -0.191675       0.000000
     13 H                     0.004294      -0.000000
  --------------------------------------------------------
  Sum of atomic charges =     0.000000
  Sum of spin   charges =     0.000000

 -----------------------------------------------------------------
                    Cartesian Multipole Moments
 -----------------------------------------------------------------
    Charge (ESU x 10^10)
                 0.0000
    Dipole Moment (Debye)
         X      -1.3562      Y       0.8519      Z       1.1811
       Tot       1.9900
    Quadrupole Moments (Debye-Ang)
        XX     -59.8939     XY       0.1141     YY     -55.5487
        XZ       4.0649     YZ       2.6379     ZZ     -58.9108
    Octopole Moments (Debye-Ang^2)
       XXX     -63.8964    XXY     -59.2505    XYY     -17.0308
       YYY    -152.6741    XXZ      63.4077    XYZ      -1.0855
       YYZ      66.3712    XZZ     -27.7402    YZZ     -58.9018
       ZZZ     187.6251
    Hexadecapole Moments (Debye-Ang^3)
      XXXX    -806.2959   XXXY    -113.5764   XXYY    -241.9649
      XYYY    -105.9367   YYYY    -595.6849   XXXZ      46.1739
      XXYZ      45.7018   XYYZ      14.0653   YYYZ     108.3856
      XXZZ    -274.4820   XYZZ     -33.6400   YYZZ    -260.6849
      XZZZ      63.9152   YZZZ     116.0484   ZZZZ    -905.3155
 -----------------------------------------------------------------
 Calculating analytic gradient of the SCF energy
 Gradient of SCF Energy
            1           2           3           4           5           6
    1   0.0006861   0.0000209  -0.0005577   0.0002323   0.0003049  -0.0002857
    2  -0.0003495   0.0001326  -0.0002521  -0.0001247   0.0002133  -0.0004530
    3   0.0003953   0.0002566   0.0000188  -0.0001940   0.0003080  -0.0007349
            7           8           9          10          11          12
    1  -0.0001167   0.0000421   0.0001442   0.0000190  -0.0027175  -0.0004500
    2  -0.0000730   0.0000799   0.0001004   0.0001452   0.0008760   0.0004244
    3  -0.0001451   0.0003540  -0.0001424  -0.0000793  -0.0012323   0.0000945
           13
    1   0.0026780
    2  -0.0007195
    3   0.0011008
 Max gradient component =       2.717E-03
 RMS gradient           =       7.441E-04
 Gradient time:  CPU 18.72 s  wall 1.58 s
 Geometry Optimization Parameters
   NAtoms,    NIC,     NZ,  NCons,   NDum,   NFix, NCnnct, MaxDiis
       13     136       0       1       0       0       0       0

 Cartesian Hessian Update
 Hessian Updated using BFGS Update


** CONSTRAINED OPTIMIZATION IN DELOCALIZED INTERNAL COORDINATES **
   Searching for a Minimum

   Optimization Cycle:   4

                       Coordinates (Angstroms)
     ATOM                X               Y               Z
      1  C         0.3111681785    1.1139340664   -1.0914328637
      2  H        -1.1653517195   -0.1252304393   -2.6806028673
      3  C         0.3910962333    2.0558888927    0.0928340229
      4  H         0.0679587460    3.0404493501   -0.2776188215
      5  H        -0.3620386228    1.7632649422    0.8369156140
      6  C         1.7588665470    2.1872099027    0.7612674475
      7  H         1.6945134466    2.9063786571    1.5837586934
      8  H         2.0935897783    1.2294656978    1.1689402025
      9  H         2.5150023329    2.5332349696    0.0535229068
     10  Se       -1.5069033241    0.6303460273   -1.4663458638
     11  H         0.0055680744   -1.8102906813    1.5988985965
     12  Se        1.6992941549    0.5563453022   -2.0666565543
     13  H        -0.6705538256   -1.6320896875    1.3600224870
   Point Group: c1    Number of degrees of freedom:    33


   Energy is  -4921.689722637

              Constraints and their Current Values
                                        Value     Constraint
   Distance(Angs):       10  11             4.200000     4.200000
 Hessian Updated using BFGS Update

 32 Hessian modes will be used to form the next step
  Hessian Eigenvalues:
     0.034389    0.094589    0.129223    0.156517    0.168326    0.188462
     0.202556    0.212573    0.231429    0.243248    0.249710    0.267869
     0.283298    0.289609    0.306201    0.324485    0.402946    0.422466
     0.431229    0.441837    0.450935    0.528168    0.631126    0.633350
     0.932416    0.945080    0.964592    0.986132    1.131306    1.168271
     1.191544    1.203060

 Minimum Search - Taking Simple RFO Step
 Searching for Lamda that Minimizes Along All modes
 Value Taken    Lamda =  -0.00003050
 Step Taken.  Stepsize is  0.012486

                             Maximum     Tolerance    Cnvgd?
         Gradient           0.002065      0.000300      NO
         Displacement       0.009623      0.001200      NO
         Energy change     -0.000808      0.000001      NO


 New Cartesian Coordinates Obtained by Inverse Iteration

[...]
   H (  8)  2.877453  5.217932  2.175615  3.078560  2.536099  1.093313
   H (  9)  2.861911  5.304368  2.176365  2.523535  3.080476  1.091777
   Se( 10)  1.917947  1.470723  2.841029  3.119384  2.804102  4.249232
   H ( 11)  3.994905  4.746671  4.176855  5.210150  3.678562  4.452153
   Se( 12)  1.786631  3.011268  2.938033  3.478278  3.756584  3.266458
   H ( 13)  3.817200  4.337995  4.049755  5.012496  3.453114  4.572864
             H (  7)   H (  8)   H (  9)   Se( 10)   H ( 11)   Se( 12)
   H (  8)  1.774426
   H (  9)  1.776276  1.765383
   Se( 10)  4.975827  4.495720  4.703068
   H ( 11)  5.014583  3.717498  5.256827  4.200000
   Se( 12)  4.344078  3.319212  3.015120  3.263311  4.680182
   H ( 13)  5.127571  3.987746  5.411448  3.712312  0.743043  4.705345

 
 Applying Cartesian multipole field
    Component          Value
    ---------          -----
     (2,0,0)        1.00000E-11
     (0,2,0)        2.00000E-11
     (0,0,2)       -3.00000E-11
 Nucleus-field energy     =    -0.0000000101 hartrees
 Requested basis set is 6-31G(d,p)
 There are 52 shells and 155 basis functions
 A cutoff of  1.0D-14 yielded   1198 shell pairs
 There are     10844 function pairs
 Smallest overlap matrix eigenvalue = 6.75E-04
 Guess from superposition of atomic densities
 Warning:  Energy on first SCF cycle will be non-variational
 SAD guess density has 93.936381 electrons

 -----------------------------------------------------------------------
  General SCF calculation program by
  Eric Jon Sundstrom, Paul Horn, Yuezhi Mao, Dmitri Zuev, Alec White,
  David Stuck, Shaama M.S., Shane Yost, Joonho Lee, David Small,
  Daniel Levine, Susi Lehtola, Hugh Burton, Evgeny Epifanovsky
 -----------------------------------------------------------------------
 Exchange:     0.2000 Hartree-Fock + 0.0800 Slater + 0.7200 B88
 Correlation:  0.1900 VWN1RPA + 0.8100 LYP
 Using SG-1 standard quadrature grid
 using 12 threads for integral computing
 -------------------------------------------------------
 OpenMP Integral computing Module                
 Release: version 1.0, May 2013, Q-Chem Inc. Pittsburgh 
 -------------------------------------------------------
 -------------------------------------------------------
 OpenMP BLAS3 based DFT computing Module                
 Release: version 1.0, May 2013, Q-Chem Inc. Pittsburgh 
 -------------------------------------------------------
 A unrestricted SCF calculation will be
 performed using DIIS
 SCF converges when DIIS error is below 1.0e-06
 Alpha HF Exchange    Energy = -18.85983393251868
 Beta HF Exchange     Energy = -18.85983393251868
 DFT Correlation      Energy =  -5.13267829075427
 DFT Exchange         Energy = -149.88102207016968
 One-Electron (alpha) Energy = -4011.69789975291451
 One-Electron (beta)  Energy = -4011.69789975291451
 Total Coulomb        Energy = 2694.13794526607580
 ---------------------------------------
  Cycle       Energy         DIIS error
 ---------------------------------------
    1   -4927.8351990133      1.51e-01  
 Alpha HF Exchange    Energy = -18.96551819266883
 Beta HF Exchange     Energy = -18.96551819266883
 DFT Correlation      Energy =  -5.18548687134406
 DFT Exchange         Energy = -151.01076437262498
 One-Electron (alpha) Energy = -4021.51857423373485
 One-Electron (beta)  Energy = -4021.51857423373485
 Total Coulomb        Energy = 2721.45231970624127
    2   -4921.5560929381      9.32e-03  
 Alpha HF Exchange    Energy = -18.84129084635591
 Beta HF Exchange     Energy = -18.84129084635593
 DFT Correlation      Energy =  -5.15070515433831
 DFT Exchange         Energy = -150.02316402919709
 One-Electron (alpha) Energy = -4008.27755542519253
 One-Electron (beta)  Energy = -4008.27755542519435
 Total Coulomb        Energy = 2693.73082667935432
    3   -4921.5247115948      4.03e-03  
 Alpha HF Exchange    Energy = -18.93860494614677
 Beta HF Exchange     Energy = -18.93860494614675
 DFT Correlation      Energy =  -5.17345669910588
 DFT Exchange         Energy = -150.76672508828153
 One-Electron (alpha) Energy = -4017.92400091345144
 One-Electron (beta)  Energy = -4017.92400091344916
 Total Coulomb        Energy = 2713.99070357373603
    4   -4921.5186664804      3.80e-03  
 Alpha HF Exchange    Energy = -18.91316552031328
 Beta HF Exchange     Energy = -18.91316552031328
 DFT Correlation      Energy =  -5.17158919707151
 DFT Exchange         Energy = -150.59448392863359
 One-Electron (alpha) Energy = -4016.05822735295942
 One-Electron (beta)  Energy = -4016.05822735295760
 Total Coulomb        Energy = 2709.89625387368233
    5   -4921.6565815461      1.58e-03  
 Alpha HF Exchange    Energy = -18.90175032683377
 Beta HF Exchange     Energy = -18.90175032683376
 DFT Correlation      Energy =  -5.16649072945505
 DFT Exchange         Energy = -150.49392713490670
 One-Electron (alpha) Energy = -4014.86431380163867
 One-Electron (beta)  Energy = -4014.86431380163776
 Total Coulomb        Energy = 2707.34742783739239
    6   -4921.6890948315      2.30e-04  
 Alpha HF Exchange    Energy = -18.90049470956148
 Beta HF Exchange     Energy = -18.90049470956145
 DFT Correlation      Energy =  -5.16652583394530
 DFT Exchange         Energy = -150.48611183582830
 One-Electron (alpha) Energy = -4014.62458887892990
 One-Electron (beta)  Energy = -4014.62458887892581
 Total Coulomb        Energy = 2706.85718050528203
    7   -4921.6896008890      1.20e-04  
 Alpha HF Exchange    Energy = -18.90087000126510
 Beta HF Exchange     Energy = -18.90087000126511
 DFT Correlation      Energy =  -5.16640890573730
 DFT Exchange         Energy = -150.48824080746763
 One-Electron (alpha) Energy = -4014.66441509569631
 One-Electron (beta)  Energy = -4014.66441509569768
 Total Coulomb        Energy = 2706.93945703930603
    8   -4921.6897394154      2.38e-05  
 Alpha HF Exchange    Energy = -18.90099748218716
 Beta HF Exchange     Energy = -18.90099748218715
 DFT Correlation      Energy =  -5.16645698176217
 DFT Exchange         Energy = -150.48923898172058
 One-Electron (alpha) Energy = -4014.69559653034594
 One-Electron (beta)  Energy = -4014.69559653034594
 Total Coulomb        Energy = 2707.00311109277573
    9   -4921.6897494433      8.34e-06  
 Alpha HF Exchange    Energy = -18.90099115692572
 Beta HF Exchange     Energy = -18.90099115692571
 DFT Correlation      Energy =  -5.16646946277897
 DFT Exchange         Energy = -150.48918863863923
 One-Electron (alpha) Energy = -4014.69283266993716
 One-Electron (beta)  Energy = -4014.69283266993625
 Total Coulomb        Energy = 2706.99753198616054
   10   -4921.6897503165      1.38e-06  
 Alpha HF Exchange    Energy = -18.90099509293409
 Beta HF Exchange     Energy = -18.90099509293406
 DFT Correlation      Energy =  -5.16646934145898
 DFT Exchange         Energy = -150.48921711145709
 One-Electron (alpha) Energy = -4014.69310255068831
 One-Electron (beta)  Energy = -4014.69310255068422
 Total Coulomb        Energy = 2706.99810794744599
   11   -4921.6897503403      3.34e-07  Convergence criterion met
 ---------------------------------------
 SCF time:   CPU 51.92s  wall 5.00s 
<S^2> =          0.000000000
 Alpha HF Exchange    Energy = -18.90099509293409
 Beta HF Exchange     Energy = -18.90099509293406
 DFT Correlation      Energy =  -5.16646934145898
 DFT Exchange         Energy = -150.48921711145709
 One-Electron (alpha) Energy = -4014.69310255068831
 One-Electron (beta)  Energy = -4014.69310255068422
 Total Coulomb        Energy = 2706.99810794744599
 Nuclear repulsion Energy = 594.15602345245691
 SCF   energy in the final basis set =    -4921.6897503403
 Total energy in the final basis set =    -4921.6897503403
 
 --------------------------------------------------------------
 
                    Orbital Energies (a.u.)
 --------------------------------------------------------------
 
 Alpha MOs
 -- Occupied --
*******-453.879 -58.123 -58.075 -52.180 -52.179 -52.177 -52.132
-52.131 -52.129 -10.289 -10.219 -10.186  -7.856  -7.808  -5.801
 -5.797  -5.790  -5.753  -5.749  -5.740  -2.135  -2.134  -2.128
 -2.124  -2.124  -2.087  -2.086  -2.079  -2.076  -2.074  -0.831
 -0.753  -0.697  -0.652  -0.527  -0.470  -0.449  -0.431  -0.418
 -0.381  -0.370  -0.365  -0.339  -0.306  -0.241  -0.214
 -- Virtual --
 -0.085  -0.024   0.041   0.071   0.092   0.096   0.140   0.150
  0.162   0.178   0.180   0.192   0.221   0.235   0.268   0.276
  0.292   0.318   0.337   0.354   0.445   0.488   0.504   0.515
  0.528   0.559   0.574   0.581   0.606   0.613   0.619   0.649
  0.677   0.693   0.771   0.814   0.830   0.850   0.859   0.880
  0.905   0.919   0.951   0.975   0.980   1.042   1.058   1.072
  1.202   1.329   1.448   1.528   1.588   1.602   1.654   1.676
  1.683   1.758   1.784   1.837   1.875   1.902   2.032   2.042
  2.058   2.066   2.099   2.105   2.156   2.200   2.239   2.295
  2.379   2.384   2.432   2.566   2.601   2.617   2.619   2.662
  2.675   2.738   2.814   2.870   2.898   3.192   3.277   3.370
  3.449   3.517   4.058   4.155   4.243   4.257   4.260   4.269
  4.331   4.350   4.354   4.385   4.437   4.482   4.496   4.606
  5.429   5.472  89.706  89.725
 
 Beta MOs
 -- Occupied --
*******-453.879 -58.123 -58.075 -52.180 -52.179 -52.177 -52.132
-52.131 -52.129 -10.289 -10.219 -10.186  -7.856  -7.808  -5.801
 -5.797  -5.790  -5.753  -5.749  -5.740  -2.135  -2.134  -2.128
 -2.124  -2.124  -2.087  -2.086  -2.079  -2.076  -2.074  -0.831
 -0.753  -0.697  -0.652  -0.527  -0.470  -0.449  -0.431  -0.418
 -0.381  -0.370  -0.365  -0.339  -0.306  -0.241  -0.214
 -- Virtual --
 -0.085  -0.024   0.041   0.071   0.092   0.096   0.140   0.150
  0.162   0.178   0.180   0.192   0.221   0.235   0.268   0.276
  0.292   0.318   0.337   0.354   0.445   0.488   0.504   0.515
  0.528   0.559   0.574   0.581   0.606   0.613   0.619   0.649
  0.677   0.693   0.771   0.814   0.830   0.850   0.859   0.880
  0.905   0.919   0.951   0.975   0.980   1.042   1.058   1.072
  1.202   1.329   1.448   1.528   1.588   1.602   1.654   1.676
  1.683   1.758   1.784   1.837   1.875   1.902   2.032   2.042
  2.058   2.066   2.099   2.105   2.156   2.200   2.239   2.295
  2.379   2.384   2.432   2.566   2.601   2.617   2.619   2.662
  2.675   2.738   2.814   2.870   2.898   3.192   3.277   3.370
  3.449   3.517   4.058   4.155   4.243   4.257   4.260   4.269
  4.331   4.350   4.354   4.385   4.437   4.482   4.496   4.606
  5.429   5.472  89.706  89.725
 --------------------------------------------------------------
 
          Ground-State Mulliken Net Atomic Charges

     Atom                 Charge (a.u.)    Spin (a.u.)
  --------------------------------------------------------
      1 C                    -0.032610      -0.000000
      2 H                     0.091858      -0.000000
      3 C                    -0.225600       0.000000
      4 H                     0.150819      -0.000000
      5 H                     0.130551      -0.000000
      6 C                    -0.315169       0.000000
      7 H                     0.103939      -0.000000
      8 H                     0.126420      -0.000000
      9 H                     0.141345      -0.000000
     10 Se                    0.019944       0.000000
     11 H                    -0.004110       0.000000
     12 Se                   -0.191699       0.000000
     13 H                     0.004311      -0.000000
  --------------------------------------------------------
  Sum of atomic charges =     0.000000
  Sum of spin   charges =     0.000000

 -----------------------------------------------------------------
                    Cartesian Multipole Moments
 -----------------------------------------------------------------
    Charge (ESU x 10^10)
                 0.0000
    Dipole Moment (Debye)
         X      -1.3613      Y       0.8499      Z       1.1810
       Tot       1.9925
    Quadrupole Moments (Debye-Ang)
        XX     -59.8921     XY       0.1206     YY     -55.5439
        XZ       4.0824     YZ       2.6537     ZZ     -58.9309
    Octopole Moments (Debye-Ang^2)
       XXX     -64.1005    XXY     -59.2298    XYY     -17.0903
       YYY    -152.3747    XXZ      63.3774    XYZ      -1.0660
       YYZ      66.3310    XZZ     -27.8246    YZZ     -58.8410
       ZZZ     187.4141
    Hexadecapole Moments (Debye-Ang^3)
      XXXX    -806.8743   XXXY    -113.6715   XXYY    -242.1341
      XYYY    -106.0607   YYYY    -596.2433   XXXZ      46.4437
      XXYZ      45.6730   XYYZ      14.2966   YYYZ     107.7995
      XXZZ    -274.4481   XYZZ     -33.6801   YYZZ    -260.4605
      XZZZ      64.3097   YZZZ     115.4304   ZZZZ    -903.5138
 -----------------------------------------------------------------
 Calculating analytic gradient of the SCF energy
 Gradient of SCF Energy
            1           2           3           4           5           6
    1  -0.0001739  -0.0000751   0.0002092  -0.0000605  -0.0000626   0.0000448
    2   0.0000926   0.0000314  -0.0001626   0.0000143   0.0000959   0.0000179
    3  -0.0000598   0.0000654   0.0000035   0.0000788  -0.0000061  -0.0000673
            7           8           9          10          11          12
    1   0.0000763  -0.0000185   0.0000122   0.0001284   0.0000434  -0.0000391
    2   0.0000104  -0.0000105  -0.0000837  -0.0000699   0.0001491  -0.0000910
    3  -0.0000838   0.0000592  -0.0001028   0.0001614  -0.0002574   0.0000830
           13
    1  -0.0000846
    2   0.0000061
    3   0.0001260
 Max gradient component =       2.574E-04
 RMS gradient           =       9.684E-05
 Gradient time:  CPU 19.08 s  wall 1.62 s
 Geometry Optimization Parameters
   NAtoms,    NIC,     NZ,  NCons,   NDum,   NFix, NCnnct, MaxDiis
       13     136       0       1       0       0       0       0

 Cartesian Hessian Update
 Hessian Updated using BFGS Update


** CONSTRAINED OPTIMIZATION IN DELOCALIZED INTERNAL COORDINATES **
   Searching for a Minimum

   Optimization Cycle:  10

                       Coordinates (Angstroms)
     ATOM                X               Y               Z
      1  C         0.3114807957    1.1181392172   -1.0942768181
      2  H        -1.1668648401   -0.1284531023   -2.6789658775
      3  C         0.3922688691    2.0602043609    0.0911403354
      4  H         0.0656190504    3.0457765846   -0.2740426151
      5  H        -0.3632531281    1.7632758135    0.8315086973
      6  C         1.7598055955    2.1897382185    0.7618607320
      7  H         1.6976153405    2.9051125088    1.5877742319
      8  H         2.0937196943    1.2286658954    1.1620799017
      9  H         2.5154236474    2.5371075935    0.0545040848
     10  Se       -1.5055274531    0.6278844611   -1.4639398836
     11  H         0.0049596985   -1.8151419206    1.6003792152
     12  Se        1.7013126077    0.5516889724   -2.0635811776
     13  H        -0.6743498779   -1.6350916030    1.3590621735
   Point Group: c1    Number of degrees of freedom:    33


   Energy is  -4921.689750340

              Constraints and their Current Values
                                        Value     Constraint
   Distance(Angs):       10  11             4.200000     4.200000
 Hessian Updated using BFGS Update

 32 Hessian modes will be used to form the next step
  Hessian Eigenvalues:
     0.008409    0.044631    0.048363    0.097480    0.147379    0.167145
     0.192467    0.206702    0.216672    0.229737    0.236970    0.258076
     0.283488    0.284790    0.298932    0.322399    0.375020    0.423622
     0.431040    0.440818    0.453788    0.513065    0.614738    0.627194
     0.821699    0.939263    0.960848    0.982809    1.130775    1.166056
     1.189097    1.199781

 Minimum Search - Taking Simple RFO Step
 Searching for Lamda that Minimizes Along All modes
 Value Taken    Lamda =  -0.00000115
 Step Taken.  Stepsize is  0.007577

                             Maximum     Tolerance    Cnvgd?
         Gradient           0.000136      0.000300     YES
         Displacement       0.003667      0.001200      NO
         Energy change     -0.000000      0.000001     YES


                       Distance Matrix (Angstroms)
             C (  1)   H (  2)   C (  3)   H (  4)   H (  5)   C (  6)
   H (  2)  2.500148
   C (  3)  1.516320  3.859353
   H (  4)  2.109270  4.168742  1.100641
   H (  5)  2.140121  4.067906  1.098693  1.746706
   C (  6)  2.586738  5.077273  1.528660  2.162444  2.166587
   H (  7)  3.508282  5.967649  2.158173  2.479831  2.474451  1.094423
   H (  8)  2.877453  5.217932  2.175615  3.078560  2.536099  1.093313
   H (  9)  2.861911  5.304368  2.176365  2.523535  3.080476  1.091777
   Se( 10)  1.917947  1.470723  2.841029  3.119384  2.804102  4.249232
   H ( 11)  3.994905  4.746671  4.176855  5.210150  3.678562  4.452153
   Se( 12)  1.786631  3.011268  2.938033  3.478278  3.756584  3.266458
   H ( 13)  3.817200  4.337995  4.049755  5.012496  3.453114  4.572864
             H (  7)   H (  8)   H (  9)   Se( 10)   H ( 11)   Se( 12)
   H (  8)  1.774426
   H (  9)  1.776276  1.765383
   Se( 10)  4.975827  4.495720  4.703068
   H ( 11)  5.014583  3.717498  5.256827  4.200000
   Se( 12)  4.344078  3.319212  3.015120  3.263311  4.680182
   H ( 13)  5.127571  3.987746  5.411448  3.712312  0.743043  4.705345

 
 Final energy is   -4921.68975034025     


 ******************************
 **  OPTIMIZATION CONVERGED  **
 ******************************

                       Coordinates (Angstroms)
     ATOM                X               Y               Z
      1  C         0.3114807957    1.1181392172   -1.0942768181
      2  H        -1.1668648401   -0.1284531023   -2.6789658775
      3  C         0.3922688691    2.0602043609    0.0911403354
      4  H         0.0656190504    3.0457765846   -0.2740426151
      5  H        -0.3632531281    1.7632758135    0.8315086973
      6  C         1.7598055955    2.1897382185    0.7618607320
      7  H         1.6976153405    2.9051125088    1.5877742319
      8  H         2.0937196943    1.2286658954    1.1620799017
      9  H         2.5154236474    2.5371075935    0.0545040848
     10  Se       -1.5055274531    0.6278844611   -1.4639398836
     11  H         0.0049596985   -1.8151419206    1.6003792152
     12  Se        1.7013126077    0.5516889724   -2.0635811776
     13  H        -0.6743498779   -1.6350916030    1.3590621735

Z-matrix Print:
$molecule
0 1
Se
C  1 1.786631
C  2 1.516320 1 125.427197
H  3 1.098693 2 108.799899 1 -144.505208 0
H  3 1.100641 2 106.327833 1 102.691185 0
C  3 1.528660 2 116.316042 1 -19.622746 0
H  6 1.091777 3 111.213161 2 58.840615 0
H  6 1.093313 3 111.060294 2 -61.198813 0
H  6 1.094423 3 109.613240 2 179.042438 0
Se 2 1.917947 1 123.460171 3 178.476140 0
H  10 1.470723 2 94.159421 1 -3.660910 0
H  4 3.453114 3 115.523027 2 41.918984 0
H  12 0.743043 4 101.871984 3 60.640494 0
$end

PES scan, value:    4.2000 energy: -4921.6897503403
------- Summary of potential scan: ------ 
    4.2000     -4921.6897503403
----------------------------------------- 
Archival summary:
1\1\hpc0248\JobtypUnspecified\ProcedureUnspecified\6-31G**\e238\knomura\ThuMar1401:20:492019ThuMar1401:20:492019\0\\#,JobtypUnspecified,ProcedureUnspecified,6-31G**,\\0,1\Se\C,1,1.78663\C,2,1.51632,1,125.427\H,3,1.09869,2,108.8,1,-144.505,0\H,3,1.10064,2,106.328,1,102.691,0\C,3,1.52866,2,116.316,1,-19.6227,0\H,6,1.09178,3,111.213,2,58.8406,0\H,6,1.09331,3,111.06,2,-61.1988,0\H,6,1.09442,3,109.613,2,179.042,0\Se,2,1.91795,1,123.46,3,178.476,0\H,10,1.47072,2,94.1594,1,-3.66091,0\H,4,3.45311,3,115.523,2,41.919,0\H,12,0.743043,4,101.872,3,60.6405,0\\\@

 Total job time:  65.05s(wall), 763.36s(cpu) 
 Thu Mar 14 01:20:49 2019

        *************************************************************
        *                                                           *
        *  Thank you very much for using Q-Chem.  Have a nice day.  *
        *                                                           *
        *************************************************************


